<?xml version="1.0" encoding="ISO-8859-1"?>
<modeling>
 <generator>
  <i name="program" type="string">vasp </i>
  <i name="version" type="string">6.2.0  </i>
  <i name="subversion" type="string">18Jan21 (build Jan 05 2022 15:41:44) complex                          parallel </i>
  <i name="platform" type="string">LinuxIFC </i>
  <i name="date" type="string">2025 05 07 </i>
  <i name="time" type="string">16:57:44 </i>
 </generator>
 <incar>
  <i type="string" name="SYSTEM">routine with relax: pwdword</i>
  <i type="string" name="PREC">Acc</i>
  <i type="int" name="IALGO">    38</i>
  <i type="string" name="ALGO">A</i>
  <i type="logical" name="ADDGRID"> T  </i>
  <i type="int" name="ICHARG">     2</i>
  <i type="int" name="NELM">   100</i>
  <i type="int" name="NELMIN">     6</i>
  <i name="EDIFF">      0.00000000</i>
  <i type="int" name="NSW">     0</i>
  <i type="int" name="ISIF">    -1</i>
  <i name="ENCUT">    600.00000000</i>
  <i type="logical" name="LREAL"> F  </i>
  <i type="int" name="ISMEAR">     0</i>
  <i name="SIGMA">      0.02000000</i>
  <i type="logical" name="LASPH"> T  </i>
  <i type="string" name="METAGGA">R2SCAN</i>
  <i type="logical" name="LMIXTAU"> F  </i>
 </incar>
 <primitive_cell>
  <structure name="primitive_cell" >
   <crystal>
    <varray name="basis" >
     <v>       5.64415728       0.00000000      -3.66633905 </v>
     <v>      -1.66346872       5.39345744      -3.66633905 </v>
     <v>       0.00000000       0.00000000       6.73042000 </v>
    </varray>
    <i name="volume">    204.88422907 </i>
    <varray name="rec_basis" >
     <v>       0.17717437       0.05464473       0.00000000 </v>
     <v>       0.00000000       0.18540982       0.00000000 </v>
     <v>       0.09651423       0.13076768       0.14857914 </v>
    </varray>
   </crystal>
   <varray name="positions" >
    <v>       0.50191000       0.00191000       0.24847000 </v>
    <v>       0.49809000       0.99809000       0.75153000 </v>
    <v>       0.00191000       0.75344000       0.50000000 </v>
    <v>       0.99809000       0.24656000       0.50000000 </v>
    <v>       0.75344000       0.25344000       0.75153000 </v>
    <v>       0.24656000       0.74656000       0.24847000 </v>
    <v>       0.25344000       0.50191000       0.50000000 </v>
    <v>       0.74656000       0.49809000       0.50000000 </v>
    <v>       0.25000000       0.25000000       0.00000000 </v>
    <v>       0.17291000       0.67291000       0.84583000 </v>
    <v>       0.75000000       0.75000000       0.00000000 </v>
    <v>       0.82709000       0.32709000       0.15417000 </v>
    <v>       0.67291000       0.82709000       0.50000000 </v>
    <v>       0.32709000       0.17291000       0.50000000 </v>
    <v>       0.00000000       0.00000000       0.00000000 </v>
    <v>       0.50000000       0.50000000       0.00000000 </v>
   </varray>
  </structure>
  <varray name="primitive_index" >
   <v type="int" >        1 </v>
   <v type="int" >        2 </v>
   <v type="int" >        3 </v>
   <v type="int" >        4 </v>
   <v type="int" >        5 </v>
   <v type="int" >        6 </v>
   <v type="int" >        7 </v>
   <v type="int" >        8 </v>
   <v type="int" >        9 </v>
   <v type="int" >       10 </v>
   <v type="int" >       11 </v>
   <v type="int" >       12 </v>
   <v type="int" >       13 </v>
   <v type="int" >       14 </v>
   <v type="int" >       15 </v>
   <v type="int" >       16 </v>
  </varray>
 </primitive_cell>
 <kpoints>
  <generation param="Gamma">
   <v type="int" name="divisions">       7        7        8 </v>
   <v name="usershift">      0.00000000       0.00000000       0.00000000 </v>
   <v name="genvec1">      0.14285714       0.00000000       0.00000000 </v>
   <v name="genvec2">      0.00000000       0.14285714       0.00000000 </v>
   <v name="genvec3">      0.00000000       0.00000000       0.12500000 </v>
   <v name="shift">      0.00000000       0.00000000       0.00000000 </v>
  </generation>
  <varray name="kpointlist" >
   <v>       0.00000000       0.00000000       0.00000000 </v>
   <v>       0.14285714      -0.00000000       0.00000000 </v>
   <v>       0.28571429      -0.00000000       0.00000000 </v>
   <v>       0.42857143      -0.00000000       0.00000000 </v>
   <v>       0.14285714       0.14285714       0.00000000 </v>
   <v>       0.28571429       0.14285714       0.00000000 </v>
   <v>       0.42857143       0.14285714       0.00000000 </v>
   <v>      -0.42857143       0.14285714       0.00000000 </v>
   <v>      -0.28571429       0.14285714       0.00000000 </v>
   <v>      -0.14285714       0.14285714       0.00000000 </v>
   <v>       0.28571429       0.28571429       0.00000000 </v>
   <v>       0.42857143       0.28571429       0.00000000 </v>
   <v>      -0.42857143       0.28571429       0.00000000 </v>
   <v>      -0.28571429       0.28571429       0.00000000 </v>
   <v>       0.42857143       0.42857143       0.00000000 </v>
   <v>      -0.42857143       0.42857143       0.00000000 </v>
   <v>       0.00000000       0.00000000       0.12500000 </v>
   <v>       0.14285714       0.00000000       0.12500000 </v>
   <v>       0.28571429      -0.00000000       0.12500000 </v>
   <v>       0.42857143       0.00000000       0.12500000 </v>
   <v>      -0.42857143       0.00000000       0.12500000 </v>
   <v>      -0.28571429       0.00000000       0.12500000 </v>
   <v>      -0.14285714       0.00000000       0.12500000 </v>
   <v>       0.14285714       0.14285714       0.12500000 </v>
   <v>       0.28571429       0.14285714       0.12500000 </v>
   <v>       0.42857143       0.14285714       0.12500000 </v>
   <v>      -0.42857143       0.14285714       0.12500000 </v>
   <v>      -0.28571429       0.14285714       0.12500000 </v>
   <v>      -0.14285714       0.14285714       0.12500000 </v>
   <v>       0.28571429       0.28571429       0.12500000 </v>
   <v>       0.42857143       0.28571429       0.12500000 </v>
   <v>      -0.42857143       0.28571429       0.12500000 </v>
   <v>      -0.28571429       0.28571429       0.12500000 </v>
   <v>      -0.14285714       0.28571429       0.12500000 </v>
   <v>       0.42857143       0.42857143       0.12500000 </v>
   <v>      -0.42857143       0.42857143       0.12500000 </v>
   <v>      -0.28571429       0.42857143       0.12500000 </v>
   <v>      -0.14285714       0.42857143       0.12500000 </v>
   <v>      -0.42857143      -0.42857143       0.12500000 </v>
   <v>      -0.28571429      -0.42857143       0.12500000 </v>
   <v>      -0.14285714      -0.42857143       0.12500000 </v>
   <v>      -0.28571429      -0.28571429       0.12500000 </v>
   <v>      -0.14285714      -0.28571429       0.12500000 </v>
   <v>      -0.14285714      -0.14285714       0.12500000 </v>
   <v>       0.00000000       0.00000000       0.25000000 </v>
   <v>       0.14285714      -0.00000000       0.25000000 </v>
   <v>       0.28571429       0.00000000       0.25000000 </v>
   <v>       0.42857143      -0.00000000       0.25000000 </v>
   <v>      -0.42857143       0.00000000       0.25000000 </v>
   <v>      -0.28571429       0.00000000       0.25000000 </v>
   <v>      -0.14285714       0.00000000       0.25000000 </v>
   <v>       0.14285714       0.14285714       0.25000000 </v>
   <v>       0.28571429       0.14285714       0.25000000 </v>
   <v>       0.42857143       0.14285714       0.25000000 </v>
   <v>      -0.42857143       0.14285714       0.25000000 </v>
   <v>      -0.28571429       0.14285714       0.25000000 </v>
   <v>      -0.14285714       0.14285714       0.25000000 </v>
   <v>       0.28571429       0.28571429       0.25000000 </v>
   <v>       0.42857143       0.28571429       0.25000000 </v>
   <v>      -0.42857143       0.28571429       0.25000000 </v>
   <v>      -0.28571429       0.28571429       0.25000000 </v>
   <v>      -0.14285714       0.28571429       0.25000000 </v>
   <v>       0.42857143       0.42857143       0.25000000 </v>
   <v>      -0.42857143       0.42857143       0.25000000 </v>
   <v>      -0.28571429       0.42857143       0.25000000 </v>
   <v>      -0.14285714       0.42857143       0.25000000 </v>
   <v>      -0.42857143      -0.42857143       0.25000000 </v>
   <v>      -0.28571429      -0.42857143       0.25000000 </v>
   <v>      -0.14285714      -0.42857143       0.25000000 </v>
   <v>      -0.28571429      -0.28571429       0.25000000 </v>
   <v>      -0.14285714      -0.28571429       0.25000000 </v>
   <v>      -0.14285714      -0.14285714       0.25000000 </v>
   <v>       0.00000000       0.00000000       0.37500000 </v>
   <v>       0.14285714       0.00000000       0.37500000 </v>
   <v>       0.28571429       0.00000000       0.37500000 </v>
   <v>       0.42857143       0.00000000       0.37500000 </v>
   <v>      -0.42857143       0.00000000       0.37500000 </v>
   <v>      -0.28571429       0.00000000       0.37500000 </v>
   <v>      -0.14285714       0.00000000       0.37500000 </v>
   <v>       0.14285714       0.14285714       0.37500000 </v>
   <v>       0.28571429       0.14285714       0.37500000 </v>
   <v>       0.42857143       0.14285714       0.37500000 </v>
   <v>      -0.42857143       0.14285714       0.37500000 </v>
   <v>      -0.28571429       0.14285714       0.37500000 </v>
   <v>      -0.14285714       0.14285714       0.37500000 </v>
   <v>       0.28571429       0.28571429       0.37500000 </v>
   <v>       0.42857143       0.28571429       0.37500000 </v>
   <v>      -0.42857143       0.28571429       0.37500000 </v>
   <v>      -0.28571429       0.28571429       0.37500000 </v>
   <v>      -0.14285714       0.28571429       0.37500000 </v>
   <v>       0.42857143       0.42857143       0.37500000 </v>
   <v>      -0.42857143       0.42857143       0.37500000 </v>
   <v>      -0.28571429       0.42857143       0.37500000 </v>
   <v>      -0.14285714       0.42857143       0.37500000 </v>
   <v>      -0.42857143      -0.42857143       0.37500000 </v>
   <v>      -0.28571429      -0.42857143       0.37500000 </v>
   <v>      -0.14285714      -0.42857143       0.37500000 </v>
   <v>      -0.28571429      -0.28571429       0.37500000 </v>
   <v>      -0.14285714      -0.28571429       0.37500000 </v>
   <v>      -0.14285714      -0.14285714       0.37500000 </v>
   <v>       0.00000000       0.00000000       0.50000000 </v>
   <v>       0.14285714       0.00000000       0.50000000 </v>
   <v>       0.28571429      -0.00000000       0.50000000 </v>
   <v>       0.42857143       0.00000000       0.50000000 </v>
   <v>       0.14285714       0.14285714       0.50000000 </v>
   <v>       0.28571429       0.14285714       0.50000000 </v>
   <v>       0.42857143       0.14285714       0.50000000 </v>
   <v>      -0.42857143       0.14285714       0.50000000 </v>
   <v>      -0.28571429       0.14285714       0.50000000 </v>
   <v>      -0.14285714       0.14285714       0.50000000 </v>
   <v>       0.28571429       0.28571429       0.50000000 </v>
   <v>       0.42857143       0.28571429       0.50000000 </v>
   <v>      -0.42857143       0.28571429       0.50000000 </v>
   <v>      -0.28571429       0.28571429       0.50000000 </v>
   <v>       0.42857143       0.42857143       0.50000000 </v>
   <v>      -0.42857143       0.42857143       0.50000000 </v>
  </varray>
  <varray name="weights" >
   <v>       0.00255102 </v>
   <v>       0.01020408 </v>
   <v>       0.01020408 </v>
   <v>       0.01020408 </v>
   <v>       0.00510204 </v>
   <v>       0.01020408 </v>
   <v>       0.01020408 </v>
   <v>       0.01020408 </v>
   <v>       0.01020408 </v>
   <v>       0.00510204 </v>
   <v>       0.00510204 </v>
   <v>       0.01020408 </v>
   <v>       0.01020408 </v>
   <v>       0.00510204 </v>
   <v>       0.00510204 </v>
   <v>       0.00510204 </v>
   <v>       0.00510204 </v>
   <v>       0.01020408 </v>
   <v>       0.01020408 </v>
   <v>       0.01020408 </v>
   <v>       0.01020408 </v>
   <v>       0.01020408 </v>
   <v>       0.01020408 </v>
   <v>       0.00510204 </v>
   <v>       0.01020408 </v>
   <v>       0.01020408 </v>
   <v>       0.01020408 </v>
   <v>       0.01020408 </v>
   <v>       0.01020408 </v>
   <v>       0.00510204 </v>
   <v>       0.01020408 </v>
   <v>       0.01020408 </v>
   <v>       0.01020408 </v>
   <v>       0.01020408 </v>
   <v>       0.00510204 </v>
   <v>       0.01020408 </v>
   <v>       0.01020408 </v>
   <v>       0.01020408 </v>
   <v>       0.00510204 </v>
   <v>       0.01020408 </v>
   <v>       0.01020408 </v>
   <v>       0.00510204 </v>
   <v>       0.01020408 </v>
   <v>       0.00510204 </v>
   <v>       0.00510204 </v>
   <v>       0.01020408 </v>
   <v>       0.01020408 </v>
   <v>       0.01020408 </v>
   <v>       0.01020408 </v>
   <v>       0.01020408 </v>
   <v>       0.01020408 </v>
   <v>       0.00510204 </v>
   <v>       0.01020408 </v>
   <v>       0.01020408 </v>
   <v>       0.01020408 </v>
   <v>       0.01020408 </v>
   <v>       0.01020408 </v>
   <v>       0.00510204 </v>
   <v>       0.01020408 </v>
   <v>       0.01020408 </v>
   <v>       0.01020408 </v>
   <v>       0.01020408 </v>
   <v>       0.00510204 </v>
   <v>       0.01020408 </v>
   <v>       0.01020408 </v>
   <v>       0.01020408 </v>
   <v>       0.00510204 </v>
   <v>       0.01020408 </v>
   <v>       0.01020408 </v>
   <v>       0.00510204 </v>
   <v>       0.01020408 </v>
   <v>       0.00510204 </v>
   <v>       0.00510204 </v>
   <v>       0.01020408 </v>
   <v>       0.01020408 </v>
   <v>       0.01020408 </v>
   <v>       0.01020408 </v>
   <v>       0.01020408 </v>
   <v>       0.01020408 </v>
   <v>       0.00510204 </v>
   <v>       0.01020408 </v>
   <v>       0.01020408 </v>
   <v>       0.01020408 </v>
   <v>       0.01020408 </v>
   <v>       0.01020408 </v>
   <v>       0.00510204 </v>
   <v>       0.01020408 </v>
   <v>       0.01020408 </v>
   <v>       0.01020408 </v>
   <v>       0.01020408 </v>
   <v>       0.00510204 </v>
   <v>       0.01020408 </v>
   <v>       0.01020408 </v>
   <v>       0.01020408 </v>
   <v>       0.00510204 </v>
   <v>       0.01020408 </v>
   <v>       0.01020408 </v>
   <v>       0.00510204 </v>
   <v>       0.01020408 </v>
   <v>       0.00510204 </v>
   <v>       0.00255102 </v>
   <v>       0.01020408 </v>
   <v>       0.01020408 </v>
   <v>       0.01020408 </v>
   <v>       0.00510204 </v>
   <v>       0.01020408 </v>
   <v>       0.01020408 </v>
   <v>       0.01020408 </v>
   <v>       0.01020408 </v>
   <v>       0.00510204 </v>
   <v>       0.00510204 </v>
   <v>       0.01020408 </v>
   <v>       0.01020408 </v>
   <v>       0.00510204 </v>
   <v>       0.00510204 </v>
   <v>       0.00510204 </v>
  </varray>
 </kpoints>
 <parameters>
  <separator name="general" >
   <i type="string" name="SYSTEM">routine with relax: pwdword</i>
   <i type="logical" name="LCOMPAT"> F  </i>
  </separator>
  <separator name="electronic" >
   <i type="string" name="PREC">acc</i>
   <i name="ENMAX">    600.00000000</i>
   <i name="ENAUG">    535.51400000</i>
   <i name="EDIFF">      0.00000000</i>
   <i type="int" name="IALGO">    58</i>
   <i type="int" name="IWAVPR">    10</i>
   <i type="int" name="NBANDS">    72</i>
   <i type="int" name="NBANDSLOW">    -1</i>
   <i type="int" name="NBANDSHIGH">    -1</i>
   <i name="NELECT">    116.00000000</i>
   <i type="int" name="TURBO">     0</i>
   <i type="int" name="IRESTART">     0</i>
   <i type="int" name="NREBOOT">     0</i>
   <i type="int" name="NMIN">     0</i>
   <i name="EREF">      0.00000000</i>
   <separator name="electronic smearing" >
    <i type="int" name="ISMEAR">     0</i>
    <i name="SIGMA">      0.02000000</i>
    <i name="KSPACING">      0.50000000</i>
    <i type="logical" name="KGAMMA"> T  </i>
    <i type="logical" name="KBLOWUP"> F  </i>
   </separator>
   <separator name="electronic projectors" >
    <i type="logical" name="LREAL"> F  </i>
    <v name="ROPT">      0.00000000      0.00000000      0.00000000</v>
    <i type="int" name="LMAXPAW">  -100</i>
    <i type="int" name="LMAXMIX">     2</i>
    <i type="logical" name="NLSPLINE"> F  </i>
   </separator>
   <separator name="electronic startup" >
    <i type="int" name="ISTART">     0</i>
    <i type="int" name="ICHARG">     2</i>
    <i type="int" name="INIWAV">     1</i>
   </separator>
   <separator name="electronic spin" >
    <i type="int" name="ISPIN">     1</i>
    <i type="logical" name="LNONCOLLINEAR"> F  </i>
    <v name="MAGMOM">      1.00000000      1.00000000      1.00000000      1.00000000      1.00000000      1.00000000      1.00000000      1.00000000      1.00000000      1.00000000      1.00000000      1.00000000      1.00000000      1.00000000      1.00000000      1.00000000</v>
    <i name="NUPDOWN">     -1.00000000</i>
    <i type="logical" name="LSORBIT"> F  </i>
    <v name="SAXIS">      0.00000000      0.00000000      1.00000000</v>
    <i type="logical" name="LSPIRAL"> F  </i>
    <v name="QSPIRAL">      0.00000000      0.00000000      0.00000000</v>
    <i type="logical" name="LZEROZ"> F  </i>
   </separator>
   <separator name="electronic exchange-correlation" >
    <i type="logical" name="LASPH"> T  </i>
    <i type="logical" name="LMETAGGA"> F  </i>
   </separator>
   <separator name="electronic convergence" >
    <i type="int" name="NELM">   100</i>
    <i type="int" name="NELMDL">    -5</i>
    <i type="int" name="NELMIN">     6</i>
    <i name="ENINI">    600.00000000</i>
    <separator name="electronic convergence detail" >
     <i type="logical" name="LDIAG"> T  </i>
     <i type="logical" name="LSUBROT"> F  </i>
     <i name="WEIMIN">      0.00000000</i>
     <i name="EBREAK">      0.00000000</i>
     <i name="DEPER">      0.30000000</i>
     <i type="int" name="NRMM">     4</i>
     <i name="TIME">      0.40000000</i>
    </separator>
   </separator>
   <separator name="electronic mixer" >
    <i name="AMIX">      0.40000000</i>
    <i name="BMIX">      1.00000000</i>
    <i name="AMIN">      0.10000000</i>
    <i name="AMIX_MAG">      1.60000000</i>
    <i name="BMIX_MAG">      1.00000000</i>
    <separator name="electronic mixer details" >
     <i type="int" name="IMIX">     4</i>
     <i type="logical" name="MIXFIRST"> F  </i>
     <i type="int" name="MAXMIX">   -45</i>
     <i name="WC">    100.00000000</i>
     <i type="int" name="INIMIX">     1</i>
     <i type="int" name="MIXPRE">     1</i>
     <i type="int" name="MREMOVE">     5</i>
    </separator>
   </separator>
   <separator name="electronic dipolcorrection" >
    <i type="logical" name="LDIPOL"> F  </i>
    <i type="logical" name="LMONO"> F  </i>
    <i type="int" name="IDIPOL">     0</i>
    <i name="EPSILON">      1.00000000</i>
    <v name="DIPOL">   -100.00000000   -100.00000000   -100.00000000</v>
    <i name="EFIELD">      0.00000000</i>
   </separator>
  </separator>
  <separator name="grids" >
   <i type="int" name="NGX">    54</i>
   <i type="int" name="NGY">    54</i>
   <i type="int" name="NGZ">    54</i>
   <i type="int" name="NGXF">   108</i>
   <i type="int" name="NGYF">   108</i>
   <i type="int" name="NGZF">   108</i>
   <i type="logical" name="ADDGRID"> T  </i>
  </separator>
  <separator name="ionic" >
   <i type="int" name="NSW">     0</i>
   <i type="int" name="IBRION">    -1</i>
   <i type="int" name="MDALGO">     0</i>
   <i type="int" name="ISIF">    -1</i>
   <i name="PSTRESS">      0.00000000</i>
   <i name="EDIFFG">      0.00000001</i>
   <i type="int" name="NFREE">     0</i>
   <i name="POTIM">      0.50000000</i>
   <i name="SMASS">     -3.00000000</i>
   <i name="SCALEE">      1.00000000</i>
  </separator>
  <separator name="ionic md" >
   <i name="TEBEG">      0.00010000</i>
   <i name="TEEND">      0.00010000</i>
   <i type="int" name="NBLOCK">     1</i>
   <i type="int" name="KBLOCK">     1</i>
   <i type="int" name="NPACO">   256</i>
   <i name="APACO">     16.00000000</i>
  </separator>
  <separator name="symmetry" >
   <i type="int" name="ISYM">     2</i>
   <i name="SYMPREC">      0.00001000</i>
  </separator>
  <separator name="dos" >
   <i type="int" name="LORBIT">     0</i>
   <v name="RWIGS">     -1.00000000     -1.00000000     -1.00000000</v>
   <i type="int" name="NEDOS">   301</i>
   <i name="EMIN">     10.00000000</i>
   <i name="EMAX">    -10.00000000</i>
   <i name="EFERMI">      0.00000000</i>
  </separator>
  <separator name="writing" >
   <i type="int" name="NWRITE">     2</i>
   <i type="logical" name="LWAVE"> T  </i>
   <i type="logical" name="LDOWNSAMPLE"> F  </i>
   <i type="logical" name="LCHARG"> T  </i>
   <i type="logical" name="LPARD"> F  </i>
   <i type="logical" name="LVTOT"> F  </i>
   <i type="logical" name="LVHAR"> F  </i>
   <i type="logical" name="LELF"> F  </i>
   <i type="logical" name="LOPTICS"> F  </i>
   <v name="STM">      0.00000000      0.00000000      0.00000000      0.00000000      0.00000000      0.00000000      0.00000000</v>
  </separator>
  <separator name="performance" >
   <i type="int" name="NPAR">     6</i>
   <i type="int" name="NSIM">     4</i>
   <i type="int" name="NBLK">    -1</i>
   <i type="logical" name="LPLANE"> T  </i>
   <i type="logical" name="LSCALAPACK"> T  </i>
   <i type="logical" name="LSCAAWARE"> F  </i>
   <i type="logical" name="LSCALU"> F  </i>
   <i type="logical" name="LASYNC"> F  </i>
   <i type="logical" name="LORBITALREAL"> F  </i>
  </separator>
  <separator name="miscellaneous" >
   <i type="int" name="IDIOT">     3</i>
   <i type="int" name="PHON_NSTRUCT">    -1</i>
   <i type="logical" name="LMUSIC"> F  </i>
   <v name="POMASS">     10.81100000     95.94000000     28.08500000</v>
   <v name="DARWINR">      0.00000000      0.00000000      0.00000000</v>
   <v name="DARWINV">      1.00000000      1.00000000      1.00000000</v>
   <i type="logical" name="LCORR"> T  </i>
  </separator>
  <i type="logical" name="GGA_COMPAT"> T  </i>
  <i type="logical" name="LBERRY"> F  </i>
  <i type="int" name="ICORELEVEL">     0</i>
  <i type="logical" name="LDAU"> F  </i>
  <i type="int" name="I_CONSTRAINED_M">     0</i>
  <separator name="electronic exchange-correlation" >
   <i type="string" name="GGA">--</i>
   <i type="int" name="VOSKOWN">     0</i>
   <i type="logical" name="LHFCALC"> F  </i>
   <i type="string" name="PRECFOCK"></i>
   <i type="logical" name="LSYMGRAD"> F  </i>
   <i type="logical" name="LHFONE"> F  </i>
   <i type="logical" name="LRHFCALC"> F  </i>
   <i type="logical" name="LTHOMAS"> F  </i>
   <i type="logical" name="LMODELHF"> F  </i>
   <i type="logical" name="LFOCKACE"> F  </i>
   <i name="ENCUT4O">     -1.00000000</i>
   <i type="int" name="EXXOEP">     0</i>
   <i type="int" name="FOURORBIT">     0</i>
   <i name="AEXX">      0.00000000</i>
   <i name="HFALPHA">      0.00000000</i>
   <i name="MCALPHA">      0.00000000</i>
   <i name="ALDAX">      1.00000000</i>
   <i name="AGGAX">      1.00000000</i>
   <i name="ALDAC">      1.00000000</i>
   <i name="AGGAC">      1.00000000</i>
   <i type="int" name="NKREDX">     1</i>
   <i type="int" name="NKREDY">     1</i>
   <i type="int" name="NKREDZ">     1</i>
   <i type="logical" name="SHIFTRED"> F  </i>
   <i type="logical" name="ODDONLY"> F  </i>
   <i type="logical" name="EVENONLY"> F  </i>
   <i type="int" name="LMAXFOCK">     0</i>
   <i type="int" name="NMAXFOCKAE">     0</i>
   <i type="logical" name="LFOCKAEDFT"> F  </i>
   <i name="HFSCREEN">      0.00000000</i>
   <i name="HFSCREENC">      0.00000000</i>
   <i type="int" name="NBANDSGWLOW">     0</i>
  </separator>
  <separator name="vdW DFT" >
   <i type="logical" name="LUSE_VDW"> F  </i>
   <i name="Zab_VDW">     -0.84910000</i>
   <i name="PARAM1">      0.12340000</i>
   <i name="PARAM2">      1.00000000</i>
   <i name="PARAM3">      0.00000000</i>
  </separator>
  <separator name="model GW" >
   <i type="int" name="MODEL_GW">     0</i>
   <i name="MODEL_EPS0">      7.68315859</i>
   <i name="MODEL_ALPHA">      1.00000000</i>
  </separator>
  <separator name="linear response parameters" >
   <i type="logical" name="LEPSILON"> F  </i>
   <i type="logical" name="LRPA"> F  </i>
   <i type="logical" name="LNABLA"> F  </i>
   <i type="logical" name="LVEL"> F  </i>
   <i type="int" name="KINTER">     0</i>
   <i name="CSHIFT">      0.10000000</i>
   <i name="OMEGAMAX">     -1.00000000</i>
   <i name="DEG_THRESHOLD">      0.00200000</i>
   <i name="RTIME">     -0.10000000</i>
   <i name="WPLASMAI">      0.00000000</i>
   <v name="DFIELD">      0.00000000      0.00000000      0.00000000</v>
   <v name="WPLASMA">      0.00000000      0.00000000      0.00000000      0.00000000      0.00000000      0.00000000      0.00000000      0.00000000      0.00000000</v>
  </separator>
  <separator name="orbital magnetization" >
   <i type="logical" name="NUCIND"> F  </i>
   <v name="MAGPOS">      0.00000000      0.00000000      0.00000000</v>
   <i type="logical" name="LNICSALL"> T  </i>
   <i type="logical" name="ORBITALMAG"> F  </i>
   <i type="logical" name="LMAGBLOCH"> F  </i>
   <i type="logical" name="LCHIMAG"> F  </i>
   <i type="logical" name="LGAUGE"> T  </i>
   <i type="int" name="MAGATOM">     0</i>
   <v name="MAGDIPOL">      0.00000000      0.00000000      0.00000000</v>
   <v name="AVECCONST">      0.00000000      0.00000000      0.00000000</v>
  </separator>
  <separator name="response functions" >
   <i type="logical" name="LFINITE_TEMPERATURE"> F  </i>
   <i type="logical" name="LADDER"> F  </i>
   <i type="logical" name="LRPAFORCE"> F  </i>
   <i type="logical" name="LFXC"> F  </i>
   <i type="logical" name="LHARTREE"> T  </i>
   <i type="int" name="IBSE">     0</i>
   <v type="int" name="KPOINT">    -1     0     0     0</v>
   <i type="logical" name="LTCTC"> F  </i>
   <i type="logical" name="LTCTE"> F  </i>
   <i type="logical" name="LTETE"> F  </i>
   <i type="logical" name="LTRIPLET"> F  </i>
   <i type="logical" name="LFXCEPS"> F  </i>
   <i type="logical" name="LFXHEG"> F  </i>
   <i type="int" name="NATURALO">     2</i>
   <i type="logical" name="LHOLEGF"> F  </i>
   <i type="logical" name="L2ORDER"> F  </i>
   <i type="logical" name="LDMP1"> F  </i>
   <i type="logical" name="LMP2LT"> F  </i>
   <i type="logical" name="LSMP2LT"> F  </i>
   <i type="logical" name="LGWLF"> F  </i>
   <i name="ENCUTGW">     -2.00000000</i>
   <i name="ENCUTGWSOFT">     -2.00000000</i>
   <i name="ENCUTLF">     -1.00000000</i>
   <i type="logical" name="LESF_SPLINES"> F  </i>
   <i type="int" name="LMAXMP2">    -1</i>
   <i name="SCISSOR">      0.00000000</i>
   <i type="int" name="NOMEGA">     0</i>
   <i type="int" name="NOMEGAR">     0</i>
   <i type="int" name="NBANDSGW">    -1</i>
   <i type="int" name="NBANDSO">    -1</i>
   <i type="int" name="NBANDSV">    -1</i>
   <i type="int" name="NELM">   100</i>
   <i type="int" name="NELMHF">     1</i>
   <i type="int" name="DIM">     3</i>
   <i type="int" name="IESPILON">     4</i>
   <i type="int" name="ANTIRES">     0</i>
   <i name="OMEGAMAX">    -30.00000000</i>
   <i name="OMEGAMIN">    -30.00000000</i>
   <i name="OMEGATL">   -200.00000000</i>
   <i type="int" name="OMEGAGRID">     0</i>
   <i name="CSHIFT">     -0.10000000</i>
   <i type="logical" name="LSELFENERGY"> F  </i>
   <i type="logical" name="LSPECTRAL"> F  </i>
   <i type="logical" name="LSPECTRALGW"> F  </i>
   <i type="logical" name="LSINGLES"> F  </i>
   <i type="logical" name="LFERMIGW"> F  </i>
   <i type="logical" name="ODDONLYGW"> F  </i>
   <i type="logical" name="EVENONLYGW"> F  </i>
   <i type="int" name="NKREDLFX">     1</i>
   <i type="int" name="NKREDLFY">     1</i>
   <i type="int" name="NKREDLFZ">     1</i>
   <i type="int" name="MAXMEM">  2800</i>
   <i type="int" name="TELESCOPE">     0</i>
   <i type="int" name="NTAUPAR">    -1</i>
   <i type="int" name="NOMEGAPAR">    -1</i>
   <i name="DAMP_NEWTON">      0.80000001</i>
   <i name="LAMBDA">      1.00000000</i>
  </separator>
  <separator name="External order field" >
   <i name="OFIELD_KAPPA">      0.00000000</i>
   <v name="OFIELD_K">      0.00000000      0.00000000      0.00000000</v>
   <i name="OFIELD_Q6_NEAR">      0.00000000</i>
   <i name="OFIELD_Q6_FAR">      0.00000000</i>
   <i name="OFIELD_A">      0.00000000</i>
  </separator>
 </parameters>
 <atominfo>
  <atoms>      16 </atoms>
  <types>       3 </types>
  <array name="atoms" >
   <dimension dim="1">ion</dimension>
   <field type="string">element</field>
   <field type="int">atomtype</field>
   <set>
    <rc><c>B </c><c>   1</c></rc>
    <rc><c>B </c><c>   1</c></rc>
    <rc><c>B </c><c>   1</c></rc>
    <rc><c>B </c><c>   1</c></rc>
    <rc><c>B </c><c>   1</c></rc>
    <rc><c>B </c><c>   1</c></rc>
    <rc><c>B </c><c>   1</c></rc>
    <rc><c>B </c><c>   1</c></rc>
    <rc><c>Mo</c><c>   2</c></rc>
    <rc><c>Mo</c><c>   2</c></rc>
    <rc><c>Mo</c><c>   2</c></rc>
    <rc><c>Mo</c><c>   2</c></rc>
    <rc><c>Mo</c><c>   2</c></rc>
    <rc><c>Mo</c><c>   2</c></rc>
    <rc><c>Si</c><c>   3</c></rc>
    <rc><c>Si</c><c>   3</c></rc>
   </set>
  </array>
  <array name="atomtypes" >
   <dimension dim="1">type</dimension>
   <field type="int">atomspertype</field>
   <field type="string">element</field>
   <field>mass</field>
   <field>valence</field>
   <field type="string">pseudopotential</field>
   <set>
    <rc><c>   8</c><c>B </c><c>     10.81100000</c><c>      3.00000000</c><c>  PAW_PBE B 06Sep2000                   </c></rc>
    <rc><c>   6</c><c>Mo</c><c>     95.94000000</c><c>     14.00000000</c><c>  PAW_PBE Mo_sv 02Feb2006               </c></rc>
    <rc><c>   2</c><c>Si</c><c>     28.08500000</c><c>      4.00000000</c><c>  PAW_PBE Si 05Jan2001                  </c></rc>
   </set>
  </array>
 </atominfo>
 <structure name="initialpos" >
  <crystal>
   <varray name="basis" >
    <v>       5.64415728       0.00000000      -3.66633905 </v>
    <v>      -1.66346872       5.39345744      -3.66633905 </v>
    <v>       0.00000000       0.00000000       6.73042000 </v>
   </varray>
   <i name="volume">    204.88422907 </i>
   <varray name="rec_basis" >
    <v>       0.17717437       0.05464473       0.00000000 </v>
    <v>       0.00000000       0.18540982       0.00000000 </v>
    <v>       0.09651423       0.13076768       0.14857914 </v>
   </varray>
  </crystal>
  <varray name="positions" >
   <v>       0.50191000       0.00191000       0.24847000 </v>
   <v>       0.49809000       0.99809000       0.75153000 </v>
   <v>       0.00191000       0.75344000       0.50000000 </v>
   <v>       0.99809000       0.24656000       0.50000000 </v>
   <v>       0.75344000       0.25344000       0.75153000 </v>
   <v>       0.24656000       0.74656000       0.24847000 </v>
   <v>       0.25344000       0.50191000       0.50000000 </v>
   <v>       0.74656000       0.49809000       0.50000000 </v>
   <v>       0.25000000       0.25000000       0.00000000 </v>
   <v>       0.17291000       0.67291000       0.84583000 </v>
   <v>       0.75000000       0.75000000       0.00000000 </v>
   <v>       0.82709000       0.32709000       0.15417000 </v>
   <v>       0.67291000       0.82709000       0.50000000 </v>
   <v>       0.32709000       0.17291000       0.50000000 </v>
   <v>       0.00000000       0.00000000       0.00000000 </v>
   <v>       0.50000000       0.50000000       0.00000000 </v>
  </varray>
 </structure>
 <calculation>
  <scstep>
   <time name="total">   34.75   35.02</time>
   <energy>
    <i name="alphaZ">    560.55952603 </i>
    <i name="ewald">  -9231.22116642 </i>
    <i name="hartreedc">  -2819.16177268 </i>
    <i name="XCdc">    513.95572288 </i>
    <i name="pawpsdc">   9417.46121024 </i>
    <i name="pawaedc">  -9379.23717351 </i>
    <i name="eentropy">     -0.00039539 </i>
    <i name="bandstr">     91.57674253 </i>
    <i name="atom">  11949.18504973 </i>
    <i name="e_fr_energy">   1103.11774342 </i>
    <i name="e_wo_entrp">   1103.11813881 </i>
    <i name="e_0_energy">   1103.11794111 </i>
   </energy>
  </scstep>
  <scstep>
   <time name="total">   36.25   37.01</time>
   <energy>
    <i name="e_fr_energy">   -200.64282377 </i>
    <i name="e_wo_entrp">   -200.64151886 </i>
    <i name="e_0_energy">   -200.64217132 </i>
   </energy>
  </scstep>
  <scstep>
   <time name="total">   43.02   43.96</time>
   <energy>
    <i name="e_fr_energy">   -264.08236284 </i>
    <i name="e_wo_entrp">   -264.08117671 </i>
    <i name="e_0_energy">   -264.08176978 </i>
   </energy>
  </scstep>
  <scstep>
   <time name="total">   41.24   42.16</time>
   <energy>
    <i name="e_fr_energy">   -265.69350180 </i>
    <i name="e_wo_entrp">   -265.69222082 </i>
    <i name="e_0_energy">   -265.69286131 </i>
   </energy>
  </scstep>
  <scstep>
   <time name="total">   43.07   43.93</time>
   <energy>
    <i name="e_fr_energy">   -265.72686210 </i>
    <i name="e_wo_entrp">   -265.72553900 </i>
    <i name="e_0_energy">   -265.72620055 </i>
   </energy>
  </scstep>
  <scstep>
   <time name="total">   43.36   43.79</time>
   <energy>
    <i name="e_fr_energy">   -173.74475391 </i>
    <i name="e_wo_entrp">   -173.74283607 </i>
    <i name="e_0_energy">   -173.74379499 </i>
   </energy>
  </scstep>
  <scstep>
   <time name="total">   45.80   46.38</time>
   <energy>
    <i name="e_fr_energy">   -208.94422650 </i>
    <i name="e_wo_entrp">   -208.94271005 </i>
    <i name="e_0_energy">   -208.94346827 </i>
   </energy>
  </scstep>
  <scstep>
   <time name="total">   48.61   48.98</time>
   <energy>
    <i name="e_fr_energy">   -214.27916516 </i>
    <i name="e_wo_entrp">   -214.27789597 </i>
    <i name="e_0_energy">   -214.27853057 </i>
   </energy>
  </scstep>
  <scstep>
   <time name="total">   45.54   45.88</time>
   <energy>
    <i name="e_fr_energy">   -215.84412857 </i>
    <i name="e_wo_entrp">   -215.84275319 </i>
    <i name="e_0_energy">   -215.84344088 </i>
   </energy>
  </scstep>
  <scstep>
   <time name="total">   44.48   44.83</time>
   <energy>
    <i name="e_fr_energy">   -216.44721335 </i>
    <i name="e_wo_entrp">   -216.44580342 </i>
    <i name="e_0_energy">   -216.44650839 </i>
   </energy>
  </scstep>
  <scstep>
   <time name="total">   45.73   46.08</time>
   <energy>
    <i name="e_fr_energy">   -216.70239413 </i>
    <i name="e_wo_entrp">   -216.70094863 </i>
    <i name="e_0_energy">   -216.70167138 </i>
   </energy>
  </scstep>
  <scstep>
   <time name="total">   45.34   45.68</time>
   <energy>
    <i name="e_fr_energy">   -216.80026635 </i>
    <i name="e_wo_entrp">   -216.79879528 </i>
    <i name="e_0_energy">   -216.79953081 </i>
   </energy>
  </scstep>
  <scstep>
   <time name="total">   45.03   45.37</time>
   <energy>
    <i name="e_fr_energy">   -216.87037241 </i>
    <i name="e_wo_entrp">   -216.86889135 </i>
    <i name="e_0_energy">   -216.86963188 </i>
   </energy>
  </scstep>
  <scstep>
   <time name="total">   44.29   44.79</time>
   <energy>
    <i name="e_fr_energy">   -216.89816540 </i>
    <i name="e_wo_entrp">   -216.89664461 </i>
    <i name="e_0_energy">   -216.89740500 </i>
   </energy>
  </scstep>
  <scstep>
   <time name="total">   49.01   49.63</time>
   <energy>
    <i name="e_fr_energy">   -216.91918483 </i>
    <i name="e_wo_entrp">   -216.91765948 </i>
    <i name="e_0_energy">   -216.91842215 </i>
   </energy>
  </scstep>
  <scstep>
   <time name="total">   47.62   48.00</time>
   <energy>
    <i name="e_fr_energy">   -216.93018451 </i>
    <i name="e_wo_entrp">   -216.92864622 </i>
    <i name="e_0_energy">   -216.92941537 </i>
   </energy>
  </scstep>
  <scstep>
   <time name="total">   45.88   46.26</time>
   <energy>
    <i name="e_fr_energy">   -216.93373125 </i>
    <i name="e_wo_entrp">   -216.93218696 </i>
    <i name="e_0_energy">   -216.93295911 </i>
   </energy>
  </scstep>
  <scstep>
   <time name="total">   50.71   51.48</time>
   <energy>
    <i name="e_fr_energy">   -216.93613845 </i>
    <i name="e_wo_entrp">   -216.93459652 </i>
    <i name="e_0_energy">   -216.93536749 </i>
   </energy>
  </scstep>
  <scstep>
   <time name="total">   46.73   47.28</time>
   <energy>
    <i name="e_fr_energy">   -216.93708471 </i>
    <i name="e_wo_entrp">   -216.93554124 </i>
    <i name="e_0_energy">   -216.93631297 </i>
   </energy>
  </scstep>
  <scstep>
   <time name="total">   46.37   46.81</time>
   <energy>
    <i name="e_fr_energy">   -216.93745091 </i>
    <i name="e_wo_entrp">   -216.93591064 </i>
    <i name="e_0_energy">   -216.93668077 </i>
   </energy>
  </scstep>
  <scstep>
   <time name="total">   47.30   48.03</time>
   <energy>
    <i name="e_fr_energy">   -216.93774174 </i>
    <i name="e_wo_entrp">   -216.93620362 </i>
    <i name="e_0_energy">   -216.93697268 </i>
   </energy>
  </scstep>
  <scstep>
   <time name="total">   48.87   49.58</time>
   <energy>
    <i name="e_fr_energy">   -216.93784794 </i>
    <i name="e_wo_entrp">   -216.93630923 </i>
    <i name="e_0_energy">   -216.93707859 </i>
   </energy>
  </scstep>
  <scstep>
   <time name="total">   47.60   47.98</time>
   <energy>
    <i name="e_fr_energy">   -216.93789191 </i>
    <i name="e_wo_entrp">   -216.93635406 </i>
    <i name="e_0_energy">   -216.93712298 </i>
   </energy>
  </scstep>
  <scstep>
   <time name="total">   48.50   49.02</time>
   <energy>
    <i name="e_fr_energy">   -216.93791931 </i>
    <i name="e_wo_entrp">   -216.93638276 </i>
    <i name="e_0_energy">   -216.93715103 </i>
   </energy>
  </scstep>
  <scstep>
   <time name="total">   46.51   46.93</time>
   <energy>
    <i name="e_fr_energy">   -216.93793034 </i>
    <i name="e_wo_entrp">   -216.93639386 </i>
    <i name="e_0_energy">   -216.93716210 </i>
   </energy>
  </scstep>
  <scstep>
   <time name="total">   47.66   48.02</time>
   <energy>
    <i name="e_fr_energy">   -216.93793609 </i>
    <i name="e_wo_entrp">   -216.93639983 </i>
    <i name="e_0_energy">   -216.93716796 </i>
   </energy>
  </scstep>
  <scstep>
   <time name="total">   47.65   48.12</time>
   <energy>
    <i name="e_fr_energy">   -216.93793864 </i>
    <i name="e_wo_entrp">   -216.93640264 </i>
    <i name="e_0_energy">   -216.93717064 </i>
   </energy>
  </scstep>
  <scstep>
   <time name="total">   44.97   45.75</time>
   <energy>
    <i name="e_fr_energy">   -216.93794040 </i>
    <i name="e_wo_entrp">   -216.93640462 </i>
    <i name="e_0_energy">   -216.93717251 </i>
   </energy>
  </scstep>
  <scstep>
   <time name="total">   48.82   49.61</time>
   <energy>
    <i name="e_fr_energy">   -216.93794096 </i>
    <i name="e_wo_entrp">   -216.93640506 </i>
    <i name="e_0_energy">   -216.93717301 </i>
   </energy>
  </scstep>
  <scstep>
   <time name="total">   46.68   47.49</time>
   <energy>
    <i name="e_fr_energy">   -216.93794133 </i>
    <i name="e_wo_entrp">   -216.93640539 </i>
    <i name="e_0_energy">   -216.93717336 </i>
   </energy>
  </scstep>
  <scstep>
   <time name="total">   46.56   46.91</time>
   <energy>
    <i name="e_fr_energy">   -216.93794152 </i>
    <i name="e_wo_entrp">   -216.93640559 </i>
    <i name="e_0_energy">   -216.93717355 </i>
   </energy>
  </scstep>
  <scstep>
   <time name="total">   46.22   46.77</time>
   <energy>
    <i name="e_fr_energy">   -216.93794161 </i>
    <i name="e_wo_entrp">   -216.93640558 </i>
    <i name="e_0_energy">   -216.93717360 </i>
   </energy>
  </scstep>
  <scstep>
   <time name="total">   45.15   45.54</time>
   <energy>
    <i name="e_fr_energy">   -216.93794171 </i>
    <i name="e_wo_entrp">   -216.93640565 </i>
    <i name="e_0_energy">   -216.93717368 </i>
   </energy>
  </scstep>
  <scstep>
   <time name="total">   42.12   42.45</time>
   <energy>
    <i name="e_fr_energy">   -216.93794172 </i>
    <i name="e_wo_entrp">   -216.93640564 </i>
    <i name="e_0_energy">   -216.93717368 </i>
   </energy>
  </scstep>
  <scstep>
   <time name="total">   45.98   46.33</time>
   <energy>
    <i name="e_fr_energy">   -216.93794171 </i>
    <i name="e_wo_entrp">   -216.93640563 </i>
    <i name="e_0_energy">   -216.93717367 </i>
   </energy>
  </scstep>
  <scstep>
   <time name="total">   46.63   46.98</time>
   <energy>
    <i name="e_fr_energy">   -216.93794171 </i>
    <i name="e_wo_entrp">   -216.93640562 </i>
    <i name="e_0_energy">   -216.93717367 </i>
   </energy>
  </scstep>
  <scstep>
   <time name="total">   43.61   43.93</time>
   <energy>
    <i name="e_fr_energy">   -216.93794172 </i>
    <i name="e_wo_entrp">   -216.93640562 </i>
    <i name="e_0_energy">   -216.93717367 </i>
   </energy>
  </scstep>
  <scstep>
   <time name="total">   80.67   82.79</time>
   <energy>
    <i name="e_fr_energy">   -216.93794173 </i>
    <i name="e_wo_entrp">   -216.93640555 </i>
    <i name="e_0_energy">   -216.93717364 </i>
   </energy>
  </scstep>
  <scstep>
   <time name="total">   48.95   49.54</time>
   <energy>
    <i name="e_fr_energy">   -216.93794172 </i>
    <i name="e_wo_entrp">   -216.93640557 </i>
    <i name="e_0_energy">   -216.93717364 </i>
   </energy>
  </scstep>
  <scstep>
   <time name="total">   45.12   45.74</time>
   <energy>
    <i name="e_fr_energy">   -216.93794174 </i>
    <i name="e_wo_entrp">   -216.93640558 </i>
    <i name="e_0_energy">   -216.93717366 </i>
   </energy>
  </scstep>
  <scstep>
   <time name="total">   42.58   42.90</time>
   <energy>
    <i name="e_fr_energy">   -216.93794174 </i>
    <i name="e_wo_entrp">   -216.93640558 </i>
    <i name="e_0_energy">   -216.93717366 </i>
   </energy>
  </scstep>
  <scstep>
   <time name="total">   54.18   54.71</time>
   <energy>
    <i name="alphaZ">    560.55952603 </i>
    <i name="ewald">  -9231.22116642 </i>
    <i name="hartreedc">  -2681.16822493 </i>
    <i name="XCdc">    523.64056531 </i>
    <i name="pawpsdc">  13411.64199070 </i>
    <i name="pawaedc"> -13388.92978806 </i>
    <i name="eentropy">     -0.00153616 </i>
    <i name="bandstr">  -1360.64435793 </i>
    <i name="atom">  11949.18504973 </i>
    <i name="e_fr_energy">   -216.93794174 </i>
    <i name="e_wo_entrp">   -216.93640558 </i>
    <i name="e_0_energy">   -216.93717366 </i>
   </energy>
  </scstep>
  <structure>
   <crystal>
    <varray name="basis" >
     <v>       5.64415728       0.00000000      -3.66633905 </v>
     <v>      -1.66346872       5.39345744      -3.66633905 </v>
     <v>       0.00000000       0.00000000       6.73042000 </v>
    </varray>
    <i name="volume">    204.88422907 </i>
    <varray name="rec_basis" >
     <v>       0.17717437       0.05464473       0.00000000 </v>
     <v>       0.00000000       0.18540982       0.00000000 </v>
     <v>       0.09651423       0.13076768       0.14857914 </v>
    </varray>
   </crystal>
   <varray name="positions" >
    <v>       0.50191000       0.00191000       0.24847000 </v>
    <v>       0.49809000       0.99809000       0.75153000 </v>
    <v>       0.00191000       0.75344000       0.50000000 </v>
    <v>       0.99809000       0.24656000       0.50000000 </v>
    <v>       0.75344000       0.25344000       0.75153000 </v>
    <v>       0.24656000       0.74656000       0.24847000 </v>
    <v>       0.25344000       0.50191000       0.50000000 </v>
    <v>       0.74656000       0.49809000       0.50000000 </v>
    <v>       0.25000000       0.25000000       0.00000000 </v>
    <v>       0.17291000       0.67291000       0.84583000 </v>
    <v>       0.75000000       0.75000000       0.00000000 </v>
    <v>       0.82709000       0.32709000       0.15417000 </v>
    <v>       0.67291000       0.82709000       0.50000000 </v>
    <v>       0.32709000       0.17291000       0.50000000 </v>
    <v>       0.00000000       0.00000000       0.00000000 </v>
    <v>       0.50000000       0.50000000       0.00000000 </v>
   </varray>
  </structure>
  <varray name="forces" >
   <v>       0.00000000       0.00000000       0.00000000 </v>
   <v>       0.00000000       0.00000000       0.00000000 </v>
   <v>       0.00000000       0.00000000       0.00000000 </v>
   <v>       0.00000000       0.00000000       0.00000000 </v>
   <v>       0.00000000       0.00000000       0.00000000 </v>
   <v>       0.00000000       0.00000000       0.00000000 </v>
   <v>       0.00000000       0.00000000       0.00000000 </v>
   <v>       0.00000000       0.00000000       0.00000000 </v>
   <v>       0.00000000       0.00000000       0.00000000 </v>
   <v>       0.00000000       0.00000000       0.00000000 </v>
   <v>       0.00000000       0.00000000       0.00000000 </v>
   <v>       0.00000000       0.00000000       0.00000000 </v>
   <v>       0.00000000       0.00000000       0.00000000 </v>
   <v>       0.00000000       0.00000000       0.00000000 </v>
   <v>       0.00000000       0.00000000       0.00000000 </v>
   <v>       0.00000000       0.00000000       0.00000000 </v>
  </varray>
  <varray name="stress" >
   <v>       0.00000000       0.00000000       0.00000000 </v>
   <v>       0.00000000       0.00000000       0.00000000 </v>
   <v>       0.00000000       0.00000000       0.00000000 </v>
  </varray>
  <energy>
   <i name="e_fr_energy">   -216.93794174 </i>
   <i name="e_wo_entrp">   -216.93640558 </i>
   <i name="e_0_energy">   -216.93717366 </i>
  </energy>
  <time name="totalsc"> 1960.03 1983.38</time>
  <eigenvalues>
   <array>
    <dimension dim="1">band</dimension>
    <dimension dim="2">kpoint</dimension>
    <dimension dim="3">spin</dimension>
    <field>eigene</field>
    <field>occ</field>
    <set>
     <set comment="spin 1">
      <set comment="kpoint 1">
       <r>  -54.5583    1.0000 </r>
       <r>  -54.5578    1.0000 </r>
       <r>  -54.0621    1.0000 </r>
       <r>  -54.0383    1.0000 </r>
       <r>  -54.0375    1.0000 </r>
       <r>  -54.0341    1.0000 </r>
       <r>  -28.0890    1.0000 </r>
       <r>  -28.0715    1.0000 </r>
       <r>  -27.8399    1.0000 </r>
       <r>  -27.8394    1.0000 </r>
       <r>  -27.8378    1.0000 </r>
       <r>  -27.8375    1.0000 </r>
       <r>  -27.8184    1.0000 </r>
       <r>  -27.6444    1.0000 </r>
       <r>  -27.6440    1.0000 </r>
       <r>  -27.6362    1.0000 </r>
       <r>  -27.6271    1.0000 </r>
       <r>  -27.4806    1.0000 </r>
       <r>  -27.4717    1.0000 </r>
       <r>  -27.4708    1.0000 </r>
       <r>  -27.4656    1.0000 </r>
       <r>  -27.4524    1.0000 </r>
       <r>  -27.4421    1.0000 </r>
       <r>  -27.4396    1.0000 </r>
       <r>   -3.7065    1.0000 </r>
       <r>   -0.2533    1.0000 </r>
       <r>   -0.0166    1.0000 </r>
       <r>    0.2417    1.0000 </r>
       <r>    0.2427    1.0000 </r>
       <r>    0.2451    1.0000 </r>
       <r>    0.5310    1.0000 </r>
       <r>    2.0006    1.0000 </r>
       <r>    2.1743    1.0000 </r>
       <r>    2.2241    1.0000 </r>
       <r>    2.2253    1.0000 </r>
       <r>    2.5877    1.0000 </r>
       <r>    3.1842    1.0000 </r>
       <r>    3.1845    1.0000 </r>
       <r>    3.5066    1.0000 </r>
       <r>    4.1061    1.0000 </r>
       <r>    4.5035    1.0000 </r>
       <r>    5.1135    1.0000 </r>
       <r>    5.1140    1.0000 </r>
       <r>    5.8207    1.0000 </r>
       <r>    5.8212    1.0000 </r>
       <r>    6.0971    1.0000 </r>
       <r>    6.2748    1.0000 </r>
       <r>    6.7548    1.0000 </r>
       <r>    6.7559    1.0000 </r>
       <r>    6.8645    1.0000 </r>
       <r>    7.0228    1.0000 </r>
       <r>    7.2117    1.0000 </r>
       <r>    7.2127    1.0000 </r>
       <r>    7.7932    1.0000 </r>
       <r>    7.9809    1.0000 </r>
       <r>    8.0004    1.0000 </r>
       <r>    8.2029    1.0000 </r>
       <r>    8.3478    1.0000 </r>
       <r>    8.3529    1.0000 </r>
       <r>    8.6259    1.0000 </r>
       <r>    8.6262    1.0000 </r>
       <r>    8.8542    0.0313 </r>
       <r>    9.4010    0.0000 </r>
       <r>    9.4014    0.0000 </r>
       <r>   10.2396    0.0000 </r>
       <r>   10.6723    0.0000 </r>
       <r>   10.6762    0.0000 </r>
       <r>   10.7389    0.0000 </r>
       <r>   11.1604    0.0000 </r>
       <r>   11.1612    0.0000 </r>
       <r>   11.2269    0.0000 </r>
       <r>   11.4415    0.0000 </r>
      </set>
      <set comment="kpoint 2">
       <r>  -54.5583    1.0000 </r>
       <r>  -54.5578    1.0000 </r>
       <r>  -54.0612    1.0000 </r>
       <r>  -54.0407    1.0000 </r>
       <r>  -54.0367    1.0000 </r>
       <r>  -54.0334    1.0000 </r>
       <r>  -28.0865    1.0000 </r>
       <r>  -28.0707    1.0000 </r>
       <r>  -27.8414    1.0000 </r>
       <r>  -27.8399    1.0000 </r>
       <r>  -27.8377    1.0000 </r>
       <r>  -27.8360    1.0000 </r>
       <r>  -27.8098    1.0000 </r>
       <r>  -27.6794    1.0000 </r>
       <r>  -27.6399    1.0000 </r>
       <r>  -27.6190    1.0000 </r>
       <r>  -27.6042    1.0000 </r>
       <r>  -27.4852    1.0000 </r>
       <r>  -27.4804    1.0000 </r>
       <r>  -27.4742    1.0000 </r>
       <r>  -27.4678    1.0000 </r>
       <r>  -27.4540    1.0000 </r>
       <r>  -27.4428    1.0000 </r>
       <r>  -27.4402    1.0000 </r>
       <r>   -3.5909    1.0000 </r>
       <r>   -0.4487    1.0000 </r>
       <r>   -0.1862    1.0000 </r>
       <r>   -0.0692    1.0000 </r>
       <r>    0.3316    1.0000 </r>
       <r>    0.3323    1.0000 </r>
       <r>    0.8800    1.0000 </r>
       <r>    1.7317    1.0000 </r>
       <r>    1.8033    1.0000 </r>
       <r>    2.2419    1.0000 </r>
       <r>    2.6077    1.0000 </r>
       <r>    2.9258    1.0000 </r>
       <r>    2.9447    1.0000 </r>
       <r>    3.3247    1.0000 </r>
       <r>    3.8585    1.0000 </r>
       <r>    4.1508    1.0000 </r>
       <r>    4.4144    1.0000 </r>
       <r>    5.0470    1.0000 </r>
       <r>    5.1368    1.0000 </r>
       <r>    5.6388    1.0000 </r>
       <r>    5.8810    1.0000 </r>
       <r>    5.9064    1.0000 </r>
       <r>    6.3337    1.0000 </r>
       <r>    6.4167    1.0000 </r>
       <r>    6.8031    1.0000 </r>
       <r>    6.9017    1.0000 </r>
       <r>    7.0648    1.0000 </r>
       <r>    7.0843    1.0000 </r>
       <r>    7.1769    1.0000 </r>
       <r>    7.6846    1.0000 </r>
       <r>    7.9646    1.0000 </r>
       <r>    8.0937    1.0000 </r>
       <r>    8.1324    1.0000 </r>
       <r>    8.4104    1.0000 </r>
       <r>    8.5959    1.0000 </r>
       <r>    8.6973    1.0000 </r>
       <r>    9.0182    0.0000 </r>
       <r>    9.1211    0.0000 </r>
       <r>    9.4413    0.0000 </r>
       <r>    9.5690    0.0000 </r>
       <r>   10.1229    0.0000 </r>
       <r>   10.3400    0.0000 </r>
       <r>   10.6272    0.0000 </r>
       <r>   10.6864    0.0000 </r>
       <r>   11.0093    0.0000 </r>
       <r>   11.0196    0.0000 </r>
       <r>   11.4358    0.0000 </r>
       <r>   11.7049    0.0000 </r>
      </set>
      <set comment="kpoint 3">
       <r>  -54.5582    1.0000 </r>
       <r>  -54.5579    1.0000 </r>
       <r>  -54.0587    1.0000 </r>
       <r>  -54.0448    1.0000 </r>
       <r>  -54.0360    1.0000 </r>
       <r>  -54.0326    1.0000 </r>
       <r>  -28.0805    1.0000 </r>
       <r>  -28.0694    1.0000 </r>
       <r>  -27.8415    1.0000 </r>
       <r>  -27.8390    1.0000 </r>
       <r>  -27.8359    1.0000 </r>
       <r>  -27.8336    1.0000 </r>
       <r>  -27.7933    1.0000 </r>
       <r>  -27.7171    1.0000 </r>
       <r>  -27.6268    1.0000 </r>
       <r>  -27.5958    1.0000 </r>
       <r>  -27.5767    1.0000 </r>
       <r>  -27.5145    1.0000 </r>
       <r>  -27.4826    1.0000 </r>
       <r>  -27.4807    1.0000 </r>
       <r>  -27.4790    1.0000 </r>
       <r>  -27.4597    1.0000 </r>
       <r>  -27.4438    1.0000 </r>
       <r>  -27.4412    1.0000 </r>
       <r>   -3.2523    1.0000 </r>
       <r>   -1.2336    1.0000 </r>
       <r>   -0.1472    1.0000 </r>
       <r>   -0.1275    1.0000 </r>
       <r>    0.3416    1.0000 </r>
       <r>    0.4930    1.0000 </r>
       <r>    1.0578    1.0000 </r>
       <r>    1.2453    1.0000 </r>
       <r>    1.7159    1.0000 </r>
       <r>    2.1135    1.0000 </r>
       <r>    2.8690    1.0000 </r>
       <r>    3.2070    1.0000 </r>
       <r>    3.3051    1.0000 </r>
       <r>    3.7221    1.0000 </r>
       <r>    4.1471    1.0000 </r>
       <r>    4.2019    1.0000 </r>
       <r>    4.3433    1.0000 </r>
       <r>    4.8501    1.0000 </r>
       <r>    5.1104    1.0000 </r>
       <r>    5.3865    1.0000 </r>
       <r>    5.5869    1.0000 </r>
       <r>    5.6887    1.0000 </r>
       <r>    6.2627    1.0000 </r>
       <r>    6.3458    1.0000 </r>
       <r>    6.4476    1.0000 </r>
       <r>    6.8567    1.0000 </r>
       <r>    6.9173    1.0000 </r>
       <r>    7.1063    1.0000 </r>
       <r>    7.4927    1.0000 </r>
       <r>    7.6616    1.0000 </r>
       <r>    8.0551    1.0000 </r>
       <r>    8.1419    1.0000 </r>
       <r>    8.1983    1.0000 </r>
       <r>    8.5407    1.0000 </r>
       <r>    8.9829    0.0000 </r>
       <r>    8.9842    0.0000 </r>
       <r>    9.2047    0.0000 </r>
       <r>    9.3961    0.0000 </r>
       <r>    9.4531    0.0000 </r>
       <r>    9.9789    0.0000 </r>
       <r>    9.9790    0.0000 </r>
       <r>   10.3606    0.0000 </r>
       <r>   10.6467    0.0000 </r>
       <r>   10.6669    0.0000 </r>
       <r>   10.8060    0.0000 </r>
       <r>   10.8154    0.0000 </r>
       <r>   11.4526    0.0000 </r>
       <r>   11.5459    0.0000 </r>
      </set>
      <set comment="kpoint 4">
       <r>  -54.5581    1.0000 </r>
       <r>  -54.5579    1.0000 </r>
       <r>  -54.0550    1.0000 </r>
       <r>  -54.0494    1.0000 </r>
       <r>  -54.0354    1.0000 </r>
       <r>  -54.0323    1.0000 </r>
       <r>  -28.0741    1.0000 </r>
       <r>  -28.0701    1.0000 </r>
       <r>  -27.8380    1.0000 </r>
       <r>  -27.8374    1.0000 </r>
       <r>  -27.8348    1.0000 </r>
       <r>  -27.8332    1.0000 </r>
       <r>  -27.7739    1.0000 </r>
       <r>  -27.7491    1.0000 </r>
       <r>  -27.6028    1.0000 </r>
       <r>  -27.5746    1.0000 </r>
       <r>  -27.5652    1.0000 </r>
       <r>  -27.5414    1.0000 </r>
       <r>  -27.4958    1.0000 </r>
       <r>  -27.4935    1.0000 </r>
       <r>  -27.4750    1.0000 </r>
       <r>  -27.4676    1.0000 </r>
       <r>  -27.4440    1.0000 </r>
       <r>  -27.4420    1.0000 </r>
       <r>   -2.7154    1.0000 </r>
       <r>   -2.0219    1.0000 </r>
       <r>   -0.1437    1.0000 </r>
       <r>   -0.1347    1.0000 </r>
       <r>    0.4794    1.0000 </r>
       <r>    0.6278    1.0000 </r>
       <r>    0.8936    1.0000 </r>
       <r>    0.9478    1.0000 </r>
       <r>    1.7811    1.0000 </r>
       <r>    1.9370    1.0000 </r>
       <r>    3.1528    1.0000 </r>
       <r>    3.4364    1.0000 </r>
       <r>    3.7984    1.0000 </r>
       <r>    3.9084    1.0000 </r>
       <r>    4.1325    1.0000 </r>
       <r>    4.3363    1.0000 </r>
       <r>    4.3908    1.0000 </r>
       <r>    4.7812    1.0000 </r>
       <r>    4.7926    1.0000 </r>
       <r>    5.1731    1.0000 </r>
       <r>    5.4339    1.0000 </r>
       <r>    5.4667    1.0000 </r>
       <r>    6.0947    1.0000 </r>
       <r>    6.1253    1.0000 </r>
       <r>    6.4710    1.0000 </r>
       <r>    6.6256    1.0000 </r>
       <r>    7.0403    1.0000 </r>
       <r>    7.1165    1.0000 </r>
       <r>    7.8175    1.0000 </r>
       <r>    7.9274    1.0000 </r>
       <r>    8.0714    1.0000 </r>
       <r>    8.2732    1.0000 </r>
       <r>    8.3215    1.0000 </r>
       <r>    8.4426    1.0000 </r>
       <r>    9.1240    0.0000 </r>
       <r>    9.1717    0.0000 </r>
       <r>    9.1891    0.0000 </r>
       <r>    9.3604    0.0000 </r>
       <r>    9.5256    0.0000 </r>
       <r>    9.8975    0.0000 </r>
       <r>   10.2799    0.0000 </r>
       <r>   10.3566    0.0000 </r>
       <r>   10.7113    0.0000 </r>
       <r>   10.7340    0.0000 </r>
       <r>   10.9705    0.0000 </r>
       <r>   11.0268    0.0000 </r>
       <r>   11.4502    0.0000 </r>
       <r>   11.5996    0.0000 </r>
      </set>
      <set comment="kpoint 5">
       <r>  -54.5582    1.0000 </r>
       <r>  -54.5578    1.0000 </r>
       <r>  -54.0603    1.0000 </r>
       <r>  -54.0425    1.0000 </r>
       <r>  -54.0351    1.0000 </r>
       <r>  -54.0341    1.0000 </r>
       <r>  -28.0820    1.0000 </r>
       <r>  -28.0700    1.0000 </r>
       <r>  -27.8426    1.0000 </r>
       <r>  -27.8389    1.0000 </r>
       <r>  -27.8361    1.0000 </r>
       <r>  -27.8333    1.0000 </r>
       <r>  -27.8039    1.0000 </r>
       <r>  -27.6864    1.0000 </r>
       <r>  -27.6481    1.0000 </r>
       <r>  -27.6152    1.0000 </r>
       <r>  -27.5857    1.0000 </r>
       <r>  -27.4944    1.0000 </r>
       <r>  -27.4853    1.0000 </r>
       <r>  -27.4810    1.0000 </r>
       <r>  -27.4662    1.0000 </r>
       <r>  -27.4557    1.0000 </r>
       <r>  -27.4428    1.0000 </r>
       <r>  -27.4425    1.0000 </r>
       <r>   -3.4269    1.0000 </r>
       <r>   -0.5861    1.0000 </r>
       <r>   -0.4996    1.0000 </r>
       <r>   -0.0673    1.0000 </r>
       <r>    0.1288    1.0000 </r>
       <r>    0.6844    1.0000 </r>
       <r>    0.9433    1.0000 </r>
       <r>    1.2839    1.0000 </r>
       <r>    1.8476    1.0000 </r>
       <r>    2.1561    1.0000 </r>
       <r>    2.9005    1.0000 </r>
       <r>    2.9082    1.0000 </r>
       <r>    3.2413    1.0000 </r>
       <r>    3.5930    1.0000 </r>
       <r>    4.0408    1.0000 </r>
       <r>    4.1352    1.0000 </r>
       <r>    4.3576    1.0000 </r>
       <r>    5.0430    1.0000 </r>
       <r>    5.1188    1.0000 </r>
       <r>    5.4555    1.0000 </r>
       <r>    5.6236    1.0000 </r>
       <r>    5.9868    1.0000 </r>
       <r>    6.0423    1.0000 </r>
       <r>    6.6476    1.0000 </r>
       <r>    6.6748    1.0000 </r>
       <r>    6.8162    1.0000 </r>
       <r>    6.9346    1.0000 </r>
       <r>    7.0684    1.0000 </r>
       <r>    7.2361    1.0000 </r>
       <r>    7.5744    1.0000 </r>
       <r>    7.8450    1.0000 </r>
       <r>    8.1749    1.0000 </r>
       <r>    8.4593    1.0000 </r>
       <r>    8.4693    1.0000 </r>
       <r>    8.7031    1.0000 </r>
       <r>    8.9332    0.0000 </r>
       <r>    9.1637    0.0000 </r>
       <r>    9.2879    0.0000 </r>
       <r>    9.5422    0.0000 </r>
       <r>    9.6897    0.0000 </r>
       <r>    9.9015    0.0000 </r>
       <r>   10.4187    0.0000 </r>
       <r>   10.6363    0.0000 </r>
       <r>   10.7051    0.0000 </r>
       <r>   10.8762    0.0000 </r>
       <r>   10.9434    0.0000 </r>
       <r>   11.3802    0.0000 </r>
       <r>   11.8309    0.0000 </r>
      </set>
      <set comment="kpoint 6">
       <r>  -54.5581    1.0000 </r>
       <r>  -54.5579    1.0000 </r>
       <r>  -54.0578    1.0000 </r>
       <r>  -54.0456    1.0000 </r>
       <r>  -54.0351    1.0000 </r>
       <r>  -54.0336    1.0000 </r>
       <r>  -28.0756    1.0000 </r>
       <r>  -28.0698    1.0000 </r>
       <r>  -27.8412    1.0000 </r>
       <r>  -27.8369    1.0000 </r>
       <r>  -27.8348    1.0000 </r>
       <r>  -27.8316    1.0000 </r>
       <r>  -27.7902    1.0000 </r>
       <r>  -27.7125    1.0000 </r>
       <r>  -27.6385    1.0000 </r>
       <r>  -27.5976    1.0000 </r>
       <r>  -27.5607    1.0000 </r>
       <r>  -27.5237    1.0000 </r>
       <r>  -27.4970    1.0000 </r>
       <r>  -27.4795    1.0000 </r>
       <r>  -27.4744    1.0000 </r>
       <r>  -27.4609    1.0000 </r>
       <r>  -27.4438    1.0000 </r>
       <r>  -27.4435    1.0000 </r>
       <r>   -3.0493    1.0000 </r>
       <r>   -1.3276    1.0000 </r>
       <r>   -0.5646    1.0000 </r>
       <r>   -0.1010    1.0000 </r>
       <r>    0.3345    1.0000 </r>
       <r>    0.7480    1.0000 </r>
       <r>    0.8745    1.0000 </r>
       <r>    1.0589    1.0000 </r>
       <r>    1.8745    1.0000 </r>
       <r>    1.9960    1.0000 </r>
       <r>    2.9865    1.0000 </r>
       <r>    3.3592    1.0000 </r>
       <r>    3.4873    1.0000 </r>
       <r>    4.0717    1.0000 </r>
       <r>    4.1500    1.0000 </r>
       <r>    4.2097    1.0000 </r>
       <r>    4.2750    1.0000 </r>
       <r>    4.8760    1.0000 </r>
       <r>    5.0114    1.0000 </r>
       <r>    5.2686    1.0000 </r>
       <r>    5.4481    1.0000 </r>
       <r>    5.7355    1.0000 </r>
       <r>    5.9899    1.0000 </r>
       <r>    6.3479    1.0000 </r>
       <r>    6.3819    1.0000 </r>
       <r>    6.7231    1.0000 </r>
       <r>    6.9578    1.0000 </r>
       <r>    7.1337    1.0000 </r>
       <r>    7.6265    1.0000 </r>
       <r>    7.6812    1.0000 </r>
       <r>    7.8982    1.0000 </r>
       <r>    8.2674    1.0000 </r>
       <r>    8.4306    1.0000 </r>
       <r>    8.6780    1.0000 </r>
       <r>    9.0384    0.0000 </r>
       <r>    9.1877    0.0000 </r>
       <r>    9.2009    0.0000 </r>
       <r>    9.3128    0.0000 </r>
       <r>    9.4595    0.0000 </r>
       <r>    9.9788    0.0000 </r>
       <r>   10.0487    0.0000 </r>
       <r>   10.3834    0.0000 </r>
       <r>   10.5577    0.0000 </r>
       <r>   10.7166    0.0000 </r>
       <r>   10.7967    0.0000 </r>
       <r>   11.1181    0.0000 </r>
       <r>   11.4018    0.0000 </r>
       <r>   11.7702    0.0000 </r>
      </set>
      <set comment="kpoint 7">
       <r>  -54.5580    1.0000 </r>
       <r>  -54.5580    1.0000 </r>
       <r>  -54.0544    1.0000 </r>
       <r>  -54.0494    1.0000 </r>
       <r>  -54.0355    1.0000 </r>
       <r>  -54.0330    1.0000 </r>
       <r>  -28.0721    1.0000 </r>
       <r>  -28.0703    1.0000 </r>
       <r>  -27.8383    1.0000 </r>
       <r>  -27.8361    1.0000 </r>
       <r>  -27.8343    1.0000 </r>
       <r>  -27.8318    1.0000 </r>
       <r>  -27.7711    1.0000 </r>
       <r>  -27.7417    1.0000 </r>
       <r>  -27.6116    1.0000 </r>
       <r>  -27.5817    1.0000 </r>
       <r>  -27.5542    1.0000 </r>
       <r>  -27.5475    1.0000 </r>
       <r>  -27.5027    1.0000 </r>
       <r>  -27.4896    1.0000 </r>
       <r>  -27.4746    1.0000 </r>
       <r>  -27.4679    1.0000 </r>
       <r>  -27.4448    1.0000 </r>
       <r>  -27.4429    1.0000 </r>
       <r>   -2.4886    1.0000 </r>
       <r>   -2.0950    1.0000 </r>
       <r>   -0.5021    1.0000 </r>
       <r>   -0.1792    1.0000 </r>
       <r>    0.4430    1.0000 </r>
       <r>    0.6365    1.0000 </r>
       <r>    0.9021    1.0000 </r>
       <r>    1.0369    1.0000 </r>
       <r>    1.7652    1.0000 </r>
       <r>    1.9757    1.0000 </r>
       <r>    3.2388    1.0000 </r>
       <r>    3.5516    1.0000 </r>
       <r>    3.8998    1.0000 </r>
       <r>    3.9560    1.0000 </r>
       <r>    4.0774    1.0000 </r>
       <r>    4.2991    1.0000 </r>
       <r>    4.4823    1.0000 </r>
       <r>    4.6659    1.0000 </r>
       <r>    4.8846    1.0000 </r>
       <r>    5.1097    1.0000 </r>
       <r>    5.3383    1.0000 </r>
       <r>    5.5398    1.0000 </r>
       <r>    5.9693    1.0000 </r>
       <r>    6.1626    1.0000 </r>
       <r>    6.3285    1.0000 </r>
       <r>    6.6001    1.0000 </r>
       <r>    6.9628    1.0000 </r>
       <r>    7.2736    1.0000 </r>
       <r>    7.9290    1.0000 </r>
       <r>    7.9587    1.0000 </r>
       <r>    8.0831    1.0000 </r>
       <r>    8.2789    1.0000 </r>
       <r>    8.3570    1.0000 </r>
       <r>    8.5056    1.0000 </r>
       <r>    9.1372    0.0000 </r>
       <r>    9.1519    0.0000 </r>
       <r>    9.2456    0.0000 </r>
       <r>    9.3561    0.0000 </r>
       <r>    9.6471    0.0000 </r>
       <r>    9.8730    0.0000 </r>
       <r>   10.1862    0.0000 </r>
       <r>   10.4117    0.0000 </r>
       <r>   10.6151    0.0000 </r>
       <r>   10.8305    0.0000 </r>
       <r>   11.0163    0.0000 </r>
       <r>   11.2040    0.0000 </r>
       <r>   11.3859    0.0000 </r>
       <r>   11.5685    0.0000 </r>
      </set>
      <set comment="kpoint 8">
       <r>  -54.5581    1.0000 </r>
       <r>  -54.5579    1.0000 </r>
       <r>  -54.0546    1.0000 </r>
       <r>  -54.0488    1.0000 </r>
       <r>  -54.0364    1.0000 </r>
       <r>  -54.0324    1.0000 </r>
       <r>  -28.0770    1.0000 </r>
       <r>  -28.0681    1.0000 </r>
       <r>  -27.8391    1.0000 </r>
       <r>  -27.8378    1.0000 </r>
       <r>  -27.8349    1.0000 </r>
       <r>  -27.8321    1.0000 </r>
       <r>  -27.7668    1.0000 </r>
       <r>  -27.7458    1.0000 </r>
       <r>  -27.6067    1.0000 </r>
       <r>  -27.5811    1.0000 </r>
       <r>  -27.5604    1.0000 </r>
       <r>  -27.5426    1.0000 </r>
       <r>  -27.5023    1.0000 </r>
       <r>  -27.4902    1.0000 </r>
       <r>  -27.4743    1.0000 </r>
       <r>  -27.4664    1.0000 </r>
       <r>  -27.4457    1.0000 </r>
       <r>  -27.4413    1.0000 </r>
       <r>   -2.7519    1.0000 </r>
       <r>   -1.7946    1.0000 </r>
       <r>   -0.3945    1.0000 </r>
       <r>   -0.2386    1.0000 </r>
       <r>    0.1755    1.0000 </r>
       <r>    0.8791    1.0000 </r>
       <r>    0.9675    1.0000 </r>
       <r>    1.1396    1.0000 </r>
       <r>    1.5528    1.0000 </r>
       <r>    2.1155    1.0000 </r>
       <r>    3.2463    1.0000 </r>
       <r>    3.4289    1.0000 </r>
       <r>    3.7376    1.0000 </r>
       <r>    3.7972    1.0000 </r>
       <r>    4.1232    1.0000 </r>
       <r>    4.2213    1.0000 </r>
       <r>    4.5039    1.0000 </r>
       <r>    4.6905    1.0000 </r>
       <r>    5.0193    1.0000 </r>
       <r>    5.1424    1.0000 </r>
       <r>    5.4339    1.0000 </r>
       <r>    5.5057    1.0000 </r>
       <r>    6.0185    1.0000 </r>
       <r>    6.2213    1.0000 </r>
       <r>    6.4733    1.0000 </r>
       <r>    6.6132    1.0000 </r>
       <r>    6.8812    1.0000 </r>
       <r>    7.2701    1.0000 </r>
       <r>    7.7990    1.0000 </r>
       <r>    7.8574    1.0000 </r>
       <r>    8.0382    1.0000 </r>
       <r>    8.2452    1.0000 </r>
       <r>    8.4266    1.0000 </r>
       <r>    8.5333    1.0000 </r>
       <r>    8.9051    0.0000 </r>
       <r>    9.2374    0.0000 </r>
       <r>    9.2517    0.0000 </r>
       <r>    9.4318    0.0000 </r>
       <r>    9.5991    0.0000 </r>
       <r>    9.9967    0.0000 </r>
       <r>   10.3003    0.0000 </r>
       <r>   10.3679    0.0000 </r>
       <r>   10.4850    0.0000 </r>
       <r>   10.6504    0.0000 </r>
       <r>   10.8848    0.0000 </r>
       <r>   11.1494    0.0000 </r>
       <r>   11.3760    0.0000 </r>
       <r>   11.4569    0.0000 </r>
      </set>
      <set comment="kpoint 9">
       <r>  -54.5582    1.0000 </r>
       <r>  -54.5578    1.0000 </r>
       <r>  -54.0580    1.0000 </r>
       <r>  -54.0445    1.0000 </r>
       <r>  -54.0375    1.0000 </r>
       <r>  -54.0321    1.0000 </r>
       <r>  -28.0829    1.0000 </r>
       <r>  -28.0688    1.0000 </r>
       <r>  -27.8418    1.0000 </r>
       <r>  -27.8391    1.0000 </r>
       <r>  -27.8368    1.0000 </r>
       <r>  -27.8340    1.0000 </r>
       <r>  -27.7872    1.0000 </r>
       <r>  -27.7152    1.0000 </r>
       <r>  -27.6329    1.0000 </r>
       <r>  -27.5962    1.0000 </r>
       <r>  -27.5592    1.0000 </r>
       <r>  -27.5234    1.0000 </r>
       <r>  -27.4964    1.0000 </r>
       <r>  -27.4777    1.0000 </r>
       <r>  -27.4751    1.0000 </r>
       <r>  -27.4589    1.0000 </r>
       <r>  -27.4455    1.0000 </r>
       <r>  -27.4401    1.0000 </r>
       <r>   -3.2418    1.0000 </r>
       <r>   -1.0402    1.0000 </r>
       <r>   -0.3374    1.0000 </r>
       <r>   -0.2061    1.0000 </r>
       <r>   -0.0269    1.0000 </r>
       <r>    0.8616    1.0000 </r>
       <r>    1.0578    1.0000 </r>
       <r>    1.4657    1.0000 </r>
       <r>    1.5102    1.0000 </r>
       <r>    2.2568    1.0000 </r>
       <r>    2.8438    1.0000 </r>
       <r>    3.2030    1.0000 </r>
       <r>    3.2729    1.0000 </r>
       <r>    3.5104    1.0000 </r>
       <r>    4.2063    1.0000 </r>
       <r>    4.2456    1.0000 </r>
       <r>    4.4217    1.0000 </r>
       <r>    4.8550    1.0000 </r>
       <r>    5.1635    1.0000 </r>
       <r>    5.2291    1.0000 </r>
       <r>    5.6033    1.0000 </r>
       <r>    5.8083    1.0000 </r>
       <r>    6.2907    1.0000 </r>
       <r>    6.3814    1.0000 </r>
       <r>    6.5833    1.0000 </r>
       <r>    6.6832    1.0000 </r>
       <r>    6.7562    1.0000 </r>
       <r>    7.0861    1.0000 </r>
       <r>    7.5070    1.0000 </r>
       <r>    7.6417    1.0000 </r>
       <r>    7.9615    1.0000 </r>
       <r>    8.1474    1.0000 </r>
       <r>    8.3958    1.0000 </r>
       <r>    8.6292    1.0000 </r>
       <r>    9.0076    0.0000 </r>
       <r>    9.0343    0.0000 </r>
       <r>    9.1206    0.0000 </r>
       <r>    9.4280    0.0000 </r>
       <r>    9.4926    0.0000 </r>
       <r>    9.8446    0.0000 </r>
       <r>   10.0751    0.0000 </r>
       <r>   10.2918    0.0000 </r>
       <r>   10.5740    0.0000 </r>
       <r>   10.7088    0.0000 </r>
       <r>   10.8163    0.0000 </r>
       <r>   10.9651    0.0000 </r>
       <r>   11.3690    0.0000 </r>
       <r>   11.8788    0.0000 </r>
      </set>
      <set comment="kpoint 10">
       <r>  -54.5583    1.0000 </r>
       <r>  -54.5578    1.0000 </r>
       <r>  -54.0604    1.0000 </r>
       <r>  -54.0409    1.0000 </r>
       <r>  -54.0383    1.0000 </r>
       <r>  -54.0324    1.0000 </r>
       <r>  -28.0868    1.0000 </r>
       <r>  -28.0702    1.0000 </r>
       <r>  -27.8416    1.0000 </r>
       <r>  -27.8402    1.0000 </r>
       <r>  -27.8375    1.0000 </r>
       <r>  -27.8370    1.0000 </r>
       <r>  -27.8028    1.0000 </r>
       <r>  -27.6876    1.0000 </r>
       <r>  -27.6454    1.0000 </r>
       <r>  -27.6130    1.0000 </r>
       <r>  -27.5844    1.0000 </r>
       <r>  -27.4932    1.0000 </r>
       <r>  -27.4853    1.0000 </r>
       <r>  -27.4793    1.0000 </r>
       <r>  -27.4669    1.0000 </r>
       <r>  -27.4548    1.0000 </r>
       <r>  -27.4439    1.0000 </r>
       <r>  -27.4395    1.0000 </r>
       <r>   -3.5281    1.0000 </r>
       <r>   -0.3517    1.0000 </r>
       <r>   -0.3139    1.0000 </r>
       <r>   -0.2194    1.0000 </r>
       <r>   -0.0582    1.0000 </r>
       <r>    0.7692    1.0000 </r>
       <r>    0.9544    1.0000 </r>
       <r>    1.5977    1.0000 </r>
       <r>    1.8171    1.0000 </r>
       <r>    2.4709    1.0000 </r>
       <r>    2.4934    1.0000 </r>
       <r>    2.7740    1.0000 </r>
       <r>    3.0935    1.0000 </r>
       <r>    3.2454    1.0000 </r>
       <r>    4.0396    1.0000 </r>
       <r>    4.2535    1.0000 </r>
       <r>    4.3638    1.0000 </r>
       <r>    5.0196    1.0000 </r>
       <r>    5.1124    1.0000 </r>
       <r>    5.4853    1.0000 </r>
       <r>    5.8493    1.0000 </r>
       <r>    6.0950    1.0000 </r>
       <r>    6.2039    1.0000 </r>
       <r>    6.6492    1.0000 </r>
       <r>    6.6569    1.0000 </r>
       <r>    6.7587    1.0000 </r>
       <r>    6.7992    1.0000 </r>
       <r>    6.9740    1.0000 </r>
       <r>    7.2896    1.0000 </r>
       <r>    7.7130    1.0000 </r>
       <r>    8.0232    1.0000 </r>
       <r>    8.0715    1.0000 </r>
       <r>    8.2237    1.0000 </r>
       <r>    8.6500    1.0000 </r>
       <r>    8.6510    1.0000 </r>
       <r>    8.7022    1.0000 </r>
       <r>    9.1538    0.0000 </r>
       <r>    9.2719    0.0000 </r>
       <r>    9.4903    0.0000 </r>
       <r>    9.5829    0.0000 </r>
       <r>    9.9043    0.0000 </r>
       <r>   10.1800    0.0000 </r>
       <r>   10.6437    0.0000 </r>
       <r>   10.6950    0.0000 </r>
       <r>   10.9991    0.0000 </r>
       <r>   11.1153    0.0000 </r>
       <r>   11.3697    0.0000 </r>
       <r>   11.8909    0.0000 </r>
      </set>
      <set comment="kpoint 11">
       <r>  -54.5580    1.0000 </r>
       <r>  -54.5580    1.0000 </r>
       <r>  -54.0557    1.0000 </r>
       <r>  -54.0470    1.0000 </r>
       <r>  -54.0352    1.0000 </r>
       <r>  -54.0342    1.0000 </r>
       <r>  -28.0711    1.0000 </r>
       <r>  -28.0703    1.0000 </r>
       <r>  -27.8397    1.0000 </r>
       <r>  -27.8349    1.0000 </r>
       <r>  -27.8346    1.0000 </r>
       <r>  -27.8299    1.0000 </r>
       <r>  -27.7774    1.0000 </r>
       <r>  -27.7112    1.0000 </r>
       <r>  -27.6486    1.0000 </r>
       <r>  -27.5857    1.0000 </r>
       <r>  -27.5499    1.0000 </r>
       <r>  -27.5367    1.0000 </r>
       <r>  -27.5146    1.0000 </r>
       <r>  -27.4778    1.0000 </r>
       <r>  -27.4772    1.0000 </r>
       <r>  -27.4641    1.0000 </r>
       <r>  -27.4451    1.0000 </r>
       <r>  -27.4446    1.0000 </r>
       <r>   -2.6521    1.0000 </r>
       <r>   -1.2949    1.0000 </r>
       <r>   -1.2851    1.0000 </r>
       <r>   -0.2149    1.0000 </r>
       <r>    0.4497    1.0000 </r>
       <r>    0.5956    1.0000 </r>
       <r>    0.9483    1.0000 </r>
       <r>    1.0841    1.0000 </r>
       <r>    1.7934    1.0000 </r>
       <r>    2.0290    1.0000 </r>
       <r>    3.2554    1.0000 </r>
       <r>    3.5138    1.0000 </r>
       <r>    3.8729    1.0000 </r>
       <r>    3.9293    1.0000 </r>
       <r>    4.1006    1.0000 </r>
       <r>    4.2778    1.0000 </r>
       <r>    4.5311    1.0000 </r>
       <r>    4.7636    1.0000 </r>
       <r>    5.0489    1.0000 </r>
       <r>    5.1747    1.0000 </r>
       <r>    5.2114    1.0000 </r>
       <r>    5.5548    1.0000 </r>
       <r>    5.8717    1.0000 </r>
       <r>    6.0657    1.0000 </r>
       <r>    6.3169    1.0000 </r>
       <r>    6.6388    1.0000 </r>
       <r>    7.0384    1.0000 </r>
       <r>    7.4061    1.0000 </r>
       <r>    7.7745    1.0000 </r>
       <r>    7.8939    1.0000 </r>
       <r>    7.9303    1.0000 </r>
       <r>    8.4469    1.0000 </r>
       <r>    8.4920    1.0000 </r>
       <r>    8.5864    1.0000 </r>
       <r>    9.0037    0.0000 </r>
       <r>    9.1649    0.0000 </r>
       <r>    9.2902    0.0000 </r>
       <r>    9.4528    0.0000 </r>
       <r>    9.6980    0.0000 </r>
       <r>    9.7617    0.0000 </r>
       <r>   10.1888    0.0000 </r>
       <r>   10.2595    0.0000 </r>
       <r>   10.5248    0.0000 </r>
       <r>   10.7704    0.0000 </r>
       <r>   10.8776    0.0000 </r>
       <r>   11.0035    0.0000 </r>
       <r>   11.4167    0.0000 </r>
       <r>   11.5995    0.0000 </r>
      </set>
      <set comment="kpoint 12">
       <r>  -54.5580    1.0000 </r>
       <r>  -54.5579    1.0000 </r>
       <r>  -54.0530    1.0000 </r>
       <r>  -54.0489    1.0000 </r>
       <r>  -54.0364    1.0000 </r>
       <r>  -54.0339    1.0000 </r>
       <r>  -28.0741    1.0000 </r>
       <r>  -28.0670    1.0000 </r>
       <r>  -27.8388    1.0000 </r>
       <r>  -27.8361    1.0000 </r>
       <r>  -27.8345    1.0000 </r>
       <r>  -27.8288    1.0000 </r>
       <r>  -27.7568    1.0000 </r>
       <r>  -27.7286    1.0000 </r>
       <r>  -27.6299    1.0000 </r>
       <r>  -27.5875    1.0000 </r>
       <r>  -27.5613    1.0000 </r>
       <r>  -27.5398    1.0000 </r>
       <r>  -27.5097    1.0000 </r>
       <r>  -27.4901    1.0000 </r>
       <r>  -27.4727    1.0000 </r>
       <r>  -27.4680    1.0000 </r>
       <r>  -27.4467    1.0000 </r>
       <r>  -27.4438    1.0000 </r>
       <r>   -2.0997    1.0000 </r>
       <r>   -1.9975    1.0000 </r>
       <r>   -1.1192    1.0000 </r>
       <r>   -0.3892    1.0000 </r>
       <r>    0.1551    1.0000 </r>
       <r>    0.9004    1.0000 </r>
       <r>    1.0029    1.0000 </r>
       <r>    1.1321    1.0000 </r>
       <r>    1.5053    1.0000 </r>
       <r>    2.1965    1.0000 </r>
       <r>    3.5171    1.0000 </r>
       <r>    3.5659    1.0000 </r>
       <r>    3.8188    1.0000 </r>
       <r>    3.9846    1.0000 </r>
       <r>    4.2631    1.0000 </r>
       <r>    4.3319    1.0000 </r>
       <r>    4.4406    1.0000 </r>
       <r>    4.6292    1.0000 </r>
       <r>    4.8314    1.0000 </r>
       <r>    5.2125    1.0000 </r>
       <r>    5.3378    1.0000 </r>
       <r>    5.5410    1.0000 </r>
       <r>    5.7611    1.0000 </r>
       <r>    5.8686    1.0000 </r>
       <r>    6.2292    1.0000 </r>
       <r>    6.8180    1.0000 </r>
       <r>    7.0655    1.0000 </r>
       <r>    7.5263    1.0000 </r>
       <r>    7.9059    1.0000 </r>
       <r>    7.9826    1.0000 </r>
       <r>    8.0665    1.0000 </r>
       <r>    8.1178    1.0000 </r>
       <r>    8.4182    1.0000 </r>
       <r>    8.7573    1.0000 </r>
       <r>    9.0507    0.0000 </r>
       <r>    9.0983    0.0000 </r>
       <r>    9.3859    0.0000 </r>
       <r>    9.4470    0.0000 </r>
       <r>    9.6804    0.0000 </r>
       <r>    9.8730    0.0000 </r>
       <r>   10.2007    0.0000 </r>
       <r>   10.4411    0.0000 </r>
       <r>   10.5306    0.0000 </r>
       <r>   10.6944    0.0000 </r>
       <r>   10.8277    0.0000 </r>
       <r>   10.9619    0.0000 </r>
       <r>   11.2918    0.0000 </r>
       <r>   11.5260    0.0000 </r>
      </set>
      <set comment="kpoint 13">
       <r>  -54.5581    1.0000 </r>
       <r>  -54.5579    1.0000 </r>
       <r>  -54.0535    1.0000 </r>
       <r>  -54.0479    1.0000 </r>
       <r>  -54.0378    1.0000 </r>
       <r>  -54.0330    1.0000 </r>
       <r>  -28.0782    1.0000 </r>
       <r>  -28.0663    1.0000 </r>
       <r>  -27.8405    1.0000 </r>
       <r>  -27.8371    1.0000 </r>
       <r>  -27.8355    1.0000 </r>
       <r>  -27.8291    1.0000 </r>
       <r>  -27.7527    1.0000 </r>
       <r>  -27.7334    1.0000 </r>
       <r>  -27.6196    1.0000 </r>
       <r>  -27.5931    1.0000 </r>
       <r>  -27.5639    1.0000 </r>
       <r>  -27.5367    1.0000 </r>
       <r>  -27.5082    1.0000 </r>
       <r>  -27.4913    1.0000 </r>
       <r>  -27.4742    1.0000 </r>
       <r>  -27.4634    1.0000 </r>
       <r>  -27.4486    1.0000 </r>
       <r>  -27.4418    1.0000 </r>
       <r>   -2.5906    1.0000 </r>
       <r>   -1.4561    1.0000 </r>
       <r>   -0.8461    1.0000 </r>
       <r>   -0.5770    1.0000 </r>
       <r>   -0.0413    1.0000 </r>
       <r>    1.0097    1.0000 </r>
       <r>    1.1082    1.0000 </r>
       <r>    1.2241    1.0000 </r>
       <r>    1.3464    1.0000 </r>
       <r>    2.3531    1.0000 </r>
       <r>    3.0877    1.0000 </r>
       <r>    3.6152    1.0000 </r>
       <r>    3.8453    1.0000 </r>
       <r>    4.0000    1.0000 </r>
       <r>    4.1042    1.0000 </r>
       <r>    4.2081    1.0000 </r>
       <r>    4.6050    1.0000 </r>
       <r>    4.6636    1.0000 </r>
       <r>    4.7025    1.0000 </r>
       <r>    5.2284    1.0000 </r>
       <r>    5.4988    1.0000 </r>
       <r>    5.7195    1.0000 </r>
       <r>    5.9000    1.0000 </r>
       <r>    6.0506    1.0000 </r>
       <r>    6.2195    1.0000 </r>
       <r>    6.7959    1.0000 </r>
       <r>    6.9911    1.0000 </r>
       <r>    7.2556    1.0000 </r>
       <r>    7.7070    1.0000 </r>
       <r>    7.8492    1.0000 </r>
       <r>    7.9841    1.0000 </r>
       <r>    8.2455    1.0000 </r>
       <r>    8.3938    1.0000 </r>
       <r>    8.8143    0.8310 </r>
       <r>    8.8900    0.0000 </r>
       <r>    9.2932    0.0000 </r>
       <r>    9.3852    0.0000 </r>
       <r>    9.4917    0.0000 </r>
       <r>    9.6980    0.0000 </r>
       <r>   10.0316    0.0000 </r>
       <r>   10.1928    0.0000 </r>
       <r>   10.3798    0.0000 </r>
       <r>   10.5757    0.0000 </r>
       <r>   10.6963    0.0000 </r>
       <r>   10.9446    0.0000 </r>
       <r>   11.0776    0.0000 </r>
       <r>   11.1988    0.0000 </r>
       <r>   11.4188    0.0000 </r>
      </set>
      <set comment="kpoint 14">
       <r>  -54.5582    1.0000 </r>
       <r>  -54.5579    1.0000 </r>
       <r>  -54.0561    1.0000 </r>
       <r>  -54.0453    1.0000 </r>
       <r>  -54.0385    1.0000 </r>
       <r>  -54.0323    1.0000 </r>
       <r>  -28.0818    1.0000 </r>
       <r>  -28.0674    1.0000 </r>
[...]
       <r>    9.5860    0.0000 </r>
       <r>    9.9649    0.0000 </r>
       <r>   10.0516    0.0000 </r>
       <r>   10.1268    0.0000 </r>
       <r>   10.1318    0.0000 </r>
       <r>   10.2831    0.0000 </r>
       <r>   10.5415    0.0000 </r>
       <r>   10.8100    0.0000 </r>
       <r>   10.8863    0.0000 </r>
       <r>   10.9241    0.0000 </r>
       <r>   11.2767    0.0000 </r>
      </set>
      <set comment="kpoint 116">
       <r>  -54.5580    1.0000 </r>
       <r>  -54.5579    1.0000 </r>
       <r>  -54.0619    1.0000 </r>
       <r>  -54.0387    1.0000 </r>
       <r>  -54.0383    1.0000 </r>
       <r>  -54.0334    1.0000 </r>
       <r>  -28.0670    1.0000 </r>
       <r>  -28.0592    1.0000 </r>
       <r>  -27.8350    1.0000 </r>
       <r>  -27.8343    1.0000 </r>
       <r>  -27.8281    1.0000 </r>
       <r>  -27.8278    1.0000 </r>
       <r>  -27.8159    1.0000 </r>
       <r>  -27.6653    1.0000 </r>
       <r>  -27.6607    1.0000 </r>
       <r>  -27.6391    1.0000 </r>
       <r>  -27.6142    1.0000 </r>
       <r>  -27.4939    1.0000 </r>
       <r>  -27.4780    1.0000 </r>
       <r>  -27.4779    1.0000 </r>
       <r>  -27.4654    1.0000 </r>
       <r>  -27.4549    1.0000 </r>
       <r>  -27.4502    1.0000 </r>
       <r>  -27.4462    1.0000 </r>
       <r>   -2.9730    1.0000 </r>
       <r>   -0.8122    1.0000 </r>
       <r>   -0.6520    1.0000 </r>
       <r>   -0.4947    1.0000 </r>
       <r>    0.2186    1.0000 </r>
       <r>    0.2473    1.0000 </r>
       <r>    0.8377    1.0000 </r>
       <r>    0.9340    1.0000 </r>
       <r>    2.3378    1.0000 </r>
       <r>    2.5238    1.0000 </r>
       <r>    3.0084    1.0000 </r>
       <r>    3.0781    1.0000 </r>
       <r>    3.2729    1.0000 </r>
       <r>    3.5581    1.0000 </r>
       <r>    3.8448    1.0000 </r>
       <r>    4.5996    1.0000 </r>
       <r>    4.8137    1.0000 </r>
       <r>    4.9156    1.0000 </r>
       <r>    5.2689    1.0000 </r>
       <r>    5.4880    1.0000 </r>
       <r>    5.6078    1.0000 </r>
       <r>    5.8543    1.0000 </r>
       <r>    5.9142    1.0000 </r>
       <r>    5.9673    1.0000 </r>
       <r>    6.3985    1.0000 </r>
       <r>    6.5117    1.0000 </r>
       <r>    6.6102    1.0000 </r>
       <r>    7.0563    1.0000 </r>
       <r>    7.6334    1.0000 </r>
       <r>    7.6622    1.0000 </r>
       <r>    8.4374    1.0000 </r>
       <r>    8.6582    1.0000 </r>
       <r>    8.7148    1.0000 </r>
       <r>    8.7812    0.9995 </r>
       <r>    9.0494    0.0000 </r>
       <r>    9.0914    0.0000 </r>
       <r>    9.3770    0.0000 </r>
       <r>    9.6930    0.0000 </r>
       <r>   10.0119    0.0000 </r>
       <r>   10.0427    0.0000 </r>
       <r>   10.0664    0.0000 </r>
       <r>   10.2662    0.0000 </r>
       <r>   10.3319    0.0000 </r>
       <r>   10.5388    0.0000 </r>
       <r>   10.6772    0.0000 </r>
       <r>   10.7512    0.0000 </r>
       <r>   10.8016    0.0000 </r>
       <r>   11.3247    0.0000 </r>
      </set>
     </set>
    </set>
   </array>
  </eigenvalues>
  <separator name="orbital magnetization" >
   <v name="MAGDIPOLOUT">      0.00000000      0.00000000      0.00000000</v>
  </separator>
  <dos>
   <i name="efermi">      8.82783694 </i>
   <total>
    <array>
     <dimension dim="1">gridpoints</dimension>
     <dimension dim="2">spin</dimension>
     <field>energy</field>
     <field>total</field>
     <field>integrated</field>
     <set>
      <set comment="spin 1">
       <r>   -57.8903     0.0000     0.0000 </r>
       <r>   -57.6460     0.0000     0.0000 </r>
       <r>   -57.4016     0.0000     0.0000 </r>
       <r>   -57.1573     0.0000     0.0000 </r>
       <r>   -56.9129     0.0000     0.0000 </r>
       <r>   -56.6686     0.0000     0.0000 </r>
       <r>   -56.4242     0.0000     0.0000 </r>
       <r>   -56.1799     0.0000     0.0000 </r>
       <r>   -55.9355     0.0000     0.0000 </r>
       <r>   -55.6912     0.0000     0.0000 </r>
       <r>   -55.4469     0.0000     0.0000 </r>
       <r>   -55.2025     0.0000     0.0000 </r>
       <r>   -54.9582     0.0000     0.0000 </r>
       <r>   -54.7138     0.0000     0.0000 </r>
       <r>   -54.4695    16.3701     4.0000 </r>
       <r>   -54.2251     0.0000     4.0000 </r>
       <r>   -53.9808    32.7389    11.9997 </r>
       <r>   -53.7364     0.0000    12.0000 </r>
       <r>   -53.4921     0.0000    12.0000 </r>
       <r>   -53.2477     0.0000    12.0000 </r>
       <r>   -53.0034     0.0000    12.0000 </r>
       <r>   -52.7590     0.0000    12.0000 </r>
       <r>   -52.5147     0.0000    12.0000 </r>
       <r>   -52.2703     0.0000    12.0000 </r>
       <r>   -52.0260     0.0000    12.0000 </r>
       <r>   -51.7816     0.0000    12.0000 </r>
       <r>   -51.5373     0.0000    12.0000 </r>
       <r>   -51.2929     0.0000    12.0000 </r>
       <r>   -51.0486     0.0000    12.0000 </r>
       <r>   -50.8042     0.0000    12.0000 </r>
       <r>   -50.5599     0.0000    12.0000 </r>
       <r>   -50.3155     0.0000    12.0000 </r>
       <r>   -50.0712     0.0000    12.0000 </r>
       <r>   -49.8268     0.0000    12.0000 </r>
       <r>   -49.5825     0.0000    12.0000 </r>
       <r>   -49.3381     0.0000    12.0000 </r>
       <r>   -49.0938     0.0000    12.0000 </r>
       <r>   -48.8494     0.0000    12.0000 </r>
       <r>   -48.6051     0.0000    12.0000 </r>
       <r>   -48.3608     0.0000    12.0000 </r>
       <r>   -48.1164     0.0000    12.0000 </r>
       <r>   -47.8721     0.0000    12.0000 </r>
       <r>   -47.6277     0.0000    12.0000 </r>
       <r>   -47.3834     0.0000    12.0000 </r>
       <r>   -47.1390     0.0000    12.0000 </r>
       <r>   -46.8947     0.0000    12.0000 </r>
       <r>   -46.6503     0.0000    12.0000 </r>
       <r>   -46.4060     0.0000    12.0000 </r>
       <r>   -46.1616     0.0000    12.0000 </r>
       <r>   -45.9173     0.0000    12.0000 </r>
       <r>   -45.6729     0.0000    12.0000 </r>
       <r>   -45.4286     0.0000    12.0000 </r>
       <r>   -45.1842     0.0000    12.0000 </r>
       <r>   -44.9399     0.0000    12.0000 </r>
       <r>   -44.6955     0.0000    12.0000 </r>
       <r>   -44.4512     0.0000    12.0000 </r>
       <r>   -44.2068     0.0000    12.0000 </r>
       <r>   -43.9625     0.0000    12.0000 </r>
       <r>   -43.7181     0.0000    12.0000 </r>
       <r>   -43.4738     0.0000    12.0000 </r>
       <r>   -43.2294     0.0000    12.0000 </r>
       <r>   -42.9851     0.0000    12.0000 </r>
       <r>   -42.7407     0.0000    12.0000 </r>
       <r>   -42.4964     0.0000    12.0000 </r>
       <r>   -42.2520     0.0000    12.0000 </r>
       <r>   -42.0077     0.0000    12.0000 </r>
       <r>   -41.7633     0.0000    12.0000 </r>
       <r>   -41.5190     0.0000    12.0000 </r>
       <r>   -41.2746     0.0000    12.0000 </r>
       <r>   -41.0303     0.0000    12.0000 </r>
       <r>   -40.7860     0.0000    12.0000 </r>
       <r>   -40.5416     0.0000    12.0000 </r>
       <r>   -40.2973     0.0000    12.0000 </r>
       <r>   -40.0529     0.0000    12.0000 </r>
       <r>   -39.8086     0.0000    12.0000 </r>
       <r>   -39.5642     0.0000    12.0000 </r>
       <r>   -39.3199     0.0000    12.0000 </r>
       <r>   -39.0755     0.0000    12.0000 </r>
       <r>   -38.8312     0.0000    12.0000 </r>
       <r>   -38.5868     0.0000    12.0000 </r>
       <r>   -38.3425     0.0000    12.0000 </r>
       <r>   -38.0981     0.0000    12.0000 </r>
       <r>   -37.8538     0.0000    12.0000 </r>
       <r>   -37.6094     0.0000    12.0000 </r>
       <r>   -37.3651     0.0000    12.0000 </r>
       <r>   -37.1207     0.0000    12.0000 </r>
       <r>   -36.8764     0.0000    12.0000 </r>
       <r>   -36.6320     0.0000    12.0000 </r>
       <r>   -36.3877     0.0000    12.0000 </r>
       <r>   -36.1433     0.0000    12.0000 </r>
       <r>   -35.8990     0.0000    12.0000 </r>
       <r>   -35.6546     0.0000    12.0000 </r>
       <r>   -35.4103     0.0000    12.0000 </r>
       <r>   -35.1659     0.0000    12.0000 </r>
       <r>   -34.9216     0.0000    12.0000 </r>
       <r>   -34.6772     0.0000    12.0000 </r>
       <r>   -34.4329     0.0000    12.0000 </r>
       <r>   -34.1885     0.0000    12.0000 </r>
       <r>   -33.9442     0.0000    12.0000 </r>
       <r>   -33.6998     0.0000    12.0000 </r>
       <r>   -33.4555     0.0000    12.0000 </r>
       <r>   -33.2112     0.0000    12.0000 </r>
       <r>   -32.9668     0.0000    12.0000 </r>
       <r>   -32.7225     0.0000    12.0000 </r>
       <r>   -32.4781     0.0000    12.0000 </r>
       <r>   -32.2338     0.0000    12.0000 </r>
       <r>   -31.9894     0.0000    12.0000 </r>
       <r>   -31.7451     0.0000    12.0000 </r>
       <r>   -31.5007     0.0000    12.0000 </r>
       <r>   -31.2564     0.0000    12.0000 </r>
       <r>   -31.0120     0.0000    12.0000 </r>
       <r>   -30.7677     0.0000    12.0000 </r>
       <r>   -30.5233     0.0000    12.0000 </r>
       <r>   -30.2790     0.0000    12.0000 </r>
       <r>   -30.0346     0.0000    12.0000 </r>
       <r>   -29.7903     0.0000    12.0000 </r>
       <r>   -29.5459     0.0000    12.0000 </r>
       <r>   -29.3016     0.0000    12.0000 </r>
       <r>   -29.0572     0.0000    12.0000 </r>
       <r>   -28.8129     0.0000    12.0000 </r>
       <r>   -28.5685     0.0000    12.0000 </r>
       <r>   -28.3242     0.0000    12.0000 </r>
       <r>   -28.0798     4.7297    13.1557 </r>
       <r>   -27.8355    16.2673    19.9749 </r>
       <r>   -27.5911    22.5628    31.3652 </r>
       <r>   -27.3468    49.0058    48.0000 </r>
       <r>   -27.1024     0.0000    48.0000 </r>
       <r>   -26.8581     0.0000    48.0000 </r>
       <r>   -26.6137     0.0000    48.0000 </r>
       <r>   -26.3694     0.0000    48.0000 </r>
       <r>   -26.1250     0.0000    48.0000 </r>
       <r>   -25.8807     0.0000    48.0000 </r>
       <r>   -25.6364     0.0000    48.0000 </r>
       <r>   -25.3920     0.0000    48.0000 </r>
       <r>   -25.1477     0.0000    48.0000 </r>
       <r>   -24.9033     0.0000    48.0000 </r>
       <r>   -24.6590     0.0000    48.0000 </r>
       <r>   -24.4146     0.0000    48.0000 </r>
       <r>   -24.1703     0.0000    48.0000 </r>
       <r>   -23.9259     0.0000    48.0000 </r>
       <r>   -23.6816     0.0000    48.0000 </r>
       <r>   -23.4372     0.0000    48.0000 </r>
       <r>   -23.1929     0.0000    48.0000 </r>
       <r>   -22.9485     0.0000    48.0000 </r>
       <r>   -22.7042     0.0000    48.0000 </r>
       <r>   -22.4598     0.0000    48.0000 </r>
       <r>   -22.2155     0.0000    48.0000 </r>
       <r>   -21.9711     0.0000    48.0000 </r>
       <r>   -21.7268     0.0000    48.0000 </r>
       <r>   -21.4824     0.0000    48.0000 </r>
       <r>   -21.2381     0.0000    48.0000 </r>
       <r>   -20.9937     0.0000    48.0000 </r>
       <r>   -20.7494     0.0000    48.0000 </r>
       <r>   -20.5050     0.0000    48.0000 </r>
       <r>   -20.2607     0.0000    48.0000 </r>
       <r>   -20.0163     0.0000    48.0000 </r>
       <r>   -19.7720     0.0000    48.0000 </r>
       <r>   -19.5276     0.0000    48.0000 </r>
       <r>   -19.2833     0.0000    48.0000 </r>
       <r>   -19.0389     0.0000    48.0000 </r>
       <r>   -18.7946     0.0000    48.0000 </r>
       <r>   -18.5503     0.0000    48.0000 </r>
       <r>   -18.3059     0.0000    48.0000 </r>
       <r>   -18.0616     0.0000    48.0000 </r>
       <r>   -17.8172     0.0000    48.0000 </r>
       <r>   -17.5729     0.0000    48.0000 </r>
       <r>   -17.3285     0.0000    48.0000 </r>
       <r>   -17.0842     0.0000    48.0000 </r>
       <r>   -16.8398     0.0000    48.0000 </r>
       <r>   -16.5955     0.0000    48.0000 </r>
       <r>   -16.3511     0.0000    48.0000 </r>
       <r>   -16.1068     0.0000    48.0000 </r>
       <r>   -15.8624     0.0000    48.0000 </r>
       <r>   -15.6181     0.0000    48.0000 </r>
       <r>   -15.3737     0.0000    48.0000 </r>
       <r>   -15.1294     0.0000    48.0000 </r>
       <r>   -14.8850     0.0000    48.0000 </r>
       <r>   -14.6407     0.0000    48.0000 </r>
       <r>   -14.3963     0.0000    48.0000 </r>
       <r>   -14.1520     0.0000    48.0000 </r>
       <r>   -13.9076     0.0000    48.0000 </r>
       <r>   -13.6633     0.0000    48.0000 </r>
       <r>   -13.4189     0.0000    48.0000 </r>
       <r>   -13.1746     0.0000    48.0000 </r>
       <r>   -12.9302     0.0000    48.0000 </r>
       <r>   -12.6859     0.0000    48.0000 </r>
       <r>   -12.4415     0.0000    48.0000 </r>
       <r>   -12.1972     0.0000    48.0000 </r>
       <r>   -11.9528     0.0000    48.0000 </r>
       <r>   -11.7085     0.0000    48.0000 </r>
       <r>   -11.4641     0.0000    48.0000 </r>
       <r>   -11.2198     0.0000    48.0000 </r>
       <r>   -10.9755     0.0000    48.0000 </r>
       <r>   -10.7311     0.0000    48.0000 </r>
       <r>   -10.4868     0.0000    48.0000 </r>
       <r>   -10.2424     0.0000    48.0000 </r>
       <r>    -9.9981     0.0000    48.0000 </r>
       <r>    -9.7537     0.0000    48.0000 </r>
       <r>    -9.5094     0.0000    48.0000 </r>
       <r>    -9.2650     0.0000    48.0000 </r>
       <r>    -9.0207     0.0000    48.0000 </r>
       <r>    -8.7763     0.0000    48.0000 </r>
       <r>    -8.5320     0.0000    48.0000 </r>
       <r>    -8.2876     0.0000    48.0000 </r>
       <r>    -8.0433     0.0000    48.0000 </r>
       <r>    -7.7989     0.0000    48.0000 </r>
       <r>    -7.5546     0.0000    48.0000 </r>
       <r>    -7.3102     0.0000    48.0000 </r>
       <r>    -7.0659     0.0000    48.0000 </r>
       <r>    -6.8215     0.0000    48.0000 </r>
       <r>    -6.5772     0.0000    48.0000 </r>
       <r>    -6.3328     0.0000    48.0000 </r>
       <r>    -6.0885     0.0000    48.0000 </r>
       <r>    -5.8441     0.0000    48.0000 </r>
       <r>    -5.5998     0.0000    48.0000 </r>
       <r>    -5.3554     0.0000    48.0000 </r>
       <r>    -5.1111     0.0000    48.0000 </r>
       <r>    -4.8667     0.0000    48.0000 </r>
       <r>    -4.6224     0.0000    48.0000 </r>
       <r>    -4.3780     0.0000    48.0000 </r>
       <r>    -4.1337     0.0000    48.0000 </r>
       <r>    -3.8893     0.0000    48.0000 </r>
       <r>    -3.6450     0.0215    48.0053 </r>
       <r>    -3.4007     0.3138    48.1430 </r>
       <r>    -3.1563     0.5420    48.3620 </r>
       <r>    -2.9120     1.0515    48.7110 </r>
       <r>    -2.6676     0.8283    49.0646 </r>
       <r>    -2.4233     1.1189    49.4826 </r>
       <r>    -2.1789     0.8039    49.8546 </r>
       <r>    -1.9346     0.9776    50.2950 </r>
       <r>    -1.6902     1.5135    50.7525 </r>
       <r>    -1.4459     1.2422    51.2066 </r>
       <r>    -1.2015     1.5876    51.7093 </r>
       <r>    -0.9572     1.4346    52.2587 </r>
       <r>    -0.7128     1.3679    52.8087 </r>
       <r>    -0.4685     2.0900    53.5872 </r>
       <r>    -0.2241     3.1217    54.7271 </r>
       <r>     0.0202     3.4539    56.3133 </r>
       <r>     0.2646     2.8479    57.0938 </r>
       <r>     0.5089     2.1894    58.1931 </r>
       <r>     0.7533     3.8848    59.2656 </r>
       <r>     0.9976     6.0472    61.3041 </r>
       <r>     1.2420     4.0816    63.5994 </r>
       <r>     1.4863     2.2027    64.3494 </r>
       <r>     1.7307     1.5795    65.1207 </r>
       <r>     1.9750     2.0768    65.9666 </r>
       <r>     2.2194     2.4613    66.8310 </r>
       <r>     2.4637     2.4415    67.7088 </r>
       <r>     2.7081     0.3521    68.1320 </r>
       <r>     2.9524     2.5422    68.7742 </r>
       <r>     3.1968     2.7114    69.8258 </r>
       <r>     3.4411     3.4928    71.3586 </r>
       <r>     3.6854     4.4967    73.2008 </r>
       <r>     3.9298     6.0513    75.2541 </r>
       <r>     4.1741     7.2630    77.7951 </r>
       <r>     4.4185     6.6952    80.5951 </r>
       <r>     4.6628     4.4440    82.3512 </r>
       <r>     4.9072     4.9074    84.1328 </r>
       <r>     5.1515     6.4483    86.4430 </r>
       <r>     5.3959     4.9873    88.3462 </r>
       <r>     5.6402     7.1236    90.9090 </r>
       <r>     5.8846     4.6659    92.6554 </r>
       <r>     6.1289     5.3868    94.5408 </r>
       <r>     6.3733     5.5055    96.4116 </r>
       <r>     6.6176     4.5419    98.2221 </r>
       <r>     6.8620     4.6705   100.0392 </r>
       <r>     7.1063     5.5377   101.8990 </r>
       <r>     7.3507     3.4401   103.2845 </r>
       <r>     7.5950     5.8501   105.1744 </r>
       <r>     7.8394     4.8638   107.2344 </r>
       <r>     8.0837     6.8574   109.5123 </r>
       <r>     8.3281     5.6295   111.6562 </r>
       <r>     8.5724     6.3809   114.0796 </r>
       <r>     8.8168     4.4504   115.9140 </r>
       <r>     9.0611     6.1240   117.9964 </r>
       <r>     9.3055     9.9179   121.3367 </r>
       <r>     9.5498     8.6353   124.3957 </r>
       <r>     9.7942     5.6700   126.4008 </r>
       <r>    10.0385     4.7909   128.1911 </r>
       <r>    10.2829     6.2569   130.3452 </r>
       <r>    10.5272     6.4531   133.0003 </r>
       <r>    10.7716     7.8685   135.8869 </r>
       <r>    11.0159     6.7276   138.7255 </r>
       <r>    11.2602     4.9528   140.6286 </r>
       <r>    11.5046     5.3183   142.6618 </r>
       <r>    11.7489     2.5338   143.7467 </r>
       <r>    11.9933     0.4916   143.9671 </r>
       <r>    12.2376     0.0835   144.0000 </r>
       <r>    12.4820     0.0000   144.0000 </r>
       <r>    12.7263     0.0000   144.0000 </r>
       <r>    12.9707     0.0000   144.0000 </r>
       <r>    13.2150     0.0000   144.0000 </r>
       <r>    13.4594     0.0000   144.0000 </r>
       <r>    13.7037     0.0000   144.0000 </r>
       <r>    13.9481     0.0000   144.0000 </r>
       <r>    14.1924     0.0000   144.0000 </r>
       <r>    14.4368     0.0000   144.0000 </r>
       <r>    14.6811     0.0000   144.0000 </r>
       <r>    14.9255     0.0000   144.0000 </r>
       <r>    15.1698     0.0000   144.0000 </r>
       <r>    15.4142     0.0000   144.0000 </r>
      </set>
     </set>
    </array>
   </total>
  </dos>
 </calculation>
 <structure name="finalpos" >
  <crystal>
   <varray name="basis" >
    <v>       5.64415728       0.00000000      -3.66633905 </v>
    <v>      -1.66346872       5.39345744      -3.66633905 </v>
    <v>       0.00000000       0.00000000       6.73042000 </v>
   </varray>
   <i name="volume">    204.88422907 </i>
   <varray name="rec_basis" >
    <v>       0.17717437       0.05464473       0.00000000 </v>
    <v>       0.00000000       0.18540982       0.00000000 </v>
    <v>       0.09651423       0.13076768       0.14857914 </v>
   </varray>
  </crystal>
  <varray name="positions" >
   <v>       0.50191000       0.00191000       0.24847000 </v>
   <v>       0.49809000       0.99809000       0.75153000 </v>
   <v>       0.00191000       0.75344000       0.50000000 </v>
   <v>       0.99809000       0.24656000       0.50000000 </v>
   <v>       0.75344000       0.25344000       0.75153000 </v>
   <v>       0.24656000       0.74656000       0.24847000 </v>
   <v>       0.25344000       0.50191000       0.50000000 </v>
   <v>       0.74656000       0.49809000       0.50000000 </v>
   <v>       0.25000000       0.25000000       0.00000000 </v>
   <v>       0.17291000       0.67291000       0.84583000 </v>
   <v>       0.75000000       0.75000000       0.00000000 </v>
   <v>       0.82709000       0.32709000       0.15417000 </v>
   <v>       0.67291000       0.82709000       0.50000000 </v>
   <v>       0.32709000       0.17291000       0.50000000 </v>
   <v>       0.00000000       0.00000000       0.00000000 </v>
   <v>       0.50000000       0.50000000       0.00000000 </v>
  </varray>
 </structure>
</modeling>
