 vasp.6.2.0 18Jan21 (build Jan 05 2022 15:41:44) complex                        
  
 executed on             LinuxIFC date 2025.05.07  15:23:04
 running on   24 total cores
 distrk:  each k-point on   12 cores,    2 groups
 distr:  one band on NCORE=   2 cores,    6 groups


--------------------------------------------------------------------------------------------------------


 INCAR:
   SYSTEM = routine with relax: pwdword
   ICHARG = 2
   NPAR = 6
   KPAR = 2
   NCORE = 2
   ADDGRID = T
   PREC = Acc
   ENCUT = 600
   METAGGA = R2SCAN
   LASPH = .TRUE.
   LMIXTAU = .FALSE.
   ALGO = A
   EDIFF = 1E-9
   NELM = 100
   NELMIN = 6
   IALGO = 38
   LREAL = F
   NSW = 0
   ISIF = -1
   ISMEAR = 0
   SIGMA = 0.02

 POTCAR:    PAW_PBE B 06Sep2000                   
 POTCAR:    PAW_PBE Mo_sv 02Feb2006               
 POTCAR:    PAW_PBE Si 05Jan2001                  
 -----------------------------------------------------------------------------
|                                                                             |
|           W    W    AA    RRRRR   N    N  II  N    N   GGGG   !!!           |
|           W    W   A  A   R    R  NN   N  II  NN   N  G    G  !!!           |
|           W    W  A    A  R    R  N N  N  II  N N  N  G       !!!           |
|           W WW W  AAAAAA  RRRRR   N  N N  II  N  N N  G  GGG   !            |
|           WW  WW  A    A  R   R   N   NN  II  N   NN  G    G                |
|           W    W  A    A  R    R  N    N  II  N    N   GGGG   !!!           |
|                                                                             |
|     For optimal performance we recommend to set                             |
|       NCORE = 2 up to number-of-cores-per-socket                            |
|     NCORE specifies how many cores store one orbital (NPAR=cpu/NCORE).      |
|     This setting can greatly improve the performance of VASP for DFT.       |
|     The default, NCORE=1 might be grossly inefficient on modern             |
|     multi-core architectures or massively parallel machines. Do your        |
|     own testing! More info at https://www.vasp.at/wiki/index.php/NCORE      |
|     Unfortunately you need to use the default for GW and RPA                |
|     calculations (for HF NCORE is supported but not extensively tested      |
|     yet).                                                                   |
|                                                                             |
 -----------------------------------------------------------------------------

 POTCAR:    PAW_PBE B 06Sep2000                   
   VRHFIN =B: s2p1                                                                                  
   LEXCH  = PE                                                                                      
   EATOM  =    71.1703 eV,    5.2309 Ry                                                             
                                                                                                    
   TITEL  = PAW_PBE B 06Sep2000                                                                     
   LULTRA =        F    use ultrasoft PP ?                                                          
   IUNSCR =        1    unscreen: 0-lin 1-nonlin 2-no                                               
   RPACOR =    1.200    partial core radius                                                         
   POMASS =   10.811; ZVAL   =    3.000    mass and valenz                                          
   RCORE  =    1.700    outmost cutoff radius                                                       
   RWIGS  =    1.710; RWIGS  =    0.905    wigner-seitz radius (au A)                               
   ENMAX  =  318.614; ENMIN  =  238.960 eV                                                          
   ICORE  =        2    local potential                                                             
   LCOR   =        T    correct aug charges                                                         
   LPAW   =        T    paw PP                                                                      
   EAUG   =  535.514                                                                                
   DEXC   =    0.000                                                                                
   RMAX   =    1.732    core radius for proj-oper                                                   
   RAUG   =    1.300    factor for augmentation sphere                                              
   RDEP   =    1.757    radius for radial grids                                                     
   RDEPT  =    1.436    core radius for aug-charge                                                  
                                                                                                    
   Atomic configuration                                                                             
    4 entries                                                                                       
     n  l   j            E        occ.                                                              
     1  0  0.50      -180.5896   2.0000                                                             
     2  0  0.50        -9.4431   2.0000                                                             
     2  1  0.50        -3.6068   1.0000                                                             
     3  2  1.50        -4.0817   0.0000                                                             
   Description                                                                                      
     l       E           TYP  RCUT    TYP  RCUT                                                     
     0     -9.4430752     23  1.500                                                                 
     0      0.8675899     23  1.500                                                                 
     1     -3.6067955     23  1.700                                                                 
     1      6.1086146     23  1.700                                                                 
     2     -4.0817478      7  1.700                                                                 
  local pseudopotential read in
  partial core-charges read in
  partial kinetic energy density read in
  atomic valenz-charges read in
  non local Contribution for L=           0  read in
    real space projection operators read in
  non local Contribution for L=           0  read in
    real space projection operators read in
  non local Contribution for L=           1  read in
    real space projection operators read in
  non local Contribution for L=           1  read in
    real space projection operators read in
    PAW grid and wavefunctions read in
 
   number of l-projection  operators is LMAX  =           4
   number of lm-projection operators is LMMAX =           8
 
 POTCAR:    PAW_PBE Mo_sv 02Feb2006               
   VRHFIN =Mo: 4p5s4d                                                                               
   LEXCH  = PE                                                                                      
   EATOM  =  1862.2866 eV,  136.8742 Ry                                                             
                                                                                                    
   TITEL  = PAW_PBE Mo_sv 02Feb2006                                                                 
   LULTRA =        F    use ultrasoft PP ?                                                          
   IUNSCR =        1    unscreen: 0-lin 1-nonlin 2-no                                               
   RPACOR =    2.200    partial core radius                                                         
   POMASS =   95.940; ZVAL   =   14.000    mass and valenz                                          
   RCORE  =    2.500    outmost cutoff radius                                                       
   RWIGS  =    2.750; RWIGS  =    1.455    wigner-seitz radius (au A)                               
   ENMAX  =  242.676; ENMIN  =  182.007 eV                                                          
   ICORE  =        3    local potential                                                             
   LCOR   =        T    correct aug charges                                                         
   LPAW   =        T    paw PP                                                                      
   EAUG   =  446.014                                                                                
   DEXC   =    0.000                                                                                
   RMAX   =    2.563    core radius for proj-oper                                                   
   RAUG   =    1.300    factor for augmentation sphere                                              
   RDEP   =    2.641    radius for radial grids                                                     
   RDEPT  =    2.031    core radius for aug-charge                                                  
                                                                                                    
   Atomic configuration                                                                             
   11 entries                                                                                       
     n  l   j            E        occ.                                                              
     1  0  0.50    -19819.0341   2.0000                                                             
     2  0  0.50     -2799.0127   2.0000                                                             
     2  1  1.50     -2502.0276   6.0000                                                             
     3  0  0.50      -476.4449   2.0000                                                             
     3  1  1.50      -379.1496   6.0000                                                             
     3  2  2.50      -220.9367  10.0000                                                             
     4  0  0.50       -64.3378   2.0000                                                             
     5  0  0.50        -4.0862   1.0000                                                             
     4  1  1.50       -38.4773   6.0000                                                             
     4  2  2.50        -3.7535   5.0000                                                             
     4  3  2.50        -1.3606   0.0000                                                             
   Description                                                                                      
     l       E           TYP  RCUT    TYP  RCUT                                                     
     0    -64.3377829     23  2.100                                                                 
     0     -4.0861640     23  2.400                                                                 
     1    -38.4772993     23  2.100                                                                 
     1     13.6058260     23  2.100                                                                 
     2     -3.7534941     23  2.400                                                                 
     2     -5.1140767     23  2.400                                                                 
     3     -4.0817478     23  2.500                                                                 
  local pseudopotential read in
  partial core-charges read in
  partial kinetic energy density read in
  atomic valenz-charges read in
  non local Contribution for L=           0  read in
    real space projection operators read in
  non local Contribution for L=           0  read in
    real space projection operators read in
  non local Contribution for L=           1  read in
    real space projection operators read in
  non local Contribution for L=           1  read in
    real space projection operators read in
  non local Contribution for L=           2  read in
    real space projection operators read in
  non local Contribution for L=           2  read in
    real space projection operators read in
    PAW grid and wavefunctions read in
 
   number of l-projection  operators is LMAX  =           6
   number of lm-projection operators is LMMAX =          18
 
 POTCAR:    PAW_PBE Si 05Jan2001                  
   VRHFIN =Si: s2p2                                                                                 
   LEXCH  = PE                                                                                      
   EATOM  =   103.0669 eV,    7.5752 Ry                                                             
                                                                                                    
   TITEL  = PAW_PBE Si 05Jan2001                                                                    
   LULTRA =        F    use ultrasoft PP ?                                                          
   IUNSCR =        1    unscreen: 0-lin 1-nonlin 2-no                                               
   RPACOR =    1.500    partial core radius                                                         
   POMASS =   28.085; ZVAL   =    4.000    mass and valenz                                          
   RCORE  =    1.900    outmost cutoff radius                                                       
   RWIGS  =    2.480; RWIGS  =    1.312    wigner-seitz radius (au A)                               
   ENMAX  =  245.345; ENMIN  =  184.009 eV                                                          
   ICORE  =        2    local potential                                                             
   LCOR   =        T    correct aug charges                                                         
   LPAW   =        T    paw PP                                                                      
   EAUG   =  322.069                                                                                
   DEXC   =    0.000                                                                                
   RMAX   =    1.950    core radius for proj-oper                                                   
   RAUG   =    1.300    factor for augmentation sphere                                              
   RDEP   =    1.993    radius for radial grids                                                     
   RDEPT  =    1.837    core radius for aug-charge                                                  
                                                                                                    
   Atomic configuration                                                                             
    6 entries                                                                                       
     n  l   j            E        occ.                                                              
     1  0  0.50     -1785.8828   2.0000                                                             
     2  0  0.50      -139.4969   2.0000                                                             
     2  1  1.50       -95.5546   6.0000                                                             
     3  0  0.50       -10.8127   2.0000                                                             
     3  1  0.50        -4.0811   2.0000                                                             
     3  2  1.50        -4.0817   0.0000                                                             
   Description                                                                                      
     l       E           TYP  RCUT    TYP  RCUT                                                     
     0    -10.8127223     23  1.900                                                                 
     0     -7.6451159     23  1.900                                                                 
     1     -4.0811372     23  1.900                                                                 
     1      2.4879257     23  1.900                                                                 
     2     -4.0817478      7  1.900                                                                 
  local pseudopotential read in
  partial core-charges read in
  partial kinetic energy density read in
  atomic valenz-charges read in
  non local Contribution for L=           0  read in
    real space projection operators read in
  non local Contribution for L=           0  read in
    real space projection operators read in
  non local Contribution for L=           1  read in
    real space projection operators read in
  non local Contribution for L=           1  read in
    real space projection operators read in
    PAW grid and wavefunctions read in
 
   number of l-projection  operators is LMAX  =           4
   number of lm-projection operators is LMMAX =           8
 
  PAW_PBE B 06Sep2000                   :
 energy of atom  1       EATOM=  -71.1703
 kinetic energy error for atom=    0.0007 (will be added to EATOM!!)
  PAW_PBE Mo_sv 02Feb2006               :
 energy of atom  2       EATOM=-1862.2866
 kinetic energy error for atom=    0.0041 (will be added to EATOM!!)
  PAW_PBE Si 05Jan2001                  :
 energy of atom  3       EATOM= -103.0669
 kinetic energy error for atom=    0.0003 (will be added to EATOM!!)
 
 
 POSCAR: EA46
  positions in direct lattice
  No initial velocities read in

 METAGGA = R2SCA    LMAXTAU =  6    LMIXTAU =  F

 exchange correlation table for  LEXCH =        8
   RHO(1)=    0.500       N(1)  =     2000
   RHO(2)=  100.500       N(2)  =     4000
 


--------------------------------------------------------------------------------------------------------


 ion  position               nearest neighbor table
   1  0.537  0.249  0.786-  13 1.77   8 2.09  12 2.65  10 2.65   9 2.66  11 2.66
   2  0.463  0.751  0.214-  13 1.77   7 2.09  10 2.65  12 2.65  11 2.66   9 2.66
   3  0.249  0.463  0.712-  13 1.77   6 2.09  10 2.65  12 2.65   9 2.66  11 2.66
   4  0.751  0.537  0.288-  13 1.77   5 2.09  12 2.65  10 2.65  11 2.66   9 2.66
   5  0.963  0.749  0.712-  14 1.77   4 2.09  10 2.65  12 2.65  11 2.66   9 2.66
   6  0.037  0.251  0.288-  14 1.77   3 2.09  12 2.65  10 2.65   9 2.66  11 2.66
   7  0.251  0.963  0.214-  14 1.77   2 2.09  10 2.65  12 2.65   9 2.66  11 2.66
   8  0.749  0.037  0.786-  14 1.77   1 2.09  12 2.65  10 2.65  11 2.66   9 2.66
   9  0.250  0.250  0.000-  13 1.99  14 1.99   1 2.66   7 2.66   6 2.66   3 2.66   2 2.66   8 2.66
                             5 2.66   4 2.66  10 3.49  10 3.49  12 3.49  12 3.49
  10  0.250  0.750  0.500-   2 2.65   7 2.65   5 2.65   3 2.65   6 2.65   4 2.65   8 2.65   1 2.65
                             9 3.49   9 3.49  11 3.49  11 3.49
  11  0.750  0.750  0.000-  13 1.99  14 1.99   8 2.66   2 2.66   5 2.66   4 2.66   7 2.66   1 2.66
                             6 2.66   3 2.66  12 3.49  12 3.49  10 3.49  10 3.49
  12  0.750  0.250  0.500-   1 2.65   8 2.65   6 2.65   4 2.65   5 2.65   3 2.65   2 2.65   7 2.65
                            11 3.49  11 3.49   9 3.49   9 3.49
  13  0.500  0.500  0.000-   1 1.77   2 1.77   3 1.77   4 1.77   9 1.99  11 1.99
  14  0.000  0.000  0.000-   7 1.77   8 1.77   5 1.77   6 1.77   9 1.99  11 1.99
 
  LATTYP: Found a body centered tetragonal cell.
 ALAT       =     6.9834445121
 C/A-ratio  =     1.1381932490
  
  Lattice vectors:
  
 A1 = (   5.8283686629,   0.0000000000,  -2.4917830708)
 A2 = (  -2.5390374288,   5.2462529681,  -2.4917830708)
 A3 = (   0.0000000000,   0.0000000000,   6.3386800000)


Analysis of symmetry for initial positions (statically):
=====================================================================
 Subroutine PRICEL returns:
 Original cell was already a primitive cell.
 

 Routine SETGRP: Setting up the symmetry group for a 
 body centered tetragonal supercell.


 Subroutine GETGRP returns: Found 16 space group operations
 (whereof  8 operations were pure point group operations)
 out of a pool of 16 trial point group operations.


The static configuration has the point symmetry C_4h.
 The point group associated with its full space group is D_4h.


Analysis of symmetry for dynamics (positions and initial velocities):
=====================================================================
 Subroutine PRICEL returns:
 Original cell was already a primitive cell.
 

 Routine SETGRP: Setting up the symmetry group for a 
 body centered tetragonal supercell.


 Subroutine GETGRP returns: Found 16 space group operations
 (whereof  8 operations were pure point group operations)
 out of a pool of 16 trial point group operations.


The dynamic configuration has the point symmetry C_4h.
 The point group associated with its full space group is D_4h.


 Subroutine INISYM returns: Found 16 space group operations
 (whereof  8 operations are pure point group operations),
 and found     1 'primitive' translations


----------------------------------------------------------------------------------------

                                     Primitive cell                                     

  volume of cell :     193.8184

  direct lattice vectors                    reciprocal lattice vectors
     5.828368663  0.000000000 -2.491783071     0.171574596  0.083037231  0.000000000
    -2.539037429  5.246252968 -2.491783071     0.000000000  0.190612234  0.000000000
     0.000000000  0.000000000  6.338680000     0.067447272  0.107573676  0.157761553

  length of vectors
     6.338680000  6.338680000  6.338680000     0.190612234  0.190612234  0.202509105

  position of ions in fractional coordinates (direct lattice)
     0.537150000  0.248690000  0.785840000
     0.462850000  0.751310000  0.214160000
     0.248690000  0.462850000  0.711540000
     0.751310000  0.537150000  0.288460000
     0.962850000  0.748690000  0.711540000
     0.037150000  0.251310000  0.288460000
     0.251310000  0.962850000  0.214160000
     0.748690000  0.037150000  0.785840000
     0.250000000  0.250000000  1.000000000
     0.250000000  0.750000000  0.500000000
     0.750000000  0.750000000  1.000000000
     0.750000000  0.250000000  0.500000000
     0.500000000  0.500000000  1.000000000
     0.000000000  0.000000000  0.000000000

  ion indices of the primitive-cell ions
   primitive index   ion index
                 1           1
                 2           2
                 3           3
                 4           4
                 5           5
                 6           6
                 7           7
                 8           8
                 9           9
                10          10
                11          11
                12          12
                13          13
                14          14

----------------------------------------------------------------------------------------

 
 
 KPOINTS: EA                                      

Automatic generation of k-mesh.
 Grid dimensions read from file:
 generate k-points for:    7    7    7

 Generating k-lattice:

  Cartesian coordinates                     Fractional coordinates (reciprocal lattice)
     0.024510657  0.011862462  0.000000000     0.142857143  0.000000000  0.000000000
     0.000000000  0.027230319  0.000000000     0.000000000  0.142857143  0.000000000
     0.009635325  0.015367668  0.022537365    -0.000000000 -0.000000000  0.142857143

  Length of vectors
     0.027230319  0.027230319  0.028929872

  Shift w.r.t. Gamma in fractional coordinates (k-lattice)
     0.000000000  0.000000000  0.000000000

 
 Subroutine IBZKPT returns following result:
 ===========================================
 
 Found     40 irreducible k-points:
 
 Following reciprocal coordinates:
            Coordinates               Weight
  0.000000  0.000000  0.000000      1.000000
  0.142857  0.000000  0.000000      8.000000
  0.285714  0.000000  0.000000      8.000000
  0.428571  0.000000  0.000000      8.000000
  0.142857  0.142857  0.000000      8.000000
  0.285714  0.142857  0.000000     16.000000
  0.428571  0.142857  0.000000     16.000000
 -0.428571  0.142857  0.000000     16.000000
 -0.285714  0.142857  0.000000     16.000000
 -0.142857  0.142857  0.000000      4.000000
  0.285714  0.285714  0.000000      8.000000
  0.428571  0.285714  0.000000     16.000000
 -0.428571  0.285714  0.000000     16.000000
 -0.285714  0.285714  0.000000      4.000000
  0.428571  0.428571  0.000000      8.000000
 -0.428571  0.428571  0.000000      4.000000
  0.142857  0.142857  0.142857      8.000000
  0.285714  0.142857  0.142857     16.000000
 -0.142857  0.142857  0.142857      4.000000
  0.285714  0.285714  0.142857      8.000000
  0.428571  0.285714  0.142857      8.000000
 -0.285714  0.285714  0.142857      8.000000
 -0.142857  0.285714  0.142857      8.000000
 -0.428571  0.428571  0.142857      8.000000
 -0.285714  0.428571  0.142857     16.000000
 -0.142857  0.428571  0.142857      8.000000
 -0.428571 -0.428571  0.142857      8.000000
 -0.285714 -0.428571  0.142857     16.000000
 -0.142857 -0.428571  0.142857      8.000000
 -0.285714 -0.285714  0.142857      8.000000
 -0.142857 -0.285714  0.142857      8.000000
 -0.142857 -0.142857  0.142857      2.000000
 -0.285714  0.285714  0.285714      4.000000
 -0.428571  0.428571  0.285714      8.000000
 -0.285714  0.428571  0.285714      8.000000
 -0.428571 -0.428571  0.285714      8.000000
 -0.285714 -0.428571  0.285714      8.000000
 -0.285714 -0.285714  0.285714      2.000000
 -0.428571  0.428571  0.428571      4.000000
 -0.428571 -0.428571  0.428571      2.000000
 
 Following cartesian coordinates:
            Coordinates               Weight
  0.000000  0.000000  0.000000      1.000000
  0.024511  0.011862  0.000000      8.000000
  0.049021  0.023725  0.000000      8.000000
  0.073532  0.035587  0.000000      8.000000
  0.024511  0.039093  0.000000      8.000000
  0.049021  0.050955  0.000000     16.000000
  0.073532  0.062818  0.000000     16.000000
 -0.073532 -0.008357  0.000000     16.000000
 -0.049021  0.003505  0.000000     16.000000
 -0.024511  0.015368  0.000000      4.000000
  0.049021  0.078186  0.000000      8.000000
  0.073532  0.090048  0.000000     16.000000
 -0.073532  0.018873  0.000000     16.000000
 -0.049021  0.030736  0.000000      4.000000
  0.073532  0.117278  0.000000      8.000000
 -0.073532  0.046104  0.000000      4.000000
  0.034146  0.054460  0.022537      8.000000
  0.058657  0.066323  0.022537     16.000000
 -0.014875  0.030736  0.022537      4.000000
  0.058657  0.093553  0.022537      8.000000
  0.083167  0.105416  0.022537      8.000000
 -0.039386  0.046103  0.022537      8.000000
 -0.014875  0.057966  0.022537      8.000000
 -0.063897  0.061471  0.022537      8.000000
 -0.039386  0.073334  0.022537     16.000000
 -0.014875  0.085196  0.022537      8.000000
 -0.063897 -0.101911  0.022537      8.000000
 -0.039386 -0.090048  0.022537     16.000000
 -0.014875 -0.078186  0.022537      8.000000
 -0.039386 -0.062818  0.022537      8.000000
 -0.014875 -0.050955  0.022537      8.000000
 -0.014875 -0.023725  0.022537      2.000000
 -0.029751  0.061471  0.045075      4.000000
 -0.054261  0.076839  0.045075      8.000000
 -0.029751  0.088701  0.045075      8.000000
 -0.054261 -0.086543  0.045075      8.000000
 -0.029751 -0.074681  0.045075      8.000000
 -0.029751 -0.047450  0.045075      2.000000
 -0.044626  0.092207  0.067612      4.000000
 -0.044626 -0.071175  0.067612      2.000000
 


--------------------------------------------------------------------------------------------------------




 Dimension of arrays:
   k-points           NKPTS =     40   k-points in BZ     NKDIM =     40   number of bands    NBANDS=     54
   number of dos      NEDOS =    301   number of ions     NIONS =     14
   non local maximal  LDIM  =      6   non local SUM 2l+1 LMDIM =     18
   total plane-waves  NPLWV = 157464
   max r-space proj   IRMAX =      1   max aug-charges    IRDMAX= 284397
   dimension x,y,z NGX =    54 NGY =   54 NGZ =   54
   dimension x,y,z NGXF=   108 NGYF=  108 NGZF=  108
   support grid    NGXF=   216 NGYF=  216 NGZF=  216
   ions per type =               8   4   2
   NGX,Y,Z   is equivalent  to a cutoff of  14.16, 14.16, 14.16 a.u.
   NGXF,Y,Z  is equivalent  to a cutoff of  28.33, 28.33, 28.33 a.u.

 SYSTEM =  routine with relax: pwdword             
 POSCAR =  EA46                                    

 Startparameter for this run:
   NWRITE =      2    write-flag & timer
   PREC   = acc       normal or accurate (medium, high low for compatibility)
   ISTART =      0    job   : 0-new  1-cont  2-samecut
   ICHARG =      2    charge: 1-file 2-atom 10-const
   ISPIN  =      1    spin polarized calculation?
   LNONCOLLINEAR =      F non collinear calculations
   LSORBIT =      F    spin-orbit coupling
   INIWAV =      1    electr: 0-lowe 1-rand  2-diag
   LASPH  =      T    aspherical Exc in radial PAW
   METAGGA=      F    non-selfconsistent MetaGGA calc.

 Electronic Relaxation 1
   ENCUT  =  600.0 eV  44.10 Ry    6.64 a.u.  12.66 12.66 12.66*2*pi/ulx,y,z
   ENINI  =  600.0     initial cutoff
   ENAUG  =  535.5 eV  augmentation charge cutoff
   NELM   =    100;   NELMIN=  6; NELMDL= -5     # of ELM steps 
   EDIFF  = 0.1E-08   stopping-criterion for ELM
   LREAL  =      F    real-space projection
   NLSPLINE    = F    spline interpolate recip. space projectors
   LCOMPAT=      F    compatible to vasp.4.4
   GGA_COMPAT  = T    GGA compatible to vasp.4.4-vasp.4.6
   LMAXPAW     = -100 max onsite density
   LMAXMIX     =    2 max onsite mixed and CHGCAR
   VOSKOWN=      0    Vosko Wilk Nusair interpolation
   ROPT   =    0.00000   0.00000   0.00000
 Ionic relaxation
   EDIFFG = 0.1E-07   stopping-criterion for IOM
   NSW    =      0    number of steps for IOM
   NBLOCK =      1;   KBLOCK =      1    inner block; outer block 
   IBRION =     -1    ionic relax: 0-MD 1-quasi-New 2-CG
   NFREE  =      0    steps in history (QN), initial steepest desc. (CG)
   ISIF   =     -1    stress and relaxation
   IWAVPR =     10    prediction:  0-non 1-charg 2-wave 3-comb
   ISYM   =      2    0-nonsym 1-usesym 2-fastsym
   LCORR  =      T    Harris-Foulkes like correction to forces

   POTIM  = 0.5000    time-step for ionic-motion
   TEIN   =    0.0    initial temperature
   TEBEG  =    0.0;   TEEND  =   0.0 temperature during run
   SMASS  =  -3.00    Nose mass-parameter (am)
   estimated Nose-frequenzy (Omega)   =  0.10E-29 period in steps = 0.13E+47 mass=  -0.918E-27a.u.
   SCALEE = 1.0000    scale energy and forces
   NPACO  =    256;   APACO  = 16.0  distance and # of slots for P.C.
   PSTRESS=    0.0 pullay stress

  Mass of Ions in am
   POMASS =  10.81 95.94 28.09
  Ionic Valenz
   ZVAL   =   3.00 14.00  4.00
  Atomic Wigner-Seitz radii
   RWIGS  =  -1.00 -1.00 -1.00
  virtual crystal weights 
   VCA    =   1.00  1.00  1.00
   NELECT =      88.0000    total number of electrons
   NUPDOWN=      -1.0000    fix difference up-down

 DOS related values:
   EMIN   =  10.00;   EMAX   =-10.00  energy-range for DOS
   EFERMI =   0.00
   ISMEAR =     0;   SIGMA  =   0.02  broadening in eV -4-tet -1-fermi 0-gaus

 Electronic relaxation 2 (details)
   IALGO  =     58    algorithm
   LDIAG  =      T    sub-space diagonalisation (order eigenvalues)
   LSUBROT=      F    optimize rotation matrix (better conditioning)
   TURBO    =      0    0=normal 1=particle mesh
   IRESTART =      0    0=no restart 2=restart with 2 vectors
   NREBOOT  =      0    no. of reboots
   NMIN     =      0    reboot dimension
   EREF     =   0.00    reference energy to select bands
   IMIX   =      4    mixing-type and parameters
     AMIX     =   0.40;   BMIX     =  1.00
     AMIX_MAG =   1.60;   BMIX_MAG =  1.00
     AMIN     =   0.10
     WC   =   100.;   INIMIX=   1;  MIXPRE=   1;  MAXMIX= -45

 Intra band minimization:
   WEIMIN = 0.0000     energy-eigenvalue tresh-hold
   EBREAK =  0.46E-11  absolut break condition
   DEPER  =   0.30     relativ break condition  

   TIME   =   0.40     timestep for ELM

  volume/ion in A,a.u.               =      13.84        93.43
  Fermi-wavevector in a.u.,A,eV,Ry     =   1.258261  2.377768 21.541022  1.583220
  Thomas-Fermi vector in A             =   2.391879
 
 Write flags
   LWAVE        =      T    write WAVECAR
   LDOWNSAMPLE  =      F    k-point downsampling of WAVECAR
   LCHARG       =      T    write CHGCAR
   LVTOT        =      F    write LOCPOT, total local potential
   LVHAR        =      F    write LOCPOT, Hartree potential only
   LELF         =      F    write electronic localiz. function (ELF)
   LORBIT       =      0    0 simple, 1 ext, 2 COOP (PROOUT), +10 PAW based schemes


 Dipole corrections
   LMONO  =      F    monopole corrections only (constant potential shift)
   LDIPOL =      F    correct potential (dipole corrections)
   IDIPOL =      0    1-x, 2-y, 3-z, 4-all directions 
   EPSILON=  1.0000000 bulk dielectric constant

 Exchange correlation treatment:
   GGA     =    --    GGA type
   LEXCH   =     8    internal setting for exchange type
   VOSKOWN=      0    Vosko Wilk Nusair interpolation
   LHFCALC =     F    Hartree Fock is set to
   LHFONE  =     F    Hartree Fock one center treatment
   AEXX    =    0.0000 exact exchange contribution

 Linear response parameters
   LEPSILON=     F    determine dielectric tensor
   LRPA    =     F    only Hartree local field effects (RPA)
   LNABLA  =     F    use nabla operator in PAW spheres
   LVEL    =     F    velocity operator in full k-point grid
   LINTERFAST=   F  fast interpolation
   KINTER  =     0    interpolate to denser k-point grid
   CSHIFT  =0.1000    complex shift for real part using Kramers Kronig
   OMEGAMAX=  -1.0    maximum frequency
   DEG_THRESHOLD= 0.2000000E-02 threshold for treating states as degnerate
   RTIME   =   -0.100 relaxation time in fs
  (WPLASMAI=    0.000 imaginary part of plasma frequency in eV, 0.658/RTIME)
   DFIELD  = 0.0000000 0.0000000 0.0000000 field for delta impulse in time
 
 Orbital magnetization related:
   ORBITALMAG=     F  switch on orbital magnetization
   LCHIMAG   =     F  perturbation theory with respect to B field
   DQ        =  0.001000  dq finite difference perturbation B field
   LLRAUG    =     F  two centre corrections for induced B field



--------------------------------------------------------------------------------------------------------


 Static calculation
 charge density and potential will be updated during run
 non-spin polarized calculation
 Conjugate gradient for all bands (Freysoldt, et al. PRB 79, 241103 (2009))
 preconditioned conjugated gradient                                        
 perform sub-space diagonalisation
    before iterative eigenvector-optimisation
 modified Broyden-mixing scheme, WC =      100.0
 initial mixing is a Kerker type mixing with AMIX =  0.4000 and BMIX =      1.0000
 Hartree-type preconditioning will be used
 using additional bands           10
 reciprocal scheme for non local part
 use partial core corrections
 no Harris-corrections to forces 
 use gradient corrections 
 use of overlap-Matrix (Vanderbilt PP)
 Gauss-broadening in eV      SIGMA  =   0.02


--------------------------------------------------------------------------------------------------------


  energy-cutoff  :      600.00
  volume of cell :      193.82
      direct lattice vectors                 reciprocal lattice vectors
     5.828368663  0.000000000 -2.491783071     0.171574596  0.083037231  0.000000000
    -2.539037429  5.246252968 -2.491783071     0.000000000  0.190612234  0.000000000
     0.000000000  0.000000000  6.338680000     0.067447272  0.107573676  0.157761553

  length of vectors
     6.338680000  6.338680000  6.338680000     0.190612234  0.190612234  0.202509105


 
 k-points in units of 2pi/SCALE and weight: EA                                      
   0.00000000  0.00000000  0.00000000       0.003
   0.02451066  0.01186246  0.00000000       0.023
   0.04902131  0.02372492  0.00000000       0.023
   0.07353197  0.03558738  0.00000000       0.023
   0.02451066  0.03909278  0.00000000       0.023
   0.04902131  0.05095524  0.00000000       0.047
   0.07353197  0.06281770  0.00000000       0.047
  -0.07353197 -0.00835707  0.00000000       0.047
  -0.04902131  0.00350540  0.00000000       0.047
  -0.02451066  0.01536786  0.00000000       0.012
   0.04902131  0.07818556  0.00000000       0.023
   0.07353197  0.09004802  0.00000000       0.047
  -0.07353197  0.01887325  0.00000000       0.047
  -0.04902131  0.03073572  0.00000000       0.012
   0.07353197  0.11727834  0.00000000       0.023
  -0.07353197  0.04610357  0.00000000       0.012
   0.03414598  0.05446045  0.02253736       0.023
   0.05865664  0.06632291  0.02253736       0.047
  -0.01487533  0.03073553  0.02253736       0.012
   0.05865664  0.09355323  0.02253736       0.023
   0.08316729  0.10541569  0.02253736       0.023
  -0.03938599  0.04610338  0.02253736       0.023
  -0.01487533  0.05796584  0.02253736       0.023
  -0.06389665  0.06147124  0.02253736       0.023
  -0.03938599  0.07333370  0.02253736       0.047
  -0.01487533  0.08519616  0.02253736       0.023
  -0.06389665 -0.10191067  0.02253736       0.023
  -0.03938599 -0.09004821  0.02253736       0.047
  -0.01487533 -0.07818575  0.02253736       0.023
  -0.03938599 -0.06281789  0.02253736       0.023
  -0.01487533 -0.05095543  0.02253736       0.023
  -0.01487533 -0.02372511  0.02253736       0.006
  -0.02975066  0.06147105  0.04507473       0.012
  -0.05426132  0.07683891  0.04507473       0.023
  -0.02975066  0.08870137  0.04507473       0.023
  -0.05426132 -0.08654301  0.04507473       0.023
  -0.02975066 -0.07468054  0.04507473       0.023
  -0.02975066 -0.04745023  0.04507473       0.006
  -0.04462600  0.09220658  0.06761209       0.012
  -0.04462600 -0.07117534  0.06761209       0.006
 
 k-points in reciprocal lattice and weights: EA                                      
   0.00000000  0.00000000  0.00000000       0.003
   0.14285714  0.00000000  0.00000000       0.023
   0.28571429  0.00000000  0.00000000       0.023
   0.42857143  0.00000000  0.00000000       0.023
   0.14285714  0.14285714  0.00000000       0.023
   0.28571429  0.14285714  0.00000000       0.047
   0.42857143  0.14285714  0.00000000       0.047
  -0.42857143  0.14285714  0.00000000       0.047
  -0.28571429  0.14285714  0.00000000       0.047
  -0.14285714  0.14285714  0.00000000       0.012
   0.28571429  0.28571429  0.00000000       0.023
   0.42857143  0.28571429  0.00000000       0.047
  -0.42857143  0.28571429  0.00000000       0.047
  -0.28571429  0.28571429  0.00000000       0.012
   0.42857143  0.42857143  0.00000000       0.023
  -0.42857143  0.42857143  0.00000000       0.012
   0.14285714  0.14285714  0.14285714       0.023
   0.28571429  0.14285714  0.14285714       0.047
  -0.14285714  0.14285714  0.14285714       0.012
   0.28571429  0.28571429  0.14285714       0.023
   0.42857143  0.28571429  0.14285714       0.023
  -0.28571429  0.28571429  0.14285714       0.023
  -0.14285714  0.28571429  0.14285714       0.023
  -0.42857143  0.42857143  0.14285714       0.023
  -0.28571429  0.42857143  0.14285714       0.047
  -0.14285714  0.42857143  0.14285714       0.023
  -0.42857143 -0.42857143  0.14285714       0.023
  -0.28571429 -0.42857143  0.14285714       0.047
  -0.14285714 -0.42857143  0.14285714       0.023
  -0.28571429 -0.28571429  0.14285714       0.023
  -0.14285714 -0.28571429  0.14285714       0.023
  -0.14285714 -0.14285714  0.14285714       0.006
  -0.28571429  0.28571429  0.28571429       0.012
  -0.42857143  0.42857143  0.28571429       0.023
  -0.28571429  0.42857143  0.28571429       0.023
  -0.42857143 -0.42857143  0.28571429       0.023
  -0.28571429 -0.42857143  0.28571429       0.023
  -0.28571429 -0.28571429  0.28571429       0.006
  -0.42857143  0.42857143  0.42857143       0.012
  -0.42857143 -0.42857143  0.42857143       0.006
 
 position of ions in fractional coordinates (direct lattice) 
   0.53715000  0.24869000  0.78584000
   0.46285000  0.75131000  0.21416000
   0.24869000  0.46285000  0.71154000
   0.75131000  0.53715000  0.28846000
   0.96285000  0.74869000  0.71154000
   0.03715000  0.25131000  0.28846000
   0.25131000  0.96285000  0.21416000
   0.74869000  0.03715000  0.78584000
   0.25000000  0.25000000  0.00000000
   0.25000000  0.75000000  0.50000000
   0.75000000  0.75000000  0.00000000
   0.75000000  0.25000000  0.50000000
   0.50000000  0.50000000  0.00000000
   0.00000000  0.00000000  0.00000000
 
 position of ions in cartesian coordinates  (Angst):
   2.49927501  1.30469065  3.02304548
   0.79005622  3.94156232 -1.66793162
   0.27426353  2.42822819  2.73722104
   3.01506771  2.81802478 -1.38210718
   3.71089283  3.92781713  0.24543797
  -0.42156160  1.31843583  1.10967589
  -0.97998486  5.05135467 -1.66793162
   4.26931609  0.19489830  3.02304548
   0.82233281  1.31156324 -1.24589154
  -0.44718591  3.93468973  0.67755693
   2.46699843  3.93468973 -3.73767461
   3.73651714  1.31156324  0.67755693
   1.64466562  2.62312648 -2.49178307
   0.00000000  0.00000000  0.00000000
 


--------------------------------------------------------------------------------------------------------


 k-point   1 :   0.0000 0.0000 0.0000  plane waves:    6491
 k-point   2 :   0.1429 0.0000 0.0000  plane waves:    6464
 k-point   3 :   0.2857 0.0000 0.0000  plane waves:    6469
 k-point   4 :   0.4286 0.0000 0.0000  plane waves:    6470
 k-point   5 :   0.1429 0.1429 0.0000  plane waves:    6481
 k-point   6 :   0.2857 0.1429 0.0000  plane waves:    6465
 k-point   7 :   0.4286 0.1429 0.0000  plane waves:    6473
 k-point   8 :  -0.4286 0.1429 0.0000  plane waves:    6478
 k-point   9 :  -0.2857 0.1429 0.0000  plane waves:    6467
 k-point  10 :  -0.1429 0.1429 0.0000  plane waves:    6464
 k-point  11 :   0.2857 0.2857 0.0000  plane waves:    6469
 k-point  12 :   0.4286 0.2857 0.0000  plane waves:    6470
 k-point  13 :  -0.4286 0.2857 0.0000  plane waves:    6468
 k-point  14 :  -0.2857 0.2857 0.0000  plane waves:    6464
 k-point  15 :   0.4286 0.4286 0.0000  plane waves:    6488
 k-point  16 :  -0.4286 0.4286 0.0000  plane waves:    6476
 k-point  17 :   0.1429 0.1429 0.1429  plane waves:    6474
 k-point  18 :   0.2857 0.1429 0.1429  plane waves:    6480
 k-point  19 :  -0.1429 0.1429 0.1429  plane waves:    6462
 k-point  20 :   0.2857 0.2857 0.1429  plane waves:    6463
 k-point  21 :   0.4286 0.2857 0.1429  plane waves:    6474
 k-point  22 :  -0.2857 0.2857 0.1429  plane waves:    6464
 k-point  23 :  -0.1429 0.2857 0.1429  plane waves:    6467
 k-point  24 :  -0.4286 0.4286 0.1429  plane waves:    6472
 k-point  25 :  -0.2857 0.4286 0.1429  plane waves:    6457
 k-point  26 :  -0.1429 0.4286 0.1429  plane waves:    6476
 k-point  27 :  -0.4286-0.4286 0.1429  plane waves:    6472
 k-point  28 :  -0.2857-0.4286 0.1429  plane waves:    6465
 k-point  29 :  -0.1429-0.4286 0.1429  plane waves:    6467
 k-point  30 :  -0.2857-0.2857 0.1429  plane waves:    6470
 k-point  31 :  -0.1429-0.2857 0.1429  plane waves:    6475
 k-point  32 :  -0.1429-0.1429 0.1429  plane waves:    6472
 k-point  33 :  -0.2857 0.2857 0.2857  plane waves:    6454
 k-point  34 :  -0.4286 0.4286 0.2857  plane waves:    6473
 k-point  35 :  -0.2857 0.4286 0.2857  plane waves:    6451
 k-point  36 :  -0.4286-0.4286 0.2857  plane waves:    6450
 k-point  37 :  -0.2857-0.4286 0.2857  plane waves:    6451
 k-point  38 :  -0.2857-0.2857 0.2857  plane waves:    6460
 k-point  39 :  -0.4286 0.4286 0.4286  plane waves:    6432
 k-point  40 :  -0.4286-0.4286 0.4286  plane waves:    6404

 maximum and minimum number of plane-waves per node :      3255     3196

 maximum number of plane-waves:      6491
 maximum index in each direction: 
   IXMAX=   13   IYMAX=   13   IZMAX=   12
   IXMIN=  -13   IYMIN=  -13   IZMIN=  -13


 parallel 3D FFT for wavefunctions:
    minimum data exchange during FFTs selected (reduces bandwidth)
 parallel 3D FFT for charge:
    minimum data exchange during FFTs selected (reduces bandwidth)


 total amount of memory used by VASP MPI-rank0   175696. kBytes
=======================================================================

   base      :      30000. kBytes
   nonl-proj :      56923. kBytes
   fftplans  :      17767. kBytes
   grid      :      13358. kBytes
   one-center:        108. kBytes
   wavefun   :      57540. kBytes
 
     INWAV:  cpu time    0.0000: real time    0.0001
 Broyden mixing: mesh for mixing (old mesh)
   NGX = 25   NGY = 25   NGZ = 25
  (NGX  =108   NGY  =108   NGZ  =108)
  gives a total of  15625 points

 initial charge density was supplied:
 charge density of overlapping atoms calculated
 number of electron      88.0000000 magnetization 
 keeping initial charge density in first step


--------------------------------------------------------------------------------------------------------


 Maximum index for augmentation-charges        23006 (set IRDMAX)


--------------------------------------------------------------------------------------------------------


 First call to EWALD:  gamma=   0.306
 Maximum number of real-space cells 3x 3x 3
 Maximum number of reciprocal cells 3x 3x 3

    FEWALD:  cpu time    0.0038: real time    0.0038


--------------------------------------- Iteration      1(   1)  ---------------------------------------


    POTLOK:  cpu time    0.1634: real time    0.1647
    SETDIJ:  cpu time    0.6252: real time    0.6298
    TRIAL :  cpu time    9.3781: real time    9.4728
    CORREC:  cpu time    0.0076: real time    0.0076
    --------------------------------------------
      LOOP:  cpu time   10.2093: real time   10.3131

 eigenvalue-minimisations  :  4752
 total energy-change (2. order) : 0.7130948E+03  (-0.5619909E+04)
 number of electron      88.0000000 magnetization 
 augmentation part       88.0000000 magnetization 

 Free energy of the ion-electron system (eV)
  ---------------------------------------------------
  alpha Z        PSCENC =       329.99953107
  Ewald energy   TEWEN  =     -6000.67460121
  -Hartree energ DENC   =     -2094.22148560
  -exchange      EXHF   =         0.00000000
  -V(xc)+E(xc)   XCENC  =       359.92893051
  PAW double counting   =      6445.14197187    -6413.54546859
  entropy T*S    EENTRO =        -0.00090420
  eigenvalues    EBANDS =      -138.15315664
  atomic energy  EATOM  =      8224.62000819
  ---------------------------------------------------
  free energy    TOTEN  =       713.09482541 eV

  energy without entropy =      713.09572960  energy(sigma->0) =      713.09527751


--------------------------------------------------------------------------------------------------------




--------------------------------------- Iteration      1(   2)  ---------------------------------------


    TRIAL :  cpu time   10.1546: real time   10.2583
    CORREC:  cpu time    0.0007: real time    0.0007
    --------------------------------------------
      LOOP:  cpu time   10.1568: real time   10.2623

 eigenvalue-minimisations  :  5028
 total energy-change (2. order) :-0.8637632E+03  (-0.8481428E+03)
 number of electron      88.0000000 magnetization 
 augmentation part       88.0000000 magnetization 

 Free energy of the ion-electron system (eV)
  ---------------------------------------------------
  alpha Z        PSCENC =       329.99953107
  Ewald energy   TEWEN  =     -6000.67460121
  -Hartree energ DENC   =     -2094.22148560
  -exchange      EXHF   =         0.00000000
  -V(xc)+E(xc)   XCENC  =       359.92893051
  PAW double counting   =      6445.14197187    -6413.54546859
  entropy T*S    EENTRO =        -0.00194696
  eigenvalues    EBANDS =     -1001.91528761
  atomic energy  EATOM  =      8224.62000819
  ---------------------------------------------------
  free energy    TOTEN  =      -150.66834833 eV

  energy without entropy =     -150.66640137  energy(sigma->0) =     -150.66737485


--------------------------------------------------------------------------------------------------------




--------------------------------------- Iteration      1(   3)  ---------------------------------------


    TRIAL :  cpu time   11.3656: real time   11.4763
    CORREC:  cpu time    0.0007: real time    0.0007
    --------------------------------------------
      LOOP:  cpu time   11.3687: real time   11.4797

 eigenvalue-minimisations  :  5964
 total energy-change (2. order) :-0.4348083E+02  (-0.4222674E+02)
 number of electron      88.0000000 magnetization 
 augmentation part       88.0000000 magnetization 

 Free energy of the ion-electron system (eV)
  ---------------------------------------------------
  alpha Z        PSCENC =       329.99953107
  Ewald energy   TEWEN  =     -6000.67460121
  -Hartree energ DENC   =     -2094.22148560
  -exchange      EXHF   =         0.00000000
  -V(xc)+E(xc)   XCENC  =       359.92893051
  PAW double counting   =      6445.14197187    -6413.54546859
  entropy T*S    EENTRO =        -0.00111895
  eigenvalues    EBANDS =     -1045.39694193
  atomic energy  EATOM  =      8224.62000819
  ---------------------------------------------------
  free energy    TOTEN  =      -194.14917464 eV

  energy without entropy =     -194.14805569  energy(sigma->0) =     -194.14861516


--------------------------------------------------------------------------------------------------------




--------------------------------------- Iteration      1(   4)  ---------------------------------------


    TRIAL :  cpu time   10.6924: real time   10.8026
    CORREC:  cpu time    0.0007: real time    0.0007
    --------------------------------------------
      LOOP:  cpu time   10.6938: real time   10.8064

 eigenvalue-minimisations  :  5580
 total energy-change (2. order) :-0.1178458E+01  (-0.1156908E+01)
 number of electron      88.0000000 magnetization 
 augmentation part       88.0000000 magnetization 

 Free energy of the ion-electron system (eV)
  ---------------------------------------------------
  alpha Z        PSCENC =       329.99953107
  Ewald energy   TEWEN  =     -6000.67460121
  -Hartree energ DENC   =     -2094.22148560
  -exchange      EXHF   =         0.00000000
  -V(xc)+E(xc)   XCENC  =       359.92893051
  PAW double counting   =      6445.14197187    -6413.54546859
  entropy T*S    EENTRO =        -0.00177100
  eigenvalues    EBANDS =     -1046.57474828
  atomic energy  EATOM  =      8224.62000819
  ---------------------------------------------------
  free energy    TOTEN  =      -195.32763303 eV

  energy without entropy =     -195.32586204  energy(sigma->0) =     -195.32674754


--------------------------------------------------------------------------------------------------------




--------------------------------------- Iteration      1(   5)  ---------------------------------------


    TRIAL :  cpu time   11.3997: real time   11.5133
    CORREC:  cpu time    0.0007: real time    0.0007
    CHARGE:  cpu time    0.9830: real time    0.9920
    --------------------------------------------
      LOOP:  cpu time   12.3841: real time   12.5089

 eigenvalue-minimisations  :  5814
 total energy-change (2. order) :-0.3352881E-01  (-0.3320777E-01)
 number of electron      87.9999999 magnetization 
 augmentation part        6.8220481 magnetization 

 Free energy of the ion-electron system (eV)
  ---------------------------------------------------
  alpha Z        PSCENC =       329.99953107
  Ewald energy   TEWEN  =     -6000.67460121
  -Hartree energ DENC   =     -2094.22148560
  -exchange      EXHF   =         0.00000000
  -V(xc)+E(xc)   XCENC  =       359.92893051
  PAW double counting   =      6445.14197187    -6413.54546859
  entropy T*S    EENTRO =        -0.00187210
  eigenvalues    EBANDS =     -1046.60817598
  atomic energy  EATOM  =      8224.62000819
  ---------------------------------------------------
  free energy    TOTEN  =      -195.36116184 eV

  energy without entropy =     -195.35928974  energy(sigma->0) =     -195.36022579


--------------------------------------------------------------------------------------------------------




--------------------------------------- Iteration      1(   6)  ---------------------------------------


    POTLOK:  cpu time    0.1749: real time    0.1761
    SETDIJ:  cpu time    0.5988: real time    0.6034
    TRIAL :  cpu time    7.2984: real time    7.3915
    CORREC:  cpu time    3.8478: real time    3.8807
    CHARGE:  cpu time    1.0384: real time    1.0477
    --------------------------------------------
      LOOP:  cpu time   12.9702: real time   13.1124

 eigenvalue-minimisations  :     0
 total energy-change (2. order) : 0.1330567E+03  (-0.6260881E+02)
 number of electron      88.0000003 magnetization 
 augmentation part        9.4250347 magnetization 

 Free energy of the ion-electron system (eV)
  ---------------------------------------------------
  alpha Z        PSCENC =       329.99953107
  Ewald energy   TEWEN  =     -6000.67460121
  -Hartree energ DENC   =     -1647.33449586
  -exchange      EXHF   =         0.00000000
  -V(xc)+E(xc)   XCENC  =       353.82368742
  PAW double counting   =     12357.98228850   -12364.96106571
  entropy T*S    EENTRO =        -0.00100522
  eigenvalues    EBANDS =     -1315.75791067
  atomic energy  EATOM  =      8224.62000819
  ---------------------------------------------------
  free energy    TOTEN  =       -62.30443037 eV

  energy without entropy =      -62.30342515  energy(sigma->0) =      -62.30392776


--------------------------------------------------------------------------------------------------------




--------------------------------------- Iteration      1(   7)  ---------------------------------------


    POTLOK:  cpu time    0.1492: real time    0.1504
    SETDIJ:  cpu time    0.6364: real time    0.6419
    TRIAL :  cpu time    8.4036: real time    8.4790
    CORREC:  cpu time    3.5582: real time    3.5900
    CHARGE:  cpu time    1.0312: real time    1.0406
    --------------------------------------------
      LOOP:  cpu time   13.7851: real time   13.9093

 eigenvalue-minimisations  :     0
 total energy-change (2. order) :-0.7256796E+02  (-0.9275802E+01)
 number of electron      88.0000003 magnetization 
 augmentation part        9.4323100 magnetization 

 Free energy of the ion-electron system (eV)
  ---------------------------------------------------
  alpha Z        PSCENC =       329.99953107
  Ewald energy   TEWEN  =     -6000.67460121
  -Hartree energ DENC   =     -1923.05601351
  -exchange      EXHF   =         0.00000000
  -V(xc)+E(xc)   XCENC  =       364.50241949
  PAW double counting   =     12769.87708652   -12759.05695565
  entropy T*S    EENTRO =        -0.00232484
  eigenvalues    EBANDS =     -1141.08285726
  atomic energy  EATOM  =      8224.62000819
  ---------------------------------------------------
  free energy    TOTEN  =      -134.87238758 eV

  energy without entropy =     -134.87006274  energy(sigma->0) =     -134.87122516


--------------------------------------------------------------------------------------------------------




--------------------------------------- Iteration      1(   8)  ---------------------------------------


    POTLOK:  cpu time    0.1431: real time    0.1441
    SETDIJ:  cpu time    0.6342: real time    0.6392
    TRIAL :  cpu time    8.0669: real time    8.1433
    CORREC:  cpu time    3.6297: real time    3.6617
    CHARGE:  cpu time    1.1364: real time    1.1466
    --------------------------------------------
      LOOP:  cpu time   13.6260: real time   13.7516

 eigenvalue-minimisations  :     0
 total energy-change (2. order) :-0.9458329E+01  (-0.2659062E+01)
 number of electron      88.0000004 magnetization 
 augmentation part        9.1703394 magnetization 

 Free energy of the ion-electron system (eV)
  ---------------------------------------------------
  alpha Z        PSCENC =       329.99953107
  Ewald energy   TEWEN  =     -6000.67460121
  -Hartree energ DENC   =     -2006.20198310
  -exchange      EXHF   =         0.00000000
  -V(xc)+E(xc)   XCENC  =       366.97326603
  PAW double counting   =     13146.51060568   -13129.01825234
  entropy T*S    EENTRO =        -0.00253752
  eigenvalues    EBANDS =     -1076.53696586
  atomic energy  EATOM  =      8224.62000819
  ---------------------------------------------------
  free energy    TOTEN  =      -144.33071638 eV

  energy without entropy =     -144.32817886  energy(sigma->0) =     -144.32944762


--------------------------------------------------------------------------------------------------------




--------------------------------------- Iteration      1(   9)  ---------------------------------------


    POTLOK:  cpu time    0.1455: real time    0.1466
    SETDIJ:  cpu time    0.6879: real time    0.6930
    TRIAL :  cpu time    7.3396: real time    7.4127
    CORREC:  cpu time    3.3044: real time    3.3330
    CHARGE:  cpu time    0.9966: real time    1.0054
    --------------------------------------------
      LOOP:  cpu time   12.4772: real time   12.5943

 eigenvalue-minimisations  :     0
 total energy-change (2. order) :-0.2696546E+01  (-0.1481750E+01)
 number of electron      88.0000004 magnetization 
 augmentation part        9.0458312 magnetization 

 Free energy of the ion-electron system (eV)
  ---------------------------------------------------
  alpha Z        PSCENC =       329.99953107
  Ewald energy   TEWEN  =     -6000.67460121
  -Hartree energ DENC   =     -2003.40847691
  -exchange      EXHF   =         0.00000000
  -V(xc)+E(xc)   XCENC  =       366.45654521
  PAW double counting   =     13299.13974892   -13280.35023754
  entropy T*S    EENTRO =        -0.00288496
  eigenvalues    EBANDS =     -1082.80724236
  atomic energy  EATOM  =      8224.62000819
  ---------------------------------------------------
  free energy    TOTEN  =      -147.02726216 eV

  energy without entropy =     -147.02437721  energy(sigma->0) =     -147.02581969


--------------------------------------------------------------------------------------------------------




--------------------------------------- Iteration      1(  10)  ---------------------------------------


    POTLOK:  cpu time    0.1448: real time    0.1457
    SETDIJ:  cpu time    0.6373: real time    0.6426
    TRIAL :  cpu time    7.9398: real time    8.0153
    CORREC:  cpu time    4.0208: real time    4.0548
    CHARGE:  cpu time    1.1082: real time    1.1176
    --------------------------------------------
      LOOP:  cpu time   13.8650: real time   13.9909

 eigenvalue-minimisations  :     0
 total energy-change (2. order) :-0.1482828E+01  (-0.6019449E+00)
 number of electron      88.0000004 magnetization 
 augmentation part        9.1148258 magnetization 

 Free energy of the ion-electron system (eV)
  ---------------------------------------------------
  alpha Z        PSCENC =       329.99953107
  Ewald energy   TEWEN  =     -6000.67460121
  -Hartree energ DENC   =     -1991.09035649
  -exchange      EXHF   =         0.00000000
  -V(xc)+E(xc)   XCENC  =       366.15944128
  PAW double counting   =     13454.45118798   -13434.15608425
  entropy T*S    EENTRO =        -0.00214028
  eigenvalues    EBANDS =     -1097.81633169
  atomic energy  EATOM  =      8224.62000819
  ---------------------------------------------------
  free energy    TOTEN  =      -148.51009007 eV

  energy without entropy =     -148.50794980  energy(sigma->0) =     -148.50901993


--------------------------------------------------------------------------------------------------------




--------------------------------------- Iteration      1(  11)  ---------------------------------------


    POTLOK:  cpu time    0.2142: real time    0.2159
    SETDIJ:  cpu time    0.6407: real time    0.6461
    TRIAL :  cpu time    8.4337: real time    8.5100
    CORREC:  cpu time    3.2622: real time    3.2911
    CHARGE:  cpu time    1.0561: real time    1.0648
    --------------------------------------------
      LOOP:  cpu time   13.6196: real time   13.7412

 eigenvalue-minimisations  :     0
 total energy-change (2. order) :-0.5987509E+00  (-0.3353537E+00)
 number of electron      88.0000004 magnetization 
 augmentation part        9.1837651 magnetization 

 Free energy of the ion-electron system (eV)
  ---------------------------------------------------
  alpha Z        PSCENC =       329.99953107
  Ewald energy   TEWEN  =     -6000.67460121
  -Hartree energ DENC   =     -2000.33369681
  -exchange      EXHF   =         0.00000000
  -V(xc)+E(xc)   XCENC  =       366.85300864
  PAW double counting   =     13558.84482737   -13536.83318850
  entropy T*S    EENTRO =        -0.00209857
  eigenvalues    EBANDS =     -1091.58258950
  atomic energy  EATOM  =      8224.62000819
  ---------------------------------------------------
  free energy    TOTEN  =      -149.10884102 eV

  energy without entropy =     -149.10674245  energy(sigma->0) =     -149.10779173


--------------------------------------------------------------------------------------------------------




--------------------------------------- Iteration      1(  12)  ---------------------------------------


    POTLOK:  cpu time    0.1446: real time    0.1455
    SETDIJ:  cpu time    0.6622: real time    0.6667
    TRIAL :  cpu time    7.5023: real time    7.5750
    CORREC:  cpu time    3.3921: real time    3.4218
    CHARGE:  cpu time    0.9322: real time    0.9411
    --------------------------------------------
      LOOP:  cpu time   12.6576: real time   12.7752

 eigenvalue-minimisations  :     0
 total energy-change (2. order) :-0.3366160E+00  (-0.2082775E+00)
 number of electron      88.0000004 magnetization 
 augmentation part        9.1984406 magnetization 

 Free energy of the ion-electron system (eV)
  ---------------------------------------------------
  alpha Z        PSCENC =       329.99953107
  Ewald energy   TEWEN  =     -6000.67460121
  -Hartree energ DENC   =     -2012.32718747
  -exchange      EXHF   =         0.00000000
  -V(xc)+E(xc)   XCENC  =       367.47133162
  PAW double counting   =     13605.51590723   -13582.49655696
  entropy T*S    EENTRO =        -0.00211484
  eigenvalues    EBANDS =     -1081.55179089
  atomic energy  EATOM  =      8224.62000819
  ---------------------------------------------------
  free energy    TOTEN  =      -149.44545698 eV

  energy without entropy =     -149.44334214  energy(sigma->0) =     -149.44439956


--------------------------------------------------------------------------------------------------------




--------------------------------------- Iteration      1(  13)  ---------------------------------------


    POTLOK:  cpu time    0.1472: real time    0.1483
    SETDIJ:  cpu time    0.6304: real time    0.6360
    TRIAL :  cpu time    7.8822: real time    7.9572
    CORREC:  cpu time    3.5840: real time    3.6149
    CHARGE:  cpu time    1.0547: real time    1.0631
    --------------------------------------------
      LOOP:  cpu time   13.3096: real time   13.4316

 eigenvalue-minimisations  :     0
 total energy-change (2. order) :-0.2102965E+00  (-0.1519340E+00)
 number of electron      88.0000004 magnetization 
 augmentation part        9.1937430 magnetization 

 Free energy of the ion-electron system (eV)
  ---------------------------------------------------
  alpha Z        PSCENC =       329.99953107
  Ewald energy   TEWEN  =     -6000.67460121
  -Hartree energ DENC   =     -2015.90053902
  -exchange      EXHF   =         0.00000000
  -V(xc)+E(xc)   XCENC  =       367.59857081
  PAW double counting   =     13617.20351796   -13594.10943700
  entropy T*S    EENTRO =        -0.00304132
  eigenvalues    EBANDS =     -1078.39068942
  atomic energy  EATOM  =      8224.62000819
  ---------------------------------------------------
  free energy    TOTEN  =      -149.65575347 eV

  energy without entropy =     -149.65271214  energy(sigma->0) =     -149.65423281


--------------------------------------------------------------------------------------------------------




--------------------------------------- Iteration      1(  14)  ---------------------------------------


    POTLOK:  cpu time    0.1457: real time    0.1467
    SETDIJ:  cpu time    0.6304: real time    0.6348
    TRIAL :  cpu time    7.5776: real time    7.6520
    CORREC:  cpu time    3.7594: real time    3.7918
    CHARGE:  cpu time    1.0184: real time    1.0273
    --------------------------------------------
      LOOP:  cpu time   13.1332: real time   13.2543

 eigenvalue-minimisations  :     0
 total energy-change (2. order) :-0.1516013E+00  (-0.1378102E+00)
 number of electron      88.0000005 magnetization 
 augmentation part        9.1559670 magnetization 

 Free energy of the ion-electron system (eV)
  ---------------------------------------------------
  alpha Z        PSCENC =       329.99953107
  Ewald energy   TEWEN  =     -6000.67460121
  -Hartree energ DENC   =     -2013.77543031
  -exchange      EXHF   =         0.00000000
  -V(xc)+E(xc)   XCENC  =       367.50544271
  PAW double counting   =     13624.11998301   -13601.18371678
  entropy T*S    EENTRO =        -0.00263073
  eigenvalues    EBANDS =     -1080.41553015
  atomic energy  EATOM  =      8224.62000819
  ---------------------------------------------------
  free energy    TOTEN  =      -149.80735478 eV

  energy without entropy =     -149.80472405  energy(sigma->0) =     -149.80603942


--------------------------------------------------------------------------------------------------------




--------------------------------------- Iteration      1(  15)  ---------------------------------------


    POTLOK:  cpu time    0.1456: real time    0.1467
    SETDIJ:  cpu time    0.6336: real time    0.6387
    TRIAL :  cpu time    7.7954: real time    7.8679
    CORREC:  cpu time    3.5981: real time    3.6286
    CHARGE:  cpu time    1.0648: real time    1.0739
    --------------------------------------------
      LOOP:  cpu time   13.2390: real time   13.3575

 eigenvalue-minimisations  :     0
 total energy-change (2. order) :-0.1372012E+00  (-0.8943452E-01)
 number of electron      88.0000005 magnetization 
 augmentation part        9.1722009 magnetization 

 Free energy of the ion-electron system (eV)
  ---------------------------------------------------
  alpha Z        PSCENC =       329.99953107
  Ewald energy   TEWEN  =     -6000.67460121
  -Hartree energ DENC   =     -2006.86560535
  -exchange      EXHF   =         0.00000000
  -V(xc)+E(xc)   XCENC  =       367.16813708
  PAW double counting   =     13610.84494662   -13588.44978495
  entropy T*S    EENTRO =        -0.00254318
  eigenvalues    EBANDS =     -1086.58455669
  atomic energy  EATOM  =      8224.62000819
  ---------------------------------------------------
  free energy    TOTEN  =      -149.94455598 eV

  energy without entropy =     -149.94201280  energy(sigma->0) =     -149.94328439


--------------------------------------------------------------------------------------------------------




--------------------------------------- Iteration      1(  16)  ---------------------------------------


    POTLOK:  cpu time    0.1440: real time    0.1451
    SETDIJ:  cpu time    0.6608: real time    0.6662
    TRIAL :  cpu time    7.7539: real time    7.8278
    CORREC:  cpu time    3.5062: real time    3.5368
    CHARGE:  cpu time    1.0063: real time    1.0156
    --------------------------------------------
      LOOP:  cpu time   13.0723: real time   13.1933

 eigenvalue-minimisations  :     0
 total energy-change (2. order) :-0.8903759E-01  (-0.4775445E-01)
 number of electron      88.0000005 magnetization 
 augmentation part        9.1753328 magnetization 

 Free energy of the ion-electron system (eV)
  ---------------------------------------------------
  alpha Z        PSCENC =       329.99953107
  Ewald energy   TEWEN  =     -6000.67460121
  -Hartree energ DENC   =     -2011.96582881
  -exchange      EXHF   =         0.00000000
  -V(xc)+E(xc)   XCENC  =       367.38540399
  PAW double counting   =     13598.40322970   -13575.70810758
  entropy T*S    EENTRO =        -0.00285805
  eigenvalues    EBANDS =     -1082.09068574
  atomic energy  EATOM  =      8224.62000819
  ---------------------------------------------------
  free energy    TOTEN  =      -150.03359357 eV

  energy without entropy =     -150.03073553  energy(sigma->0) =     -150.03216455


--------------------------------------------------------------------------------------------------------




--------------------------------------- Iteration      1(  17)  ---------------------------------------


    POTLOK:  cpu time    0.1554: real time    0.1566
    SETDIJ:  cpu time    0.6827: real time    0.6880
    TRIAL :  cpu time    7.5044: real time    7.5805
    CORREC:  cpu time    3.4048: real time    3.4339
    CHARGE:  cpu time    1.0080: real time    1.0168
    --------------------------------------------
      LOOP:  cpu time   12.7566: real time   12.8775

 eigenvalue-minimisations  :     0
 total energy-change (2. order) :-0.4753127E-01  (-0.1878143E-01)
 number of electron      88.0000005 magnetization 
 augmentation part        9.1660507 magnetization 

 Free energy of the ion-electron system (eV)
  ---------------------------------------------------
  alpha Z        PSCENC =       329.99953107
  Ewald energy   TEWEN  =     -6000.67460121
  -Hartree energ DENC   =     -2013.43218783
  -exchange      EXHF   =         0.00000000
  -V(xc)+E(xc)   XCENC  =       367.50372742
  PAW double counting   =     13570.78470318   -13547.88451528
  entropy T*S    EENTRO =        -0.00256184
  eigenvalues    EBANDS =     -1080.99493233
  atomic energy  EATOM  =      8224.62000819
  ---------------------------------------------------
  free energy    TOTEN  =      -150.08112484 eV

  energy without entropy =     -150.07856300  energy(sigma->0) =     -150.07984392


--------------------------------------------------------------------------------------------------------




--------------------------------------- Iteration      1(  18)  ---------------------------------------


    POTLOK:  cpu time    0.1436: real time    0.1446
    SETDIJ:  cpu time    0.6358: real time    0.6411
    TRIAL :  cpu time    8.5052: real time    8.5833
    CORREC:  cpu time    3.6041: real time    3.6355
    CHARGE:  cpu time    0.9828: real time    0.9922
    --------------------------------------------
      LOOP:  cpu time   13.8735: real time   14.0000

 eigenvalue-minimisations  :     0
 total energy-change (2. order) :-0.1875194E-01  (-0.1244250E-01)
 number of electron      88.0000005 magnetization 
 augmentation part        9.1707595 magnetization 

 Free energy of the ion-electron system (eV)
  ---------------------------------------------------
  alpha Z        PSCENC =       329.99953107
  Ewald energy   TEWEN  =     -6000.67460121
  -Hartree energ DENC   =     -2011.57891012
  -exchange      EXHF   =         0.00000000
  -V(xc)+E(xc)   XCENC  =       367.42252329
  PAW double counting   =     13542.15038190   -13519.32151419
  entropy T*S    EENTRO =        -0.00220304
  eigenvalues    EBANDS =     -1082.71473387
  atomic energy  EATOM  =      8224.62000819
  ---------------------------------------------------
  free energy    TOTEN  =      -150.09987678 eV

  energy without entropy =     -150.09767374  energy(sigma->0) =     -150.09877526


--------------------------------------------------------------------------------------------------------




--------------------------------------- Iteration      1(  19)  ---------------------------------------


    POTLOK:  cpu time    0.2127: real time    0.2142
    SETDIJ:  cpu time    0.6143: real time    0.6192
    TRIAL :  cpu time    7.6867: real time    7.7607
    CORREC:  cpu time    3.3373: real time    3.3674
    CHARGE:  cpu time    0.9980: real time    1.0067
    --------------------------------------------
      LOOP:  cpu time   12.8543: real time   12.9739

 eigenvalue-minimisations  :     0
 total energy-change (2. order) :-0.1242040E-01  (-0.7939982E-02)
 number of electron      88.0000005 magnetization 
 augmentation part        9.1758463 magnetization 

 Free energy of the ion-electron system (eV)
  ---------------------------------------------------
  alpha Z        PSCENC =       329.99953107
  Ewald energy   TEWEN  =     -6000.67460121
  -Hartree energ DENC   =     -2011.30940848
  -exchange      EXHF   =         0.00000000
  -V(xc)+E(xc)   XCENC  =       367.40184660
  PAW double counting   =     13525.18154444   -13502.31904258
  entropy T*S    EENTRO =        -0.00199387
  eigenvalues    EBANDS =     -1083.00997217
  atomic energy  EATOM  =      8224.62000819
  ---------------------------------------------------
  free energy    TOTEN  =      -150.11229718 eV

  energy without entropy =     -150.11030330  energy(sigma->0) =     -150.11130024


--------------------------------------------------------------------------------------------------------




--------------------------------------- Iteration      1(  20)  ---------------------------------------


    POTLOK:  cpu time    0.1454: real time    0.1464
    SETDIJ:  cpu time    0.6823: real time    0.6876
    TRIAL :  cpu time    7.6826: real time    7.7584
    CORREC:  cpu time    4.0729: real time    4.1065
    CHARGE:  cpu time    1.0333: real time    1.0424
    --------------------------------------------
      LOOP:  cpu time   13.6371: real time   13.7632

 eigenvalue-minimisations  :     0
 total energy-change (2. order) :-0.7932380E-02  (-0.5447379E-02)
 number of electron      88.0000005 magnetization 
 augmentation part        9.1740393 magnetization 

 Free energy of the ion-electron system (eV)
  ---------------------------------------------------
  alpha Z        PSCENC =       329.99953107
  Ewald energy   TEWEN  =     -6000.67460121
  -Hartree energ DENC   =     -2011.90945248
  -exchange      EXHF   =         0.00000000
  -V(xc)+E(xc)   XCENC  =       367.40195446
  PAW double counting   =     13523.53443345   -13500.68431099
  entropy T*S    EENTRO =        -0.00202532
  eigenvalues    EBANDS =     -1082.40579817
  atomic energy  EATOM  =      8224.62000819
  ---------------------------------------------------
  free energy    TOTEN  =      -150.12022956 eV

  energy without entropy =     -150.11820424  energy(sigma->0) =     -150.11921690


--------------------------------------------------------------------------------------------------------




--------------------------------------- Iteration      1(  21)  ---------------------------------------


    POTLOK:  cpu time    0.1450: real time    0.1460
    SETDIJ:  cpu time    0.6405: real time    0.6454
    TRIAL :  cpu time    8.2636: real time    8.3389
    CORREC:  cpu time    3.3243: real time    3.3537
    CHARGE:  cpu time    0.9963: real time    1.0054
    --------------------------------------------
      LOOP:  cpu time   13.4253: real time   13.5463

 eigenvalue-minimisations  :     0
 total energy-change (2. order) :-0.5401623E-02  (-0.3002993E-02)
 number of electron      88.0000005 magnetization 
 augmentation part        9.1696047 magnetization 

 Free energy of the ion-electron system (eV)
  ---------------------------------------------------
  alpha Z        PSCENC =       329.99953107
  Ewald energy   TEWEN  =     -6000.67460121
  -Hartree energ DENC   =     -2011.60692199
  -exchange      EXHF   =         0.00000000
  -V(xc)+E(xc)   XCENC  =       367.39707804
  PAW double counting   =     13537.44866938   -13514.67907488
  entropy T*S    EENTRO =        -0.00214135
  eigenvalues    EBANDS =     -1082.62829445
  atomic energy  EATOM  =      8224.62000819
  ---------------------------------------------------
  free energy    TOTEN  =      -150.12563118 eV

  energy without entropy =     -150.12348983  energy(sigma->0) =     -150.12456051


--------------------------------------------------------------------------------------------------------




--------------------------------------- Iteration      1(  22)  ---------------------------------------


    POTLOK:  cpu time    0.1463: real time    0.1474
    SETDIJ:  cpu time    0.6261: real time    0.6312
    TRIAL :  cpu time    7.6166: real time    7.6901
    CORREC:  cpu time    4.0060: real time    4.0408
    CHARGE:  cpu time    0.9893: real time    0.9982
    --------------------------------------------
      LOOP:  cpu time   13.3975: real time   13.5215

 eigenvalue-minimisations  :     0
 total energy-change (2. order) :-0.3008305E-02  (-0.1934575E-02)
 number of electron      88.0000005 magnetization 
 augmentation part        9.1716868 magnetization 

 Free energy of the ion-electron system (eV)
  ---------------------------------------------------
  alpha Z        PSCENC =       329.99953107
  Ewald energy   TEWEN  =     -6000.67460121
  -Hartree energ DENC   =     -2011.13154238
  -exchange      EXHF   =         0.00000000
  -V(xc)+E(xc)   XCENC  =       367.38263250
  PAW double counting   =     13551.54681904   -13528.85385914
  entropy T*S    EENTRO =        -0.00231752
  eigenvalues    EBANDS =     -1083.01548621
  atomic energy  EATOM  =      8224.62000819
  ---------------------------------------------------
  free energy    TOTEN  =      -150.12863949 eV

  energy without entropy =     -150.12632196  energy(sigma->0) =     -150.12748072


--------------------------------------------------------------------------------------------------------




--------------------------------------- Iteration      1(  23)  ---------------------------------------


    POTLOK:  cpu time    0.1409: real time    0.1420
    SETDIJ:  cpu time    0.6365: real time    0.6412
    TRIAL :  cpu time    7.9509: real time    8.0196
    CORREC:  cpu time    3.6222: real time    3.6528
    CHARGE:  cpu time    0.9992: real time    1.0073
    --------------------------------------------
      LOOP:  cpu time   13.3561: real time   13.4704

 eigenvalue-minimisations  :     0
 total energy-change (2. order) :-0.1935131E-02  (-0.1114514E-02)
 number of electron      88.0000005 magnetization 
 augmentation part        9.1723195 magnetization 

 Free energy of the ion-electron system (eV)
  ---------------------------------------------------
  alpha Z        PSCENC =       329.99953107
  Ewald energy   TEWEN  =     -6000.67460121
  -Hartree energ DENC   =     -2011.59352399
  -exchange      EXHF   =         0.00000000
  -V(xc)+E(xc)   XCENC  =       367.40721559
  PAW double counting   =     13563.75220615   -13541.02787584
  entropy T*S    EENTRO =        -0.00242155
  eigenvalues    EBANDS =     -1082.61121706
  atomic energy  EATOM  =      8224.62000819
  ---------------------------------------------------
  free energy    TOTEN  =      -150.13057462 eV

  energy without entropy =     -150.12815306  energy(sigma->0) =     -150.12936384


--------------------------------------------------------------------------------------------------------




--------------------------------------- Iteration      1(  24)  ---------------------------------------


    POTLOK:  cpu time    0.1458: real time    0.1467
    SETDIJ:  cpu time    0.6308: real time    0.6357
    TRIAL :  cpu time    8.0010: real time    8.0778
    CORREC:  cpu time    3.4514: real time    3.4855
    CHARGE:  cpu time    1.0614: real time    1.0729
    --------------------------------------------
      LOOP:  cpu time   13.2934: real time   13.4223

 eigenvalue-minimisations  :     0
 total energy-change (2. order) :-0.1114507E-02  (-0.6808186E-03)
 number of electron      88.0000005 magnetization 
 augmentation part        9.1715298 magnetization 

 Free energy of the ion-electron system (eV)
  ---------------------------------------------------
  alpha Z        PSCENC =       329.99953107
  Ewald energy   TEWEN  =     -6000.67460121
[...]
     19      -3.3230      2.00000
     20      -3.3230      2.00000
     21      -1.7775      2.00000
     22      -1.7775      2.00000
     23      -1.4110      2.00000
     24      -1.2682      2.00000
     25       1.1060      2.00000
     26       1.6582      2.00000
     27       2.1443      2.00000
     28       2.1443      2.00000
     29       2.4344      2.00000
     30       2.7122      2.00000
     31       3.0360      2.00000
     32       3.0360      2.00000
     33       3.3656      2.00000
     34       3.4694      2.00000
     35       3.4937      2.00000
     36       3.8338      2.00000
     37       3.8338      2.00000
     38       4.3724      2.00000
     39       4.3725      2.00000
     40       5.7858      2.00000
     41       5.8097      2.00000
     42       6.1344      2.00000
     43       6.4491      0.57052
     44       6.4491      0.57047
     45       6.4816      0.00417
     46       6.9439      0.00000
     47       6.9628      0.00000
     48       7.1421      0.00000
     49       7.5888      0.00000
     50       7.9529      0.00000
     51       8.1119      0.00000
     52       8.2052      0.00000
     53       8.4919      0.00000
     54       8.8344      0.00000

 k-point    33 :      -0.2857    0.2857    0.2857
  band No.  band energies     occupation 
      1     -56.9972      2.00000
      2     -56.9964      2.00000
      3     -56.7386      2.00000
      4     -56.7314      2.00000
      5     -30.9818      2.00000
      6     -30.8880      2.00000
      7     -30.4111      2.00000
      8     -30.3873      2.00000
      9     -30.2385      2.00000
     10     -30.2353      2.00000
     11     -30.2318      2.00000
     12     -30.2287      2.00000
     13     -29.9795      2.00000
     14     -29.9776      2.00000
     15     -29.9725      2.00000
     16     -29.9707      2.00000
     17      -7.0731      2.00000
     18      -5.7673      2.00000
     19      -3.0942      2.00000
     20      -2.9126      2.00000
     21      -2.8874      2.00000
     22      -2.4890      2.00000
     23      -0.5437      2.00000
     24       0.0637      2.00000
     25       0.3930      2.00000
     26       1.1443      2.00000
     27       1.2102      2.00000
     28       2.4309      2.00000
     29       2.5717      2.00000
     30       2.6230      2.00000
     31       2.7407      2.00000
     32       3.2796      2.00000
     33       3.3477      2.00000
     34       3.7992      2.00000
     35       3.9478      2.00000
     36       4.0139      2.00000
     37       4.3717      2.00000
     38       4.4047      2.00000
     39       4.9455      2.00000
     40       5.7220      2.00000
     41       5.7347      2.00000
     42       5.7933      2.00000
     43       5.8844      2.00000
     44       6.1358      2.00000
     45       6.1496      2.00000
     46       6.5547      0.00000
     47       6.6083      0.00000
     48       6.8358      0.00000
     49       7.2402      0.00000
     50       7.6699      0.00000
     51       8.1466      0.00000
     52       8.2999      0.00000
     53       8.4399      0.00000
     54       8.9358      0.00000

 k-point    34 :      -0.4286    0.4286    0.2857
  band No.  band energies     occupation 
      1     -56.9972      2.00000
      2     -56.9964      2.00000
      3     -56.7387      2.00000
      4     -56.7313      2.00000
      5     -30.9819      2.00000
      6     -30.8879      2.00000
      7     -30.4111      2.00000
      8     -30.3873      2.00000
      9     -30.2377      2.00000
     10     -30.2348      2.00000
     11     -30.2335      2.00000
     12     -30.2306      2.00000
     13     -29.9767      2.00000
     14     -29.9754      2.00000
     15     -29.9736      2.00000
     16     -29.9723      2.00000
     17      -6.9788      2.00000
     18      -5.8661      2.00000
     19      -3.2842      2.00000
     20      -2.9807      2.00000
     21      -2.5556      2.00000
     22      -2.3576      2.00000
     23      -1.0788      2.00000
     24      -0.0547      2.00000
     25       0.4361      2.00000
     26       1.1736      2.00000
     27       1.6189      2.00000
     28       2.3853      2.00000
     29       2.4954      2.00000
     30       2.5280      2.00000
     31       2.6493      2.00000
     32       3.1580      2.00000
     33       3.5491      2.00000
     34       3.8791      2.00000
     35       4.0939      2.00000
     36       4.1221      2.00000
     37       4.3740      2.00000
     38       4.9470      2.00000
     39       5.0318      2.00000
     40       5.4150      2.00000
     41       5.5111      2.00000
     42       5.5600      2.00000
     43       5.6270      2.00000
     44       6.1132      2.00000
     45       6.5112      0.00000
     46       6.5647      0.00000
     47       6.5820      0.00000
     48       6.9569      0.00000
     49       7.3098      0.00000
     50       8.1028      0.00000
     51       8.1253      0.00000
     52       8.2684      0.00000
     53       8.3376      0.00000
     54       8.5974      0.00000

 k-point    35 :      -0.2857    0.4286    0.2857
  band No.  band energies     occupation 
      1     -56.9971      2.00000
      2     -56.9965      2.00000
      3     -56.7383      2.00000
      4     -56.7317      2.00000
      5     -30.9773      2.00000
      6     -30.8926      2.00000
      7     -30.4099      2.00000
      8     -30.3885      2.00000
      9     -30.2390      2.00000
     10     -30.2349      2.00000
     11     -30.2347      2.00000
     12     -30.2306      2.00000
     13     -29.9765      2.00000
     14     -29.9755      2.00000
     15     -29.9721      2.00000
     16     -29.9711      2.00000
     17      -6.9101      2.00000
     18      -5.9793      2.00000
     19      -3.0992      2.00000
     20      -2.8070      2.00000
     21      -2.6932      2.00000
     22      -2.5777      2.00000
     23      -1.1785      2.00000
     24       0.0418      2.00000
     25       0.3087      2.00000
     26       1.3398      2.00000
     27       1.6050      2.00000
     28       2.4458      2.00000
     29       2.5290      2.00000
     30       2.6608      2.00000
     31       2.6906      2.00000
     32       3.2186      2.00000
     33       3.5543      2.00000
     34       3.7226      2.00000
     35       4.0197      2.00000
     36       4.0988      2.00000
     37       4.5197      2.00000
     38       4.7237      2.00000
     39       4.8928      2.00000
     40       5.3914      2.00000
     41       5.4655      2.00000
     42       5.5634      2.00000
     43       5.8958      2.00000
     44       6.0040      2.00000
     45       6.4381      1.16764
     46       6.6125      0.00000
     47       6.7701      0.00000
     48       6.9917      0.00000
     49       7.4934      0.00000
     50       7.8170      0.00000
     51       7.9247      0.00000
     52       8.0420      0.00000
     53       8.4270      0.00000
     54       8.9518      0.00000

 k-point    36 :      -0.4286   -0.4286    0.2857
  band No.  band energies     occupation 
      1     -56.9971      2.00000
      2     -56.9965      2.00000
      3     -56.7383      2.00000
      4     -56.7317      2.00000
      5     -30.9774      2.00000
      6     -30.8926      2.00000
      7     -30.4099      2.00000
      8     -30.3885      2.00000
      9     -30.2381      2.00000
     10     -30.2379      2.00000
     11     -30.2333      2.00000
     12     -30.2332      2.00000
     13     -29.9734      2.00000
     14     -29.9732      2.00000
     15     -29.9726      2.00000
     16     -29.9725      2.00000
     17      -6.8598      2.00000
     18      -6.0309      2.00000
     19      -3.1553      2.00000
     20      -2.7279      2.00000
     21      -2.7207      2.00000
     22      -2.3419      2.00000
     23      -1.5507      2.00000
     24      -0.0544      2.00000
     25       0.1768      2.00000
     26       1.5808      2.00000
     27       1.8270      2.00000
     28       2.4331      2.00000
     29       2.4637      2.00000
     30       2.6301      2.00000
     31       2.7466      2.00000
     32       2.8319      2.00000
     33       3.6534      2.00000
     34       3.6825      2.00000
     35       4.3126      2.00000
     36       4.3406      2.00000
     37       4.6109      2.00000
     38       4.8585      2.00000
     39       5.0431      2.00000
     40       5.1282      2.00000
     41       5.2111      2.00000
     42       5.7162      2.00000
     43       5.7608      2.00000
     44       6.0531      2.00000
     45       6.2534      2.00000
     46       6.6070      0.00000
     47       7.0582      0.00000
     48       7.0762      0.00000
     49       7.4048      0.00000
     50       7.5884      0.00000
     51       7.9752      0.00000
     52       8.2911      0.00000
     53       8.5808      0.00000
     54       8.6846      0.00000

 k-point    37 :      -0.2857   -0.4286    0.2857
  band No.  band energies     occupation 
      1     -56.9970      2.00000
      2     -56.9966      2.00000
      3     -56.7373      2.00000
      4     -56.7327      2.00000
      5     -30.9645      2.00000
      6     -30.9057      2.00000
      7     -30.4066      2.00000
      8     -30.3918      2.00000
      9     -30.2391      2.00000
     10     -30.2378      2.00000
     11     -30.2348      2.00000
     12     -30.2335      2.00000
     13     -29.9729      2.00000
     14     -29.9729      2.00000
     15     -29.9716      2.00000
     16     -29.9716      2.00000
     17      -6.6652      2.00000
     18      -6.2965      2.00000
     19      -3.0446      2.00000
     20      -2.9542      2.00000
     21      -2.4161      2.00000
     22      -2.3891      2.00000
     23      -1.6549      2.00000
     24      -0.3136      2.00000
     25       0.4743      2.00000
     26       1.7950      2.00000
     27       1.8613      2.00000
     28       2.3380      2.00000
     29       2.6505      2.00000
     30       2.6523      2.00000
     31       2.9392      2.00000
     32       2.9731      2.00000
     33       3.3088      2.00000
     34       3.7819      2.00000
     35       3.9119      2.00000
     36       4.3575      2.00000
     37       4.4018      2.00000
     38       4.7171      2.00000
     39       4.8493      2.00000
     40       5.0017      2.00000
     41       5.0989      2.00000
     42       5.5817      2.00000
     43       5.8088      2.00000
     44       6.5337      0.00000
     45       6.7135      0.00000
     46       6.8260      0.00000
     47       6.8500      0.00000
     48       7.0946      0.00000
     49       7.4595      0.00000
     50       7.7160      0.00000
     51       7.7507      0.00000
     52       8.2127      0.00000
     53       8.4040      0.00000
     54       8.6959      0.00000

 k-point    38 :      -0.2857   -0.2857    0.2857
  band No.  band energies     occupation 
      1     -56.9969      2.00000
      2     -56.9968      2.00000
      3     -56.7358      2.00000
      4     -56.7341      2.00000
      5     -30.9458      2.00000
      6     -30.9245      2.00000
      7     -30.4018      2.00000
      8     -30.3966      2.00000
      9     -30.2387      2.00000
     10     -30.2387      2.00000
     11     -30.2352      2.00000
     12     -30.2351      2.00000
     13     -29.9721      2.00000
     14     -29.9721      2.00000
     15     -29.9710      2.00000
     16     -29.9710      2.00000
     17      -6.6322      2.00000
     18      -6.3654      2.00000
     19      -3.1002      2.00000
     20      -3.1002      2.00000
     21      -2.1557      2.00000
     22      -2.1556      2.00000
     23      -1.7215      2.00000
     24      -0.8116      2.00000
     25       1.1128      2.00000
     26       1.9269      2.00000
     27       2.0639      2.00000
     28       2.0640      2.00000
     29       2.6008      2.00000
     30       2.8603      2.00000
     31       2.9984      2.00000
     32       2.9984      2.00000
     33       3.2161      2.00000
     34       3.4276      2.00000
     35       3.8501      2.00000
     36       4.1461      2.00000
     37       4.1461      2.00000
     38       4.3994      2.00000
     39       4.3994      2.00000
     40       5.2647      2.00000
     41       5.2868      2.00000
     42       5.8509      2.00000
     43       5.9229      2.00000
     44       6.2160      2.00000
     45       6.8917      0.00000
     46       7.1039      0.00000
     47       7.2705      0.00000
     48       7.2705      0.00000
     49       7.8033      0.00000
     50       7.8552      0.00000
     51       7.9875      0.00000
     52       8.0322      0.00000
     53       8.2490      0.00000
     54       8.9524      0.00000

 k-point    39 :      -0.4286    0.4286    0.4286
  band No.  band energies     occupation 
      1     -56.9972      2.00000
      2     -56.9965      2.00000
      3     -56.7386      2.00000
      4     -56.7313      2.00000
      5     -30.9820      2.00000
      6     -30.8879      2.00000
      7     -30.4111      2.00000
      8     -30.3873      2.00000
      9     -30.2396      2.00000
     10     -30.2383      2.00000
     11     -30.2343      2.00000
     12     -30.2330      2.00000
     13     -29.9733      2.00000
     14     -29.9725      2.00000
     15     -29.9720      2.00000
     16     -29.9712      2.00000
     17      -6.8991      2.00000
     18      -5.9631      2.00000
     19      -2.9822      2.00000
     20      -2.8558      2.00000
     21      -2.5436      2.00000
     22      -2.4692      2.00000
     23      -1.7605      2.00000
     24      -0.2018      2.00000
     25       0.1706      2.00000
     26       1.8046      2.00000
     27       1.8929      2.00000
     28       2.3221      2.00000
     29       2.3476      2.00000
     30       2.4986      2.00000
     31       2.6171      2.00000
     32       2.9495      2.00000
     33       3.7387      2.00000
     34       3.7866      2.00000
     35       4.3492      2.00000
     36       4.4779      2.00000
     37       4.6489      2.00000
     38       4.8997      2.00000
     39       5.2017      2.00000
     40       5.3166      2.00000
     41       5.4670      2.00000
     42       5.6710      2.00000
     43       5.8337      2.00000
     44       5.8500      2.00000
     45       6.0124      2.00000
     46       6.5630      0.00000
     47       6.6489      0.00000
     48       7.1478      0.00000
     49       7.5721      0.00000
     50       7.7611      0.00000
     51       8.1535      0.00000
     52       8.3609      0.00000
     53       8.3901      0.00000
     54       8.9220      0.00000

 k-point    40 :      -0.4286   -0.4286    0.4286
  band No.  band energies     occupation 
      1     -56.9971      2.00000
      2     -56.9965      2.00000
      3     -56.7383      2.00000
      4     -56.7317      2.00000
      5     -30.9774      2.00000
      6     -30.8926      2.00000
      7     -30.4099      2.00000
      8     -30.3885      2.00000
      9     -30.2396      2.00000
     10     -30.2396      2.00000
     11     -30.2343      2.00000
     12     -30.2343      2.00000
     13     -29.9718      2.00000
     14     -29.9717      2.00000
     15     -29.9714      2.00000
     16     -29.9713      2.00000
     17      -6.8147      2.00000
     18      -6.0822      2.00000
     19      -2.9133      2.00000
     20      -2.9132      2.00000
     21      -2.3883      2.00000
     22      -2.3883      2.00000
     23      -2.0310      2.00000
     24      -0.1713      2.00000
     25       0.0300      2.00000
     26       2.0142      2.00000
     27       2.0142      2.00000
     28       2.3438      2.00000
     29       2.4189      2.00000
     30       2.4189      2.00000
     31       2.6282      2.00000
     32       2.9323      2.00000
     33       3.5194      2.00000
     34       3.8536      2.00000
     35       4.5411      2.00000
     36       4.5818      2.00000
     37       4.7561      2.00000
     38       4.8907      2.00000
     39       4.8907      2.00000
     40       5.2292      2.00000
     41       5.2656      2.00000
     42       5.2657      2.00000
     43       5.8559      2.00000
     44       6.1996      2.00000
     45       6.1996      2.00000
     46       6.5921      0.00000
     47       7.0122      0.00000
     48       7.0994      0.00000
     49       7.1994      0.00000
     50       7.9366      0.00000
     51       8.3872      0.00000
     52       8.4431      0.00000
     53       8.5858      0.00000
     54       8.9334      0.00000


--------------------------------------------------------------------------------------------------------


 soft charge-density along one line, spin component           1
         0         1         2         3         4         5         6         7         8         9
 total charge-density along one line
 
 pseudopotential strength for first ion, spin component:           1
  6.161   9.354   0.003   0.003  -0.001   0.002   0.003   0.001
  9.354  14.194   0.004   0.004  -0.000   0.001   0.003   0.003
  0.003   0.004  -2.086  -0.006   0.005  -3.510  -0.011   0.010
  0.003   0.004  -0.006  -2.081   0.002  -0.011  -3.500   0.006
 -0.001  -0.000   0.005   0.002  -2.081   0.010   0.006  -3.500
  0.002   0.001  -3.510  -0.011   0.010  -5.697  -0.020   0.020
  0.003   0.003  -0.011  -3.500   0.006  -0.020  -5.678   0.013
  0.001   0.003   0.010   0.006  -3.500   0.020   0.013  -5.677
 total augmentation occupancy for first ion, spin component:           1
  2.965  -0.634   0.431   0.310  -0.219  -0.138  -0.102   0.065
 -0.634   0.160  -0.121  -0.093   0.053   0.042   0.032  -0.019
  0.431  -0.121   2.366   0.156  -0.433  -0.579  -0.063   0.136
  0.310  -0.093   0.156   1.794  -0.481  -0.064  -0.420   0.123
 -0.219   0.053  -0.433  -0.481   1.908   0.135   0.122  -0.464
 -0.138   0.042  -0.579  -0.064   0.135   0.148   0.024  -0.043
 -0.102   0.032  -0.063  -0.420   0.122   0.024   0.102  -0.032
  0.065  -0.019   0.136   0.123  -0.464  -0.043  -0.032   0.118


------------------------ aborting loop because EDIFF is reached ----------------------------------------




--------------------------------------------------------------------------------------------------------



  FREE ENERGIE OF THE ION-ELECTRON SYSTEM (eV)
  ---------------------------------------------------
  free  energy   TOTEN  =      -150.13339808 eV

  energy  without entropy=     -150.13095172  energy(sigma->0) =     -150.13217490
 


--------------------------------------------------------------------------------------------------------


    POTLOK:  cpu time    0.9053: real time    0.9124


--------------------------------------------------------------------------------------------------------


 writing wavefunctions
     LOOP+:  cpu time  725.0178: real time  731.8373
    4ORBIT:  cpu time    0.0000: real time    0.0000

 total amount of memory used by VASP MPI-rank0   175696. kBytes
=======================================================================

   base      :      30000. kBytes
   nonl-proj :      56923. kBytes
   fftplans  :      17767. kBytes
   grid      :      13358. kBytes
   one-center:        108. kBytes
   wavefun   :      57540. kBytes
 
  
  
 General timing and accounting informations for this job:
 ========================================================
  
                  Total CPU time used (sec):      729.682
                            User time (sec):      725.776
                          System time (sec):        3.906
                         Elapsed time (sec):      738.961
  
                   Maximum memory used (kb):      389980.
                   Average memory used (kb):          N/A
  
                          Minor page faults:       844956
                          Major page faults:           35
                 Voluntary context switches:         5282
