<?xml version="1.0" encoding="ISO-8859-1"?>
<modeling>
 <generator>
  <i name="program" type="string">vasp </i>
  <i name="version" type="string">6.2.0  </i>
  <i name="subversion" type="string">18Jan21 (build Jan 05 2022 15:41:44) complex                          parallel </i>
  <i name="platform" type="string">LinuxIFC </i>
  <i name="date" type="string">2025 05 07 </i>
  <i name="time" type="string">19:10:17 </i>
 </generator>
 <incar>
  <i type="string" name="SYSTEM">routine with relax: pwdword</i>
  <i type="string" name="PREC">Acc</i>
  <i type="int" name="IALGO">    38</i>
  <i type="string" name="ALGO">A</i>
  <i type="logical" name="ADDGRID"> T  </i>
  <i type="int" name="ICHARG">     2</i>
  <i type="int" name="NELM">   100</i>
  <i type="int" name="NELMIN">     6</i>
  <i name="EDIFF">      0.00000000</i>
  <i type="int" name="NSW">     0</i>
  <i type="int" name="ISIF">    -1</i>
  <i name="SYMPREC">      0.00010000</i>
  <i name="ENCUT">    600.00000000</i>
  <i type="logical" name="LREAL"> F  </i>
  <i type="int" name="ISMEAR">     0</i>
  <i name="SIGMA">      0.02000000</i>
  <i type="logical" name="LASPH"> T  </i>
  <i type="string" name="METAGGA">R2SCAN</i>
  <i type="logical" name="LMIXTAU"> F  </i>
 </incar>
 <primitive_cell>
  <structure name="primitive_cell" >
   <crystal>
    <varray name="basis" >
     <v>       4.94585852       0.00000000      -2.84296111 </v>
     <v>      -1.65595522       4.66040007      -2.84296111 </v>
     <v>       0.00000000       0.00000000       5.70473000 </v>
    </varray>
    <i name="volume">    131.49219764 </i>
    <varray name="rec_basis" >
     <v>       0.20218937       0.07184287       0.00000000 </v>
     <v>       0.00000000       0.21457385       0.00000000 </v>
     <v>       0.10076139       0.14273622       0.17529313 </v>
    </varray>
   </crystal>
   <varray name="positions" >
    <v>       0.50000000       0.00000000       0.00000000 </v>
    <v>       0.00000000       0.00000000       0.50000000 </v>
    <v>       0.00000000       0.50000000       1.00000000 </v>
    <v>       0.50000000       0.50000000       0.50000000 </v>
    <v>       0.74893000       0.24893000       0.99787000 </v>
    <v>       0.25000000       0.25000000       1.00000000 </v>
    <v>       0.25107000       0.75107000       0.00213000 </v>
    <v>       0.75000000       0.75000000       1.00000000 </v>
    <v>       0.24893000       0.25107000       0.50000000 </v>
    <v>       0.75107000       0.74893000       0.50000000 </v>
    <v>       0.25000000       0.75000000       0.50000000 </v>
    <v>       0.75000000       0.25000000       0.50000000 </v>
   </varray>
  </structure>
  <varray name="primitive_index" >
   <v type="int" >        1 </v>
   <v type="int" >        2 </v>
   <v type="int" >        3 </v>
   <v type="int" >        4 </v>
   <v type="int" >        5 </v>
   <v type="int" >        6 </v>
   <v type="int" >        7 </v>
   <v type="int" >        8 </v>
   <v type="int" >        9 </v>
   <v type="int" >       10 </v>
   <v type="int" >       11 </v>
   <v type="int" >       12 </v>
  </varray>
 </primitive_cell>
 <kpoints>
  <generation param="Gamma">
   <v type="int" name="divisions">       8        8        9 </v>
   <v name="usershift">      0.00000000       0.00000000       0.00000000 </v>
   <v name="genvec1">      0.12500000       0.00000000       0.00000000 </v>
   <v name="genvec2">      0.00000000       0.12500000       0.00000000 </v>
   <v name="genvec3">      0.00000000      -0.00000000       0.11111111 </v>
   <v name="shift">      0.00000000       0.00000000       0.00000000 </v>
  </generation>
  <varray name="kpointlist" >
   <v>       0.00000000       0.00000000       0.00000000 </v>
   <v>       0.12500000       0.00000000       0.00000000 </v>
   <v>       0.25000000       0.00000000       0.00000000 </v>
   <v>       0.37500000      -0.00000000       0.00000000 </v>
   <v>       0.50000000       0.00000000       0.00000000 </v>
   <v>       0.12500000       0.12500000       0.00000000 </v>
   <v>       0.25000000       0.12500000       0.00000000 </v>
   <v>       0.37500000       0.12500000       0.00000000 </v>
   <v>       0.50000000       0.12500000       0.00000000 </v>
   <v>      -0.37500000       0.12500000       0.00000000 </v>
   <v>      -0.25000000       0.12500000       0.00000000 </v>
   <v>      -0.12500000       0.12500000       0.00000000 </v>
   <v>       0.25000000       0.25000000       0.00000000 </v>
   <v>       0.37500000       0.25000000       0.00000000 </v>
   <v>       0.50000000       0.25000000       0.00000000 </v>
   <v>      -0.37500000       0.25000000       0.00000000 </v>
   <v>      -0.25000000       0.25000000       0.00000000 </v>
   <v>       0.37500000       0.37500000       0.00000000 </v>
   <v>       0.50000000       0.37500000       0.00000000 </v>
   <v>      -0.37500000       0.37500000       0.00000000 </v>
   <v>       0.50000000       0.50000000       0.00000000 </v>
   <v>      -0.00000000       0.00000000       0.11111111 </v>
   <v>       0.12500000       0.00000000       0.11111111 </v>
   <v>       0.25000000      -0.00000000       0.11111111 </v>
   <v>       0.37500000       0.00000000       0.11111111 </v>
   <v>       0.50000000      -0.00000000       0.11111111 </v>
   <v>      -0.37500000       0.00000000       0.11111111 </v>
   <v>      -0.25000000       0.00000000       0.11111111 </v>
   <v>      -0.12500000       0.00000000       0.11111111 </v>
   <v>       0.12500000       0.12500000       0.11111111 </v>
   <v>       0.25000000       0.12500000       0.11111111 </v>
   <v>       0.37500000       0.12500000       0.11111111 </v>
   <v>       0.50000000       0.12500000       0.11111111 </v>
   <v>      -0.37500000       0.12500000       0.11111111 </v>
   <v>      -0.25000000       0.12500000       0.11111111 </v>
   <v>      -0.12500000       0.12500000       0.11111111 </v>
   <v>       0.25000000       0.25000000       0.11111111 </v>
   <v>       0.37500000       0.25000000       0.11111111 </v>
   <v>       0.50000000       0.25000000       0.11111111 </v>
   <v>      -0.37500000       0.25000000       0.11111111 </v>
   <v>      -0.25000000       0.25000000       0.11111111 </v>
   <v>      -0.12500000       0.25000000       0.11111111 </v>
   <v>       0.37500000       0.37500000       0.11111111 </v>
   <v>       0.50000000       0.37500000       0.11111111 </v>
   <v>      -0.37500000       0.37500000       0.11111111 </v>
   <v>      -0.25000000       0.37500000       0.11111111 </v>
   <v>      -0.12500000       0.37500000       0.11111111 </v>
   <v>       0.50000000       0.50000000       0.11111111 </v>
   <v>      -0.37500000       0.50000000       0.11111111 </v>
   <v>      -0.25000000       0.50000000       0.11111111 </v>
   <v>      -0.12500000       0.50000000       0.11111111 </v>
   <v>      -0.37500000      -0.37500000       0.11111111 </v>
   <v>      -0.25000000      -0.37500000       0.11111111 </v>
   <v>      -0.12500000      -0.37500000       0.11111111 </v>
   <v>      -0.25000000      -0.25000000       0.11111111 </v>
   <v>      -0.12500000      -0.25000000       0.11111111 </v>
   <v>      -0.12500000      -0.12500000       0.11111111 </v>
   <v>       0.00000000       0.00000000       0.22222222 </v>
   <v>       0.12500000       0.00000000       0.22222222 </v>
   <v>       0.25000000       0.00000000       0.22222222 </v>
   <v>       0.37500000      -0.00000000       0.22222222 </v>
   <v>       0.50000000       0.00000000       0.22222222 </v>
   <v>      -0.37500000       0.00000000       0.22222222 </v>
   <v>      -0.25000000       0.00000000       0.22222222 </v>
   <v>      -0.12500000       0.00000000       0.22222222 </v>
   <v>       0.12500000       0.12500000       0.22222222 </v>
   <v>       0.25000000       0.12500000       0.22222222 </v>
   <v>       0.37500000       0.12500000       0.22222222 </v>
   <v>       0.50000000       0.12500000       0.22222222 </v>
   <v>      -0.37500000       0.12500000       0.22222222 </v>
   <v>      -0.25000000       0.12500000       0.22222222 </v>
   <v>      -0.12500000       0.12500000       0.22222222 </v>
   <v>       0.25000000       0.25000000       0.22222222 </v>
   <v>       0.37500000       0.25000000       0.22222222 </v>
   <v>       0.50000000       0.25000000       0.22222222 </v>
   <v>      -0.37500000       0.25000000       0.22222222 </v>
   <v>      -0.25000000       0.25000000       0.22222222 </v>
   <v>      -0.12500000       0.25000000       0.22222222 </v>
   <v>       0.37500000       0.37500000       0.22222222 </v>
   <v>       0.50000000       0.37500000       0.22222222 </v>
   <v>      -0.37500000       0.37500000       0.22222222 </v>
   <v>      -0.25000000       0.37500000       0.22222222 </v>
   <v>      -0.12500000       0.37500000       0.22222222 </v>
   <v>       0.50000000       0.50000000       0.22222222 </v>
   <v>      -0.37500000       0.50000000       0.22222222 </v>
   <v>      -0.25000000       0.50000000       0.22222222 </v>
   <v>      -0.12500000       0.50000000       0.22222222 </v>
   <v>      -0.37500000      -0.37500000       0.22222222 </v>
   <v>      -0.25000000      -0.37500000       0.22222222 </v>
   <v>      -0.12500000      -0.37500000       0.22222222 </v>
   <v>      -0.25000000      -0.25000000       0.22222222 </v>
   <v>      -0.12500000      -0.25000000       0.22222222 </v>
   <v>      -0.12500000      -0.12500000       0.22222222 </v>
   <v>      -0.00000000       0.00000000       0.33333333 </v>
   <v>       0.12500000       0.00000000       0.33333333 </v>
   <v>       0.25000000      -0.00000000       0.33333333 </v>
   <v>       0.37500000      -0.00000000       0.33333333 </v>
   <v>       0.50000000      -0.00000000       0.33333333 </v>
   <v>      -0.37500000       0.00000000       0.33333333 </v>
   <v>      -0.25000000       0.00000000       0.33333333 </v>
   <v>      -0.12500000       0.00000000       0.33333333 </v>
   <v>       0.12500000       0.12500000       0.33333333 </v>
   <v>       0.25000000       0.12500000       0.33333333 </v>
   <v>       0.37500000       0.12500000       0.33333333 </v>
   <v>       0.50000000       0.12500000       0.33333333 </v>
   <v>      -0.37500000       0.12500000       0.33333333 </v>
   <v>      -0.25000000       0.12500000       0.33333333 </v>
   <v>      -0.12500000       0.12500000       0.33333333 </v>
   <v>       0.25000000       0.25000000       0.33333333 </v>
   <v>       0.37500000       0.25000000       0.33333333 </v>
   <v>       0.50000000       0.25000000       0.33333333 </v>
   <v>      -0.37500000       0.25000000       0.33333333 </v>
   <v>      -0.25000000       0.25000000       0.33333333 </v>
   <v>      -0.12500000       0.25000000       0.33333333 </v>
   <v>       0.37500000       0.37500000       0.33333333 </v>
   <v>       0.50000000       0.37500000       0.33333333 </v>
   <v>      -0.37500000       0.37500000       0.33333333 </v>
   <v>      -0.25000000       0.37500000       0.33333333 </v>
   <v>      -0.12500000       0.37500000       0.33333333 </v>
   <v>       0.50000000       0.50000000       0.33333333 </v>
   <v>      -0.37500000       0.50000000       0.33333333 </v>
   <v>      -0.25000000       0.50000000       0.33333333 </v>
   <v>      -0.12500000       0.50000000       0.33333333 </v>
   <v>      -0.37500000      -0.37500000       0.33333333 </v>
   <v>      -0.25000000      -0.37500000       0.33333333 </v>
   <v>      -0.12500000      -0.37500000       0.33333333 </v>
   <v>      -0.25000000      -0.25000000       0.33333333 </v>
   <v>      -0.12500000      -0.25000000       0.33333333 </v>
   <v>      -0.12500000      -0.12500000       0.33333333 </v>
   <v>       0.00000000       0.00000000       0.44444444 </v>
   <v>       0.12500000       0.00000000       0.44444444 </v>
   <v>       0.25000000       0.00000000       0.44444444 </v>
   <v>       0.37500000      -0.00000000       0.44444444 </v>
   <v>       0.50000000       0.00000000       0.44444444 </v>
   <v>      -0.37500000       0.00000000       0.44444444 </v>
   <v>      -0.25000000       0.00000000       0.44444444 </v>
   <v>      -0.12500000      -0.00000000       0.44444444 </v>
   <v>       0.12500000       0.12500000       0.44444444 </v>
   <v>       0.25000000       0.12500000       0.44444444 </v>
   <v>       0.37500000       0.12500000       0.44444444 </v>
   <v>       0.50000000       0.12500000       0.44444444 </v>
   <v>      -0.37500000       0.12500000       0.44444444 </v>
   <v>      -0.25000000       0.12500000       0.44444444 </v>
   <v>      -0.12500000       0.12500000       0.44444444 </v>
   <v>       0.25000000       0.25000000       0.44444444 </v>
   <v>       0.37500000       0.25000000       0.44444444 </v>
   <v>       0.50000000       0.25000000       0.44444444 </v>
   <v>      -0.37500000       0.25000000       0.44444444 </v>
   <v>      -0.25000000       0.25000000       0.44444444 </v>
   <v>      -0.12500000       0.25000000       0.44444444 </v>
   <v>       0.37500000       0.37500000       0.44444444 </v>
   <v>       0.50000000       0.37500000       0.44444444 </v>
   <v>      -0.37500000       0.37500000       0.44444444 </v>
   <v>      -0.25000000       0.37500000       0.44444444 </v>
   <v>      -0.12500000       0.37500000       0.44444444 </v>
   <v>       0.50000000       0.50000000       0.44444444 </v>
   <v>      -0.37500000       0.50000000       0.44444444 </v>
   <v>      -0.25000000       0.50000000       0.44444444 </v>
   <v>      -0.12500000       0.50000000       0.44444444 </v>
   <v>      -0.37500000      -0.37500000       0.44444444 </v>
   <v>      -0.25000000      -0.37500000       0.44444444 </v>
   <v>      -0.12500000      -0.37500000       0.44444444 </v>
   <v>      -0.25000000      -0.25000000       0.44444444 </v>
   <v>      -0.12500000      -0.25000000       0.44444444 </v>
   <v>      -0.12500000      -0.12500000       0.44444444 </v>
  </varray>
  <varray name="weights" >
   <v>       0.00173611 </v>
   <v>       0.00694444 </v>
   <v>       0.00694444 </v>
   <v>       0.00694444 </v>
   <v>       0.00347222 </v>
   <v>       0.00347222 </v>
   <v>       0.00694444 </v>
   <v>       0.00694444 </v>
   <v>       0.00694444 </v>
   <v>       0.00694444 </v>
   <v>       0.00694444 </v>
   <v>       0.00347222 </v>
   <v>       0.00347222 </v>
   <v>       0.00694444 </v>
   <v>       0.00694444 </v>
   <v>       0.00694444 </v>
   <v>       0.00347222 </v>
   <v>       0.00347222 </v>
   <v>       0.00694444 </v>
   <v>       0.00347222 </v>
   <v>       0.00173611 </v>
   <v>       0.00347222 </v>
   <v>       0.00694444 </v>
   <v>       0.00694444 </v>
   <v>       0.00694444 </v>
   <v>       0.00694444 </v>
   <v>       0.00694444 </v>
   <v>       0.00694444 </v>
   <v>       0.00694444 </v>
   <v>       0.00347222 </v>
   <v>       0.00694444 </v>
   <v>       0.00694444 </v>
   <v>       0.00694444 </v>
   <v>       0.00694444 </v>
   <v>       0.00694444 </v>
   <v>       0.00694444 </v>
   <v>       0.00347222 </v>
   <v>       0.00694444 </v>
   <v>       0.00694444 </v>
   <v>       0.00694444 </v>
   <v>       0.00694444 </v>
   <v>       0.00694444 </v>
   <v>       0.00347222 </v>
   <v>       0.00694444 </v>
   <v>       0.00694444 </v>
   <v>       0.00694444 </v>
   <v>       0.00694444 </v>
   <v>       0.00347222 </v>
   <v>       0.00694444 </v>
   <v>       0.00694444 </v>
   <v>       0.00694444 </v>
   <v>       0.00347222 </v>
   <v>       0.00694444 </v>
   <v>       0.00694444 </v>
   <v>       0.00347222 </v>
   <v>       0.00694444 </v>
   <v>       0.00347222 </v>
   <v>       0.00347222 </v>
   <v>       0.00694444 </v>
   <v>       0.00694444 </v>
   <v>       0.00694444 </v>
   <v>       0.00694444 </v>
   <v>       0.00694444 </v>
   <v>       0.00694444 </v>
   <v>       0.00694444 </v>
   <v>       0.00347222 </v>
   <v>       0.00694444 </v>
   <v>       0.00694444 </v>
   <v>       0.00694444 </v>
   <v>       0.00694444 </v>
   <v>       0.00694444 </v>
   <v>       0.00694444 </v>
   <v>       0.00347222 </v>
   <v>       0.00694444 </v>
   <v>       0.00694444 </v>
   <v>       0.00694444 </v>
   <v>       0.00694444 </v>
   <v>       0.00694444 </v>
   <v>       0.00347222 </v>
   <v>       0.00694444 </v>
   <v>       0.00694444 </v>
   <v>       0.00694444 </v>
   <v>       0.00694444 </v>
   <v>       0.00347222 </v>
   <v>       0.00694444 </v>
   <v>       0.00694444 </v>
   <v>       0.00694444 </v>
   <v>       0.00347222 </v>
   <v>       0.00694444 </v>
   <v>       0.00694444 </v>
   <v>       0.00347222 </v>
   <v>       0.00694444 </v>
   <v>       0.00347222 </v>
   <v>       0.00347222 </v>
   <v>       0.00694444 </v>
   <v>       0.00694444 </v>
   <v>       0.00694444 </v>
   <v>       0.00694444 </v>
   <v>       0.00694444 </v>
   <v>       0.00694444 </v>
   <v>       0.00694444 </v>
   <v>       0.00347222 </v>
   <v>       0.00694444 </v>
   <v>       0.00694444 </v>
   <v>       0.00694444 </v>
   <v>       0.00694444 </v>
   <v>       0.00694444 </v>
   <v>       0.00694444 </v>
   <v>       0.00347222 </v>
   <v>       0.00694444 </v>
   <v>       0.00694444 </v>
   <v>       0.00694444 </v>
   <v>       0.00694444 </v>
   <v>       0.00694444 </v>
   <v>       0.00347222 </v>
   <v>       0.00694444 </v>
   <v>       0.00694444 </v>
   <v>       0.00694444 </v>
   <v>       0.00694444 </v>
   <v>       0.00347222 </v>
   <v>       0.00694444 </v>
   <v>       0.00694444 </v>
   <v>       0.00694444 </v>
   <v>       0.00347222 </v>
   <v>       0.00694444 </v>
   <v>       0.00694444 </v>
   <v>       0.00347222 </v>
   <v>       0.00694444 </v>
   <v>       0.00347222 </v>
   <v>       0.00347222 </v>
   <v>       0.00694444 </v>
   <v>       0.00694444 </v>
   <v>       0.00694444 </v>
   <v>       0.00694444 </v>
   <v>       0.00694444 </v>
   <v>       0.00694444 </v>
   <v>       0.00694444 </v>
   <v>       0.00347222 </v>
   <v>       0.00694444 </v>
   <v>       0.00694444 </v>
   <v>       0.00694444 </v>
   <v>       0.00694444 </v>
   <v>       0.00694444 </v>
   <v>       0.00694444 </v>
   <v>       0.00347222 </v>
   <v>       0.00694444 </v>
   <v>       0.00694444 </v>
   <v>       0.00694444 </v>
   <v>       0.00694444 </v>
   <v>       0.00694444 </v>
   <v>       0.00347222 </v>
   <v>       0.00694444 </v>
   <v>       0.00694444 </v>
   <v>       0.00694444 </v>
   <v>       0.00694444 </v>
   <v>       0.00347222 </v>
   <v>       0.00694444 </v>
   <v>       0.00694444 </v>
   <v>       0.00694444 </v>
   <v>       0.00347222 </v>
   <v>       0.00694444 </v>
   <v>       0.00694444 </v>
   <v>       0.00347222 </v>
   <v>       0.00694444 </v>
   <v>       0.00347222 </v>
  </varray>
 </kpoints>
 <parameters>
  <separator name="general" >
   <i type="string" name="SYSTEM">routine with relax: pwdword</i>
   <i type="logical" name="LCOMPAT"> F  </i>
  </separator>
  <separator name="electronic" >
   <i type="string" name="PREC">acc</i>
   <i name="ENMAX">    600.00000000</i>
   <i name="ENAUG">    535.51400000</i>
   <i name="EDIFF">      0.00000000</i>
   <i type="int" name="IALGO">    58</i>
   <i type="int" name="IWAVPR">    10</i>
   <i type="int" name="NBANDS">    66</i>
   <i type="int" name="NBANDSLOW">    -1</i>
   <i type="int" name="NBANDSHIGH">    -1</i>
   <i name="NELECT">    104.00000000</i>
   <i type="int" name="TURBO">     0</i>
   <i type="int" name="IRESTART">     0</i>
   <i type="int" name="NREBOOT">     0</i>
   <i type="int" name="NMIN">     0</i>
   <i name="EREF">      0.00000000</i>
   <separator name="electronic smearing" >
    <i type="int" name="ISMEAR">     0</i>
    <i name="SIGMA">      0.02000000</i>
    <i name="KSPACING">      0.50000000</i>
    <i type="logical" name="KGAMMA"> T  </i>
    <i type="logical" name="KBLOWUP"> F  </i>
   </separator>
   <separator name="electronic projectors" >
    <i type="logical" name="LREAL"> F  </i>
    <v name="ROPT">      0.00000000      0.00000000      0.00000000</v>
    <i type="int" name="LMAXPAW">  -100</i>
    <i type="int" name="LMAXMIX">     2</i>
    <i type="logical" name="NLSPLINE"> F  </i>
   </separator>
   <separator name="electronic startup" >
    <i type="int" name="ISTART">     0</i>
    <i type="int" name="ICHARG">     2</i>
    <i type="int" name="INIWAV">     1</i>
   </separator>
   <separator name="electronic spin" >
    <i type="int" name="ISPIN">     1</i>
    <i type="logical" name="LNONCOLLINEAR"> F  </i>
    <v name="MAGMOM">      1.00000000      1.00000000      1.00000000      1.00000000      1.00000000      1.00000000      1.00000000      1.00000000      1.00000000      1.00000000      1.00000000      1.00000000</v>
    <i name="NUPDOWN">     -1.00000000</i>
    <i type="logical" name="LSORBIT"> F  </i>
    <v name="SAXIS">      0.00000000      0.00000000      1.00000000</v>
    <i type="logical" name="LSPIRAL"> F  </i>
    <v name="QSPIRAL">      0.00000000      0.00000000      0.00000000</v>
    <i type="logical" name="LZEROZ"> F  </i>
   </separator>
   <separator name="electronic exchange-correlation" >
    <i type="logical" name="LASPH"> T  </i>
    <i type="logical" name="LMETAGGA"> F  </i>
   </separator>
   <separator name="electronic convergence" >
    <i type="int" name="NELM">   100</i>
    <i type="int" name="NELMDL">    -5</i>
    <i type="int" name="NELMIN">     6</i>
    <i name="ENINI">    600.00000000</i>
    <separator name="electronic convergence detail" >
     <i type="logical" name="LDIAG"> T  </i>
     <i type="logical" name="LSUBROT"> F  </i>
     <i name="WEIMIN">      0.00000000</i>
     <i name="EBREAK">      0.00000000</i>
     <i name="DEPER">      0.30000000</i>
     <i type="int" name="NRMM">     4</i>
     <i name="TIME">      0.40000000</i>
    </separator>
   </separator>
   <separator name="electronic mixer" >
    <i name="AMIX">      0.40000000</i>
    <i name="BMIX">      1.00000000</i>
    <i name="AMIN">      0.10000000</i>
    <i name="AMIX_MAG">      1.60000000</i>
    <i name="BMIX_MAG">      1.00000000</i>
    <separator name="electronic mixer details" >
     <i type="int" name="IMIX">     4</i>
     <i type="logical" name="MIXFIRST"> F  </i>
     <i type="int" name="MAXMIX">   -45</i>
     <i name="WC">    100.00000000</i>
     <i type="int" name="INIMIX">     1</i>
     <i type="int" name="MIXPRE">     1</i>
     <i type="int" name="MREMOVE">     5</i>
    </separator>
   </separator>
   <separator name="electronic dipolcorrection" >
    <i type="logical" name="LDIPOL"> F  </i>
    <i type="logical" name="LMONO"> F  </i>
    <i type="int" name="IDIPOL">     0</i>
    <i name="EPSILON">      1.00000000</i>
    <v name="DIPOL">   -100.00000000   -100.00000000   -100.00000000</v>
    <i name="EFIELD">      0.00000000</i>
   </separator>
  </separator>
  <separator name="grids" >
   <i type="int" name="NGX">    48</i>
   <i type="int" name="NGY">    48</i>
   <i type="int" name="NGZ">    48</i>
   <i type="int" name="NGXF">    96</i>
   <i type="int" name="NGYF">    96</i>
   <i type="int" name="NGZF">    96</i>
   <i type="logical" name="ADDGRID"> T  </i>
  </separator>
  <separator name="ionic" >
   <i type="int" name="NSW">     0</i>
   <i type="int" name="IBRION">    -1</i>
   <i type="int" name="MDALGO">     0</i>
   <i type="int" name="ISIF">    -1</i>
   <i name="PSTRESS">      0.00000000</i>
   <i name="EDIFFG">      0.00000001</i>
   <i type="int" name="NFREE">     0</i>
   <i name="POTIM">      0.50000000</i>
   <i name="SMASS">     -3.00000000</i>
   <i name="SCALEE">      1.00000000</i>
  </separator>
  <separator name="ionic md" >
   <i name="TEBEG">      0.00010000</i>
   <i name="TEEND">      0.00010000</i>
   <i type="int" name="NBLOCK">     1</i>
   <i type="int" name="KBLOCK">     1</i>
   <i type="int" name="NPACO">   256</i>
   <i name="APACO">     16.00000000</i>
  </separator>
  <separator name="symmetry" >
   <i type="int" name="ISYM">     2</i>
   <i name="SYMPREC">      0.00010000</i>
  </separator>
  <separator name="dos" >
   <i type="int" name="LORBIT">     0</i>
   <v name="RWIGS">     -1.00000000     -1.00000000     -1.00000000</v>
   <i type="int" name="NEDOS">   301</i>
   <i name="EMIN">     10.00000000</i>
   <i name="EMAX">    -10.00000000</i>
   <i name="EFERMI">      0.00000000</i>
  </separator>
  <separator name="writing" >
   <i type="int" name="NWRITE">     2</i>
   <i type="logical" name="LWAVE"> T  </i>
   <i type="logical" name="LDOWNSAMPLE"> F  </i>
   <i type="logical" name="LCHARG"> T  </i>
   <i type="logical" name="LPARD"> F  </i>
   <i type="logical" name="LVTOT"> F  </i>
   <i type="logical" name="LVHAR"> F  </i>
   <i type="logical" name="LELF"> F  </i>
   <i type="logical" name="LOPTICS"> F  </i>
   <v name="STM">      0.00000000      0.00000000      0.00000000      0.00000000      0.00000000      0.00000000      0.00000000</v>
  </separator>
  <separator name="performance" >
   <i type="int" name="NPAR">     6</i>
   <i type="int" name="NSIM">     4</i>
   <i type="int" name="NBLK">    -1</i>
   <i type="logical" name="LPLANE"> T  </i>
   <i type="logical" name="LSCALAPACK"> T  </i>
   <i type="logical" name="LSCAAWARE"> F  </i>
   <i type="logical" name="LSCALU"> F  </i>
   <i type="logical" name="LASYNC"> F  </i>
   <i type="logical" name="LORBITALREAL"> F  </i>
  </separator>
  <separator name="miscellaneous" >
   <i type="int" name="IDIOT">     3</i>
   <i type="int" name="PHON_NSTRUCT">    -1</i>
   <i type="logical" name="LMUSIC"> F  </i>
   <v name="POMASS">     10.81100000     95.94000000     28.08500000</v>
   <v name="DARWINR">      0.00000000      0.00000000      0.00000000</v>
   <v name="DARWINV">      1.00000000      1.00000000      1.00000000</v>
   <i type="logical" name="LCORR"> T  </i>
  </separator>
  <i type="logical" name="GGA_COMPAT"> T  </i>
  <i type="logical" name="LBERRY"> F  </i>
  <i type="int" name="ICORELEVEL">     0</i>
  <i type="logical" name="LDAU"> F  </i>
  <i type="int" name="I_CONSTRAINED_M">     0</i>
  <separator name="electronic exchange-correlation" >
   <i type="string" name="GGA">--</i>
   <i type="int" name="VOSKOWN">     0</i>
   <i type="logical" name="LHFCALC"> F  </i>
   <i type="string" name="PRECFOCK"></i>
   <i type="logical" name="LSYMGRAD"> F  </i>
   <i type="logical" name="LHFONE"> F  </i>
   <i type="logical" name="LRHFCALC"> F  </i>
   <i type="logical" name="LTHOMAS"> F  </i>
   <i type="logical" name="LMODELHF"> F  </i>
   <i type="logical" name="LFOCKACE"> F  </i>
   <i name="ENCUT4O">     -1.00000000</i>
   <i type="int" name="EXXOEP">     0</i>
   <i type="int" name="FOURORBIT">     0</i>
   <i name="AEXX">      0.00000000</i>
   <i name="HFALPHA">      0.00000000</i>
   <i name="MCALPHA">      0.00000000</i>
   <i name="ALDAX">      1.00000000</i>
   <i name="AGGAX">      1.00000000</i>
   <i name="ALDAC">      1.00000000</i>
   <i name="AGGAC">      1.00000000</i>
   <i type="int" name="NKREDX">     1</i>
   <i type="int" name="NKREDY">     1</i>
   <i type="int" name="NKREDZ">     1</i>
   <i type="logical" name="SHIFTRED"> F  </i>
   <i type="logical" name="ODDONLY"> F  </i>
   <i type="logical" name="EVENONLY"> F  </i>
   <i type="int" name="LMAXFOCK">     0</i>
   <i type="int" name="NMAXFOCKAE">     0</i>
   <i type="logical" name="LFOCKAEDFT"> F  </i>
   <i name="HFSCREEN">      0.00000000</i>
   <i name="HFSCREENC">      0.00000000</i>
   <i type="int" name="NBANDSGWLOW">     0</i>
  </separator>
  <separator name="vdW DFT" >
   <i type="logical" name="LUSE_VDW"> F  </i>
   <i name="Zab_VDW">     -0.84910000</i>
   <i name="PARAM1">      0.12340000</i>
   <i name="PARAM2">      1.00000000</i>
   <i name="PARAM3">      0.00000000</i>
  </separator>
  <separator name="model GW" >
   <i type="int" name="MODEL_GW">     0</i>
   <i name="MODEL_EPS0">      6.57460988</i>
   <i name="MODEL_ALPHA">      1.00000000</i>
  </separator>
  <separator name="linear response parameters" >
   <i type="logical" name="LEPSILON"> F  </i>
   <i type="logical" name="LRPA"> F  </i>
   <i type="logical" name="LNABLA"> F  </i>
   <i type="logical" name="LVEL"> F  </i>
   <i type="int" name="KINTER">     0</i>
   <i name="CSHIFT">      0.10000000</i>
   <i name="OMEGAMAX">     -1.00000000</i>
   <i name="DEG_THRESHOLD">      0.00200000</i>
   <i name="RTIME">     -0.10000000</i>
   <i name="WPLASMAI">      0.00000000</i>
   <v name="DFIELD">      0.00000000      0.00000000      0.00000000</v>
   <v name="WPLASMA">      0.00000000      0.00000000      0.00000000      0.00000000      0.00000000      0.00000000      0.00000000      0.00000000      0.00000000</v>
  </separator>
  <separator name="orbital magnetization" >
   <i type="logical" name="NUCIND"> F  </i>
   <v name="MAGPOS">      0.00000000      0.00000000      0.00000000</v>
   <i type="logical" name="LNICSALL"> T  </i>
   <i type="logical" name="ORBITALMAG"> F  </i>
   <i type="logical" name="LMAGBLOCH"> F  </i>
   <i type="logical" name="LCHIMAG"> F  </i>
   <i type="logical" name="LGAUGE"> T  </i>
   <i type="int" name="MAGATOM">     0</i>
   <v name="MAGDIPOL">      0.00000000      0.00000000      0.00000000</v>
   <v name="AVECCONST">      0.00000000      0.00000000      0.00000000</v>
  </separator>
  <separator name="response functions" >
   <i type="logical" name="LFINITE_TEMPERATURE"> F  </i>
   <i type="logical" name="LADDER"> F  </i>
   <i type="logical" name="LRPAFORCE"> F  </i>
   <i type="logical" name="LFXC"> F  </i>
   <i type="logical" name="LHARTREE"> T  </i>
   <i type="int" name="IBSE">     0</i>
   <v type="int" name="KPOINT">    -1     0     0     0</v>
   <i type="logical" name="LTCTC"> F  </i>
   <i type="logical" name="LTCTE"> F  </i>
   <i type="logical" name="LTETE"> F  </i>
   <i type="logical" name="LTRIPLET"> F  </i>
   <i type="logical" name="LFXCEPS"> F  </i>
   <i type="logical" name="LFXHEG"> F  </i>
   <i type="int" name="NATURALO">     2</i>
   <i type="logical" name="LHOLEGF"> F  </i>
   <i type="logical" name="L2ORDER"> F  </i>
   <i type="logical" name="LDMP1"> F  </i>
   <i type="logical" name="LMP2LT"> F  </i>
   <i type="logical" name="LSMP2LT"> F  </i>
   <i type="logical" name="LGWLF"> F  </i>
   <i name="ENCUTGW">     -2.00000000</i>
   <i name="ENCUTGWSOFT">     -2.00000000</i>
   <i name="ENCUTLF">     -1.00000000</i>
   <i type="logical" name="LESF_SPLINES"> F  </i>
   <i type="int" name="LMAXMP2">    -1</i>
   <i name="SCISSOR">      0.00000000</i>
   <i type="int" name="NOMEGA">     0</i>
   <i type="int" name="NOMEGAR">     0</i>
   <i type="int" name="NBANDSGW">    -1</i>
   <i type="int" name="NBANDSO">    -1</i>
   <i type="int" name="NBANDSV">    -1</i>
   <i type="int" name="NELM">   100</i>
   <i type="int" name="NELMHF">     1</i>
   <i type="int" name="DIM">     3</i>
   <i type="int" name="IESPILON">     4</i>
   <i type="int" name="ANTIRES">     0</i>
   <i name="OMEGAMAX">    -30.00000000</i>
   <i name="OMEGAMIN">    -30.00000000</i>
   <i name="OMEGATL">   -200.00000000</i>
   <i type="int" name="OMEGAGRID">     0</i>
   <i name="CSHIFT">     -0.10000000</i>
   <i type="logical" name="LSELFENERGY"> F  </i>
   <i type="logical" name="LSPECTRAL"> F  </i>
   <i type="logical" name="LSPECTRALGW"> F  </i>
   <i type="logical" name="LSINGLES"> F  </i>
   <i type="logical" name="LFERMIGW"> F  </i>
   <i type="logical" name="ODDONLYGW"> F  </i>
   <i type="logical" name="EVENONLYGW"> F  </i>
   <i type="int" name="NKREDLFX">     1</i>
   <i type="int" name="NKREDLFY">     1</i>
   <i type="int" name="NKREDLFZ">     1</i>
   <i type="int" name="MAXMEM">  2800</i>
   <i type="int" name="TELESCOPE">     0</i>
   <i type="int" name="NTAUPAR">    -1</i>
   <i type="int" name="NOMEGAPAR">    -1</i>
   <i name="DAMP_NEWTON">      0.80000001</i>
   <i name="LAMBDA">      1.00000000</i>
  </separator>
  <separator name="External order field" >
   <i name="OFIELD_KAPPA">      0.00000000</i>
   <v name="OFIELD_K">      0.00000000      0.00000000      0.00000000</v>
   <i name="OFIELD_Q6_NEAR">      0.00000000</i>
   <i name="OFIELD_Q6_FAR">      0.00000000</i>
   <i name="OFIELD_A">      0.00000000</i>
  </separator>
 </parameters>
 <atominfo>
  <atoms>      12 </atoms>
  <types>       3 </types>
  <array name="atoms" >
   <dimension dim="1">ion</dimension>
   <field type="string">element</field>
   <field type="int">atomtype</field>
   <set>
    <rc><c>B </c><c>   1</c></rc>
    <rc><c>B </c><c>   1</c></rc>
    <rc><c>B </c><c>   1</c></rc>
    <rc><c>B </c><c>   1</c></rc>
    <rc><c>Mo</c><c>   2</c></rc>
    <rc><c>Mo</c><c>   2</c></rc>
    <rc><c>Mo</c><c>   2</c></rc>
    <rc><c>Mo</c><c>   2</c></rc>
    <rc><c>Mo</c><c>   2</c></rc>
    <rc><c>Mo</c><c>   2</c></rc>
    <rc><c>Si</c><c>   3</c></rc>
    <rc><c>Si</c><c>   3</c></rc>
   </set>
  </array>
  <array name="atomtypes" >
   <dimension dim="1">type</dimension>
   <field type="int">atomspertype</field>
   <field type="string">element</field>
   <field>mass</field>
   <field>valence</field>
   <field type="string">pseudopotential</field>
   <set>
    <rc><c>   4</c><c>B </c><c>     10.81100000</c><c>      3.00000000</c><c>  PAW_PBE B 06Sep2000                   </c></rc>
    <rc><c>   6</c><c>Mo</c><c>     95.94000000</c><c>     14.00000000</c><c>  PAW_PBE Mo_sv 02Feb2006               </c></rc>
    <rc><c>   2</c><c>Si</c><c>     28.08500000</c><c>      4.00000000</c><c>  PAW_PBE Si 05Jan2001                  </c></rc>
   </set>
  </array>
 </atominfo>
 <structure name="initialpos" >
  <crystal>
   <varray name="basis" >
    <v>       4.94585852       0.00000000      -2.84296111 </v>
    <v>      -1.65595522       4.66040007      -2.84296111 </v>
    <v>       0.00000000       0.00000000       5.70473000 </v>
   </varray>
   <i name="volume">    131.49219764 </i>
   <varray name="rec_basis" >
    <v>       0.20218937       0.07184287       0.00000000 </v>
    <v>       0.00000000       0.21457385       0.00000000 </v>
    <v>       0.10076139       0.14273622       0.17529313 </v>
   </varray>
  </crystal>
  <varray name="positions" >
   <v>       0.50000000       0.00000000       0.00000000 </v>
   <v>       0.00000000       0.00000000       0.50000000 </v>
   <v>       0.00000000       0.50000000       0.00000000 </v>
   <v>       0.50000000       0.50000000       0.50000000 </v>
   <v>       0.74893000       0.24893000       0.99787000 </v>
   <v>       0.25000000       0.25000000       0.00000000 </v>
   <v>       0.25107000       0.75107000       0.00213000 </v>
   <v>       0.75000000       0.75000000       0.00000000 </v>
   <v>       0.24893000       0.25107000       0.50000000 </v>
   <v>       0.75107000       0.74893000       0.50000000 </v>
   <v>       0.25000000       0.75000000       0.50000000 </v>
   <v>       0.75000000       0.25000000       0.50000000 </v>
  </varray>
 </structure>
 <calculation>
  <scstep>
   <time name="total">   24.99   25.22</time>
   <energy>
    <i name="alphaZ">    710.53041003 </i>
    <i name="ewald"> -10087.13179712 </i>
    <i name="hartreedc">  -2162.56459080 </i>
    <i name="XCdc">    493.17965843 </i>
    <i name="pawpsdc">   9250.47132855 </i>
    <i name="pawaedc">  -9210.50234729 </i>
    <i name="eentropy">     -0.00054055 </i>
    <i name="bandstr">    472.00487814 </i>
    <i name="atom">  11664.50664672 </i>
    <i name="e_fr_energy">   1130.49364612 </i>
    <i name="e_wo_entrp">   1130.49418667 </i>
    <i name="e_0_energy">   1130.49391639 </i>
   </energy>
  </scstep>
  <scstep>
   <time name="total">   25.19   25.42</time>
   <energy>
    <i name="e_fr_energy">   -189.06334863 </i>
    <i name="e_wo_entrp">   -189.06258493 </i>
    <i name="e_0_energy">   -189.06296678 </i>
   </energy>
  </scstep>
  <scstep>
   <time name="total">   27.83   28.09</time>
   <energy>
    <i name="e_fr_energy">   -244.67847424 </i>
    <i name="e_wo_entrp">   -244.67784745 </i>
    <i name="e_0_energy">   -244.67816085 </i>
   </energy>
  </scstep>
  <scstep>
   <time name="total">   25.81   26.10</time>
   <energy>
    <i name="e_fr_energy">   -245.80575003 </i>
    <i name="e_wo_entrp">   -245.80504787 </i>
    <i name="e_0_energy">   -245.80539895 </i>
   </energy>
  </scstep>
  <scstep>
   <time name="total">   28.18   28.44</time>
   <energy>
    <i name="e_fr_energy">   -245.82055818 </i>
    <i name="e_wo_entrp">   -245.81985966 </i>
    <i name="e_0_energy">   -245.82020892 </i>
   </energy>
  </scstep>
  <scstep>
   <time name="total">   30.14   30.39</time>
   <energy>
    <i name="e_fr_energy">   -153.58728019 </i>
    <i name="e_wo_entrp">   -153.58683616 </i>
    <i name="e_0_energy">   -153.58705818 </i>
   </energy>
  </scstep>
  <scstep>
   <time name="total">   30.71   30.95</time>
   <energy>
    <i name="e_fr_energy">   -187.54179631 </i>
    <i name="e_wo_entrp">   -187.54075625 </i>
    <i name="e_0_energy">   -187.54127628 </i>
   </energy>
  </scstep>
  <scstep>
   <time name="total">   30.48   30.73</time>
   <energy>
    <i name="e_fr_energy">   -192.44556905 </i>
    <i name="e_wo_entrp">   -192.44449623 </i>
    <i name="e_0_energy">   -192.44503264 </i>
   </energy>
  </scstep>
  <scstep>
   <time name="total">   30.18   30.44</time>
   <energy>
    <i name="e_fr_energy">   -193.66621902 </i>
    <i name="e_wo_entrp">   -193.66537274 </i>
    <i name="e_0_energy">   -193.66579588 </i>
   </energy>
  </scstep>
  <scstep>
   <time name="total">   30.65   30.90</time>
   <energy>
    <i name="e_fr_energy">   -194.00824880 </i>
    <i name="e_wo_entrp">   -194.00716767 </i>
    <i name="e_0_energy">   -194.00770824 </i>
   </energy>
  </scstep>
  <scstep>
   <time name="total">   30.70   30.95</time>
   <energy>
    <i name="e_fr_energy">   -194.10494669 </i>
    <i name="e_wo_entrp">   -194.10385205 </i>
    <i name="e_0_energy">   -194.10439937 </i>
   </energy>
  </scstep>
  <scstep>
   <time name="total">   30.18   30.44</time>
   <energy>
    <i name="e_fr_energy">   -194.14756746 </i>
    <i name="e_wo_entrp">   -194.14646310 </i>
    <i name="e_0_energy">   -194.14701528 </i>
   </energy>
  </scstep>
  <scstep>
   <time name="total">   30.89   31.14</time>
   <energy>
    <i name="e_fr_energy">   -194.16088433 </i>
    <i name="e_wo_entrp">   -194.15976457 </i>
    <i name="e_0_energy">   -194.16032445 </i>
   </energy>
  </scstep>
  <scstep>
   <time name="total">   30.39   30.63</time>
   <energy>
    <i name="e_fr_energy">   -194.16670110 </i>
    <i name="e_wo_entrp">   -194.16557373 </i>
    <i name="e_0_energy">   -194.16613741 </i>
   </energy>
  </scstep>
  <scstep>
   <time name="total">   30.24   30.50</time>
   <energy>
    <i name="e_fr_energy">   -194.16856439 </i>
    <i name="e_wo_entrp">   -194.16744539 </i>
    <i name="e_0_energy">   -194.16800489 </i>
   </energy>
  </scstep>
  <scstep>
   <time name="total">   30.96   31.22</time>
   <energy>
    <i name="e_fr_energy">   -194.16916657 </i>
    <i name="e_wo_entrp">   -194.16803958 </i>
    <i name="e_0_energy">   -194.16860307 </i>
   </energy>
  </scstep>
  <scstep>
   <time name="total">   30.51   30.76</time>
   <energy>
    <i name="e_fr_energy">   -194.16940904 </i>
    <i name="e_wo_entrp">   -194.16828341 </i>
    <i name="e_0_energy">   -194.16884623 </i>
   </energy>
  </scstep>
  <scstep>
   <time name="total">   30.85   31.10</time>
   <energy>
    <i name="e_fr_energy">   -194.16952065 </i>
    <i name="e_wo_entrp">   -194.16839302 </i>
    <i name="e_0_energy">   -194.16895684 </i>
   </energy>
  </scstep>
  <scstep>
   <time name="total">   30.62   30.87</time>
   <energy>
    <i name="e_fr_energy">   -194.16955627 </i>
    <i name="e_wo_entrp">   -194.16842952 </i>
    <i name="e_0_energy">   -194.16899289 </i>
   </energy>
  </scstep>
  <scstep>
   <time name="total">   29.71   29.96</time>
   <energy>
    <i name="e_fr_energy">   -194.16956642 </i>
    <i name="e_wo_entrp">   -194.16843852 </i>
    <i name="e_0_energy">   -194.16900247 </i>
   </energy>
  </scstep>
  <scstep>
   <time name="total">   28.75   28.99</time>
   <energy>
    <i name="e_fr_energy">   -194.16957070 </i>
    <i name="e_wo_entrp">   -194.16844350 </i>
    <i name="e_0_energy">   -194.16900710 </i>
   </energy>
  </scstep>
  <scstep>
   <time name="total">   29.67   29.91</time>
   <energy>
    <i name="e_fr_energy">   -194.16957263 </i>
    <i name="e_wo_entrp">   -194.16844502 </i>
    <i name="e_0_energy">   -194.16900883 </i>
   </energy>
  </scstep>
  <scstep>
   <time name="total">   29.46   29.70</time>
   <energy>
    <i name="e_fr_energy">   -194.16957326 </i>
    <i name="e_wo_entrp">   -194.16844566 </i>
    <i name="e_0_energy">   -194.16900946 </i>
   </energy>
  </scstep>
  <scstep>
   <time name="total">   28.71   28.96</time>
   <energy>
    <i name="e_fr_energy">   -194.16957348 </i>
    <i name="e_wo_entrp">   -194.16844597 </i>
    <i name="e_0_energy">   -194.16900972 </i>
   </energy>
  </scstep>
  <scstep>
   <time name="total">   29.25   29.49</time>
   <energy>
    <i name="e_fr_energy">   -194.16957357 </i>
    <i name="e_wo_entrp">   -194.16844603 </i>
    <i name="e_0_energy">   -194.16900980 </i>
   </energy>
  </scstep>
  <scstep>
   <time name="total">   29.55   29.80</time>
   <energy>
    <i name="e_fr_energy">   -194.16957362 </i>
    <i name="e_wo_entrp">   -194.16844608 </i>
    <i name="e_0_energy">   -194.16900985 </i>
   </energy>
  </scstep>
  <scstep>
   <time name="total">   29.48   29.73</time>
   <energy>
    <i name="e_fr_energy">   -194.16957364 </i>
    <i name="e_wo_entrp">   -194.16844613 </i>
    <i name="e_0_energy">   -194.16900989 </i>
   </energy>
  </scstep>
  <scstep>
   <time name="total">   27.88   28.11</time>
   <energy>
    <i name="e_fr_energy">   -194.16957365 </i>
    <i name="e_wo_entrp">   -194.16844614 </i>
    <i name="e_0_energy">   -194.16900989 </i>
   </energy>
  </scstep>
  <scstep>
   <time name="total">   29.92   30.16</time>
   <energy>
    <i name="e_fr_energy">   -194.16957366 </i>
    <i name="e_wo_entrp">   -194.16844616 </i>
    <i name="e_0_energy">   -194.16900991 </i>
   </energy>
  </scstep>
  <scstep>
   <time name="total">   33.22   33.51</time>
   <energy>
    <i name="alphaZ">    710.53041003 </i>
    <i name="ewald"> -10087.13179712 </i>
    <i name="hartreedc">  -2021.79322513 </i>
    <i name="XCdc">    503.84816106 </i>
    <i name="pawpsdc">  14896.26603170 </i>
    <i name="pawaedc"> -14879.10253838 </i>
    <i name="eentropy">     -0.00112752 </i>
    <i name="bandstr">   -981.29213504 </i>
    <i name="atom">  11664.50664672 </i>
    <i name="e_fr_energy">   -194.16957366 </i>
    <i name="e_wo_entrp">   -194.16844615 </i>
    <i name="e_0_energy">   -194.16900991 </i>
   </energy>
  </scstep>
  <structure>
   <crystal>
    <varray name="basis" >
     <v>       4.94585852       0.00000000      -2.84296111 </v>
     <v>      -1.65595522       4.66040007      -2.84296111 </v>
     <v>       0.00000000       0.00000000       5.70473000 </v>
    </varray>
    <i name="volume">    131.49219764 </i>
    <varray name="rec_basis" >
     <v>       0.20218937       0.07184287       0.00000000 </v>
     <v>       0.00000000       0.21457385       0.00000000 </v>
     <v>       0.10076139       0.14273622       0.17529313 </v>
    </varray>
   </crystal>
   <varray name="positions" >
    <v>       0.50000000       0.00000000       0.00000000 </v>
    <v>       0.00000000       0.00000000       0.50000000 </v>
    <v>       0.00000000       0.50000000       0.00000000 </v>
    <v>       0.50000000       0.50000000       0.50000000 </v>
    <v>       0.74893000       0.24893000       0.99787000 </v>
    <v>       0.25000000       0.25000000       0.00000000 </v>
    <v>       0.25107000       0.75107000       0.00213000 </v>
    <v>       0.75000000       0.75000000       0.00000000 </v>
    <v>       0.24893000       0.25107000       0.50000000 </v>
    <v>       0.75107000       0.74893000       0.50000000 </v>
    <v>       0.25000000       0.75000000       0.50000000 </v>
    <v>       0.75000000       0.25000000       0.50000000 </v>
   </varray>
  </structure>
  <varray name="forces" >
   <v>       0.00000000       0.00000000       0.00000000 </v>
   <v>       0.00000000       0.00000000       0.00000000 </v>
   <v>       0.00000000       0.00000000       0.00000000 </v>
   <v>       0.00000000       0.00000000       0.00000000 </v>
   <v>       0.00000000       0.00000000       0.00000000 </v>
   <v>       0.00000000       0.00000000       0.00000000 </v>
   <v>       0.00000000       0.00000000       0.00000000 </v>
   <v>       0.00000000       0.00000000       0.00000000 </v>
   <v>       0.00000000       0.00000000       0.00000000 </v>
   <v>       0.00000000       0.00000000       0.00000000 </v>
   <v>       0.00000000       0.00000000       0.00000000 </v>
   <v>       0.00000000       0.00000000       0.00000000 </v>
  </varray>
  <varray name="stress" >
   <v>       0.00000000       0.00000000       0.00000000 </v>
   <v>       0.00000000       0.00000000       0.00000000 </v>
   <v>       0.00000000       0.00000000       0.00000000 </v>
  </varray>
  <energy>
   <i name="e_fr_energy">   -194.16957366 </i>
   <i name="e_wo_entrp">   -194.16844615 </i>
   <i name="e_0_energy">   -194.16900991 </i>
  </energy>
  <time name="totalsc">  888.72  896.26</time>
  <eigenvalues>
   <array>
    <dimension dim="1">band</dimension>
    <dimension dim="2">kpoint</dimension>
    <dimension dim="3">spin</dimension>
    <field>eigene</field>
    <field>occ</field>
    <set>
     <set comment="spin 1">
      <set comment="kpoint 1">
       <r>  -49.9484    1.0000 </r>
       <r>  -49.8043    1.0000 </r>
       <r>  -49.8042    1.0000 </r>
       <r>  -49.7535    1.0000 </r>
       <r>  -49.7297    1.0000 </r>
       <r>  -49.6839    1.0000 </r>
       <r>  -23.9963    1.0000 </r>
       <r>  -23.9961    1.0000 </r>
       <r>  -23.8581    1.0000 </r>
       <r>  -23.8451    1.0000 </r>
       <r>  -23.8448    1.0000 </r>
       <r>  -23.8147    1.0000 </r>
       <r>  -23.6783    1.0000 </r>
       <r>  -23.3992    1.0000 </r>
       <r>  -23.3083    1.0000 </r>
       <r>  -23.3082    1.0000 </r>
       <r>  -23.0321    1.0000 </r>
       <r>  -23.0320    1.0000 </r>
       <r>  -22.9095    1.0000 </r>
       <r>  -22.8257    1.0000 </r>
       <r>  -22.8255    1.0000 </r>
       <r>  -22.7729    1.0000 </r>
       <r>  -22.6629    1.0000 </r>
       <r>  -22.5992    1.0000 </r>
       <r>   -1.4062    1.0000 </r>
       <r>    0.5517    1.0000 </r>
       <r>    3.1051    1.0000 </r>
       <r>    4.8601    1.0000 </r>
       <r>    4.8601    1.0000 </r>
       <r>    5.7241    1.0000 </r>
       <r>    6.3074    1.0000 </r>
       <r>    6.3076    1.0000 </r>
       <r>    6.9102    1.0000 </r>
       <r>    6.9559    1.0000 </r>
       <r>    6.9559    1.0000 </r>
       <r>    7.0899    1.0000 </r>
       <r>    7.3532    1.0000 </r>
       <r>    8.3808    1.0000 </r>
       <r>    8.3809    1.0000 </r>
       <r>    8.5150    1.0000 </r>
       <r>    9.2947    1.0000 </r>
       <r>    9.5175    1.0000 </r>
       <r>    9.6697    1.0000 </r>
       <r>    9.6697    1.0000 </r>
       <r>   11.0118    1.0000 </r>
       <r>   11.0845    1.0000 </r>
       <r>   12.3936    1.0000 </r>
       <r>   12.5269    1.0000 </r>
       <r>   12.5270    1.0000 </r>
       <r>   12.6321    1.0000 </r>
       <r>   12.6322    1.0000 </r>
       <r>   13.1888    0.0000 </r>
       <r>   13.8429    0.0000 </r>
       <r>   14.5215    0.0000 </r>
       <r>   14.5651    0.0000 </r>
       <r>   14.8467    0.0000 </r>
       <r>   14.8625    0.0000 </r>
       <r>   14.8626    0.0000 </r>
       <r>   15.0437    0.0000 </r>
       <r>   15.2802    0.0000 </r>
       <r>   15.7828    0.0000 </r>
       <r>   15.8154    0.0000 </r>
       <r>   16.1916    0.0000 </r>
       <r>   16.1917    0.0000 </r>
       <r>   17.1888    0.0000 </r>
       <r>   18.0521    0.0000 </r>
      </set>
      <set comment="kpoint 2">
       <r>  -49.9425    1.0000 </r>
       <r>  -49.8076    1.0000 </r>
       <r>  -49.8015    1.0000 </r>
       <r>  -49.7532    1.0000 </r>
       <r>  -49.7326    1.0000 </r>
       <r>  -49.6870    1.0000 </r>
       <r>  -23.9820    1.0000 </r>
       <r>  -23.9776    1.0000 </r>
       <r>  -23.8417    1.0000 </r>
       <r>  -23.8295    1.0000 </r>
       <r>  -23.8235    1.0000 </r>
       <r>  -23.7921    1.0000 </r>
       <r>  -23.6634    1.0000 </r>
       <r>  -23.4035    1.0000 </r>
       <r>  -23.3209    1.0000 </r>
       <r>  -23.3004    1.0000 </r>
       <r>  -23.0537    1.0000 </r>
       <r>  -23.0498    1.0000 </r>
       <r>  -22.9250    1.0000 </r>
       <r>  -22.8577    1.0000 </r>
       <r>  -22.8280    1.0000 </r>
       <r>  -22.7863    1.0000 </r>
       <r>  -22.6767    1.0000 </r>
       <r>  -22.6138    1.0000 </r>
       <r>   -1.2880    1.0000 </r>
       <r>    0.6083    1.0000 </r>
       <r>    3.1234    1.0000 </r>
       <r>    4.3401    1.0000 </r>
       <r>    4.6295    1.0000 </r>
       <r>    6.1005    1.0000 </r>
       <r>    6.2854    1.0000 </r>
       <r>    6.5557    1.0000 </r>
       <r>    6.5982    1.0000 </r>
       <r>    6.9549    1.0000 </r>
       <r>    7.0756    1.0000 </r>
       <r>    7.1893    1.0000 </r>
       <r>    7.6341    1.0000 </r>
       <r>    8.3840    1.0000 </r>
       <r>    8.5628    1.0000 </r>
       <r>    8.7763    1.0000 </r>
       <r>    9.1614    1.0000 </r>
       <r>    9.4670    1.0000 </r>
       <r>    9.6999    1.0000 </r>
       <r>    9.7860    1.0000 </r>
       <r>   11.0165    1.0000 </r>
       <r>   11.0446    1.0000 </r>
       <r>   12.3724    1.0000 </r>
       <r>   12.4289    1.0000 </r>
       <r>   12.5722    1.0000 </r>
       <r>   12.6243    1.0000 </r>
       <r>   12.6571    1.0000 </r>
       <r>   13.1926    0.0000 </r>
       <r>   13.5055    0.0000 </r>
       <r>   13.5769    0.0000 </r>
       <r>   14.0747    0.0000 </r>
       <r>   14.7776    0.0000 </r>
       <r>   14.9225    0.0000 </r>
       <r>   15.0773    0.0000 </r>
       <r>   15.1576    0.0000 </r>
       <r>   15.5327    0.0000 </r>
       <r>   15.6412    0.0000 </r>
       <r>   16.0654    0.0000 </r>
       <r>   16.1229    0.0000 </r>
       <r>   16.1446    0.0000 </r>
       <r>   17.0338    0.0000 </r>
       <r>   17.8045    0.0000 </r>
      </set>
      <set comment="kpoint 3">
       <r>  -49.9257    1.0000 </r>
       <r>  -49.8199    1.0000 </r>
       <r>  -49.7935    1.0000 </r>
       <r>  -49.7492    1.0000 </r>
       <r>  -49.7407    1.0000 </r>
       <r>  -49.6961    1.0000 </r>
       <r>  -23.9512    1.0000 </r>
       <r>  -23.9255    1.0000 </r>
       <r>  -23.8500    1.0000 </r>
       <r>  -23.7729    1.0000 </r>
       <r>  -23.7454    1.0000 </r>
       <r>  -23.7120    1.0000 </r>
       <r>  -23.6132    1.0000 </r>
       <r>  -23.4146    1.0000 </r>
       <r>  -23.3564    1.0000 </r>
       <r>  -23.2691    1.0000 </r>
       <r>  -23.1210    1.0000 </r>
       <r>  -23.1046    1.0000 </r>
       <r>  -22.9767    1.0000 </r>
       <r>  -22.9622    1.0000 </r>
       <r>  -22.8330    1.0000 </r>
       <r>  -22.8110    1.0000 </r>
       <r>  -22.6983    1.0000 </r>
       <r>  -22.6478    1.0000 </r>
       <r>   -0.9479    1.0000 </r>
       <r>    0.7045    1.0000 </r>
       <r>    3.1853    1.0000 </r>
       <r>    3.6654    1.0000 </r>
       <r>    4.2089    1.0000 </r>
       <r>    5.3678    1.0000 </r>
       <r>    6.4872    1.0000 </r>
       <r>    7.0090    1.0000 </r>
       <r>    7.1947    1.0000 </r>
       <r>    7.2142    1.0000 </r>
       <r>    7.2579    1.0000 </r>
       <r>    7.4012    1.0000 </r>
       <r>    7.9016    1.0000 </r>
       <r>    8.4149    1.0000 </r>
       <r>    8.9605    1.0000 </r>
       <r>    8.9924    1.0000 </r>
       <r>    9.2279    1.0000 </r>
       <r>    9.4835    1.0000 </r>
       <r>    9.6434    1.0000 </r>
       <r>   10.0718    1.0000 </r>
       <r>   10.9733    1.0000 </r>
       <r>   11.0918    1.0000 </r>
       <r>   11.9425    1.0000 </r>
       <r>   12.0400    1.0000 </r>
       <r>   12.0593    1.0000 </r>
       <r>   12.4917    1.0000 </r>
       <r>   12.8454    1.0000 </r>
       <r>   12.9083    0.6442 </r>
       <r>   13.0310    0.0000 </r>
       <r>   13.4037    0.0000 </r>
       <r>   13.8334    0.0000 </r>
       <r>   14.4727    0.0000 </r>
       <r>   14.8240    0.0000 </r>
       <r>   14.8258    0.0000 </r>
       <r>   15.0400    0.0000 </r>
       <r>   15.0649    0.0000 </r>
       <r>   15.5171    0.0000 </r>
       <r>   15.8859    0.0000 </r>
       <r>   15.9109    0.0000 </r>
       <r>   16.1667    0.0000 </r>
       <r>   16.7673    0.0000 </r>
       <r>   17.2925    0.0000 </r>
      </set>
      <set comment="kpoint 4">
       <r>  -49.9006    1.0000 </r>
       <r>  -49.8425    1.0000 </r>
       <r>  -49.7814    1.0000 </r>
       <r>  -49.7529    1.0000 </r>
       <r>  -49.7391    1.0000 </r>
       <r>  -49.7094    1.0000 </r>
       <r>  -23.9191    1.0000 </r>
       <r>  -23.8674    1.0000 </r>
       <r>  -23.8514    1.0000 </r>
       <r>  -23.7419    1.0000 </r>
       <r>  -23.6410    1.0000 </r>
       <r>  -23.6033    1.0000 </r>
       <r>  -23.5035    1.0000 </r>
       <r>  -23.3978    1.0000 </r>
       <r>  -23.3968    1.0000 </r>
       <r>  -23.2320    1.0000 </r>
       <r>  -23.2126    1.0000 </r>
       <r>  -23.1975    1.0000 </r>
       <r>  -23.1303    1.0000 </r>
       <r>  -23.0559    1.0000 </r>
       <r>  -22.8365    1.0000 </r>
       <r>  -22.8277    1.0000 </r>
       <r>  -22.7080    1.0000 </r>
       <r>  -22.6814    1.0000 </r>
       <r>   -0.4335    1.0000 </r>
       <r>    0.6019    1.0000 </r>
       <r>    3.3087    1.0000 </r>
       <r>    3.3895    1.0000 </r>
       <r>    3.8185    1.0000 </r>
       <r>    4.4553    1.0000 </r>
       <r>    6.8362    1.0000 </r>
       <r>    7.1652    1.0000 </r>
       <r>    7.2569    1.0000 </r>
       <r>    7.4848    1.0000 </r>
       <r>    7.8622    1.0000 </r>
       <r>    8.0045    1.0000 </r>
       <r>    8.2933    1.0000 </r>
       <r>    8.6005    1.0000 </r>
       <r>    8.9017    1.0000 </r>
       <r>    9.1392    1.0000 </r>
       <r>    9.2661    1.0000 </r>
       <r>    9.4076    1.0000 </r>
       <r>    9.9236    1.0000 </r>
       <r>   10.3330    1.0000 </r>
       <r>   10.8580    1.0000 </r>
       <r>   10.9249    1.0000 </r>
       <r>   11.3111    1.0000 </r>
       <r>   11.6276    1.0000 </r>
       <r>   11.7670    1.0000 </r>
       <r>   12.3059    1.0000 </r>
       <r>   12.3378    1.0000 </r>
       <r>   12.7356    1.0000 </r>
       <r>   13.3524    0.0000 </r>
       <r>   13.4520    0.0000 </r>
       <r>   13.8628    0.0000 </r>
       <r>   14.1267    0.0000 </r>
       <r>   14.3678    0.0000 </r>
       <r>   14.4297    0.0000 </r>
       <r>   14.5748    0.0000 </r>
       <r>   14.8486    0.0000 </r>
       <r>   14.9068    0.0000 </r>
       <r>   16.2130    0.0000 </r>
       <r>   16.2449    0.0000 </r>
       <r>   16.2554    0.0000 </r>
       <r>   16.4625    0.0000 </r>
       <r>   16.5687    0.0000 </r>
      </set>
      <set comment="kpoint 5">
       <r>  -49.8712    1.0000 </r>
       <r>  -49.8712    1.0000 </r>
       <r>  -49.7672    1.0000 </r>
       <r>  -49.7672    1.0000 </r>
       <r>  -49.7247    1.0000 </r>
       <r>  -49.7247    1.0000 </r>
       <r>  -23.8909    1.0000 </r>
       <r>  -23.8908    1.0000 </r>
       <r>  -23.7773    1.0000 </r>
       <r>  -23.7773    1.0000 </r>
       <r>  -23.5701    1.0000 </r>
       <r>  -23.5701    1.0000 </r>
       <r>  -23.3589    1.0000 </r>
       <r>  -23.3588    1.0000 </r>
       <r>  -23.3252    1.0000 </r>
       <r>  -23.3251    1.0000 </r>
       <r>  -23.3114    1.0000 </r>
       <r>  -23.3113    1.0000 </r>
       <r>  -23.1388    1.0000 </r>
       <r>  -23.1388    1.0000 </r>
       <r>  -22.8354    1.0000 </r>
       <r>  -22.8354    1.0000 </r>
       <r>  -22.7025    1.0000 </r>
       <r>  -22.7024    1.0000 </r>
       <r>    0.1522    1.0000 </r>
       <r>    0.1528    1.0000 </r>
       <r>    3.5150    1.0000 </r>
       <r>    3.5164    1.0000 </r>
       <r>    3.7181    1.0000 </r>
       <r>    3.7186    1.0000 </r>
       <r>    7.0928    1.0000 </r>
       <r>    7.0942    1.0000 </r>
       <r>    7.3704    1.0000 </r>
       <r>    7.3717    1.0000 </r>
       <r>    8.4269    1.0000 </r>
       <r>    8.4271    1.0000 </r>
       <r>    8.8015    1.0000 </r>
       <r>    8.8020    1.0000 </r>
       <r>    8.8333    1.0000 </r>
       <r>    8.8339    1.0000 </r>
       <r>    9.0772    1.0000 </r>
       <r>    9.0776    1.0000 </r>
       <r>   10.3803    1.0000 </r>
       <r>   10.3805    1.0000 </r>
       <r>   10.5122    1.0000 </r>
       <r>   10.5129    1.0000 </r>
       <r>   11.5283    1.0000 </r>
       <r>   11.5285    1.0000 </r>
       <r>   12.0200    1.0000 </r>
       <r>   12.0202    1.0000 </r>
       <r>   12.2796    1.0000 </r>
       <r>   12.2799    1.0000 </r>
       <r>   13.5381    0.0000 </r>
       <r>   13.5383    0.0000 </r>
       <r>   13.8292    0.0000 </r>
       <r>   13.8296    0.0000 </r>
       <r>   14.0753    0.0000 </r>
       <r>   14.0756    0.0000 </r>
       <r>   14.5831    0.0000 </r>
       <r>   14.5834    0.0000 </r>
       <r>   15.4951    0.0000 </r>
       <r>   15.4952    0.0000 </r>
       <r>   16.4225    0.0000 </r>
       <r>   16.4226    0.0000 </r>
       <r>   16.6002    0.0000 </r>
       <r>   16.6024    0.0000 </r>
      </set>
      <set comment="kpoint 6">
       <r>  -49.9332    1.0000 </r>
       <r>  -49.8071    1.0000 </r>
       <r>  -49.8043    1.0000 </r>
       <r>  -49.7509    1.0000 </r>
       <r>  -49.7358    1.0000 </r>
       <r>  -49.6935    1.0000 </r>
       <r>  -23.9627    1.0000 </r>
       <r>  -23.9387    1.0000 </r>
       <r>  -23.8328    1.0000 </r>
       <r>  -23.8085    1.0000 </r>
       <r>  -23.7773    1.0000 </r>
       <r>  -23.7385    1.0000 </r>
       <r>  -23.6500    1.0000 </r>
       <r>  -23.4138    1.0000 </r>
       <r>  -23.3185    1.0000 </r>
       <r>  -23.3124    1.0000 </r>
       <r>  -23.1121    1.0000 </r>
       <r>  -23.0707    1.0000 </r>
       <r>  -22.9386    1.0000 </r>
       <r>  -22.8852    1.0000 </r>
       <r>  -22.8545    1.0000 </r>
       <r>  -22.8012    1.0000 </r>
       <r>  -22.6940    1.0000 </r>
       <r>  -22.6408    1.0000 </r>
       <r>   -1.0966    1.0000 </r>
       <r>    0.6922    1.0000 </r>
       <r>    3.2063    1.0000 </r>
       <r>    3.7937    1.0000 </r>
       <r>    4.3343    1.0000 </r>
       <r>    6.1799    1.0000 </r>
       <r>    6.3105    1.0000 </r>
       <r>    6.3848    1.0000 </r>
       <r>    6.9116    1.0000 </r>
       <r>    7.1562    1.0000 </r>
       <r>    7.1634    1.0000 </r>
       <r>    7.4437    1.0000 </r>
       <r>    7.7806    1.0000 </r>
       <r>    8.6745    1.0000 </r>
       <r>    8.6821    1.0000 </r>
       <r>    9.0206    1.0000 </r>
       <r>    9.0833    1.0000 </r>
       <r>    9.3005    1.0000 </r>
       <r>    9.7513    1.0000 </r>
       <r>    9.8237    1.0000 </r>
       <r>   10.9938    1.0000 </r>
       <r>   11.0501    1.0000 </r>
       <r>   12.2310    1.0000 </r>
       <r>   12.2609    1.0000 </r>
       <r>   12.4349    1.0000 </r>
       <r>   12.5278    1.0000 </r>
       <r>   12.6908    1.0000 </r>
       <r>   12.8900    0.9516 </r>
       <r>   13.1978    0.0000 </r>
       <r>   13.3296    0.0000 </r>
       <r>   13.8353    0.0000 </r>
       <r>   14.6851    0.0000 </r>
       <r>   14.7695    0.0000 </r>
       <r>   15.0347    0.0000 </r>
       <r>   15.0783    0.0000 </r>
       <r>   15.2437    0.0000 </r>
       <r>   15.6979    0.0000 </r>
       <r>   15.9946    0.0000 </r>
       <r>   16.0255    0.0000 </r>
       <r>   16.4021    0.0000 </r>
       <r>   16.6339    0.0000 </r>
       <r>   17.5211    0.0000 </r>
      </set>
      <set comment="kpoint 7">
       <r>  -49.9139    1.0000 </r>
       <r>  -49.8220    1.0000 </r>
       <r>  -49.7979    1.0000 </r>
       <r>  -49.7447    1.0000 </r>
       <r>  -49.7427    1.0000 </r>
       <r>  -49.7044    1.0000 </r>
       <r>  -23.9236    1.0000 </r>
       <r>  -23.8833    1.0000 </r>
       <r>  -23.8450    1.0000 </r>
       <r>  -23.7594    1.0000 </r>
       <r>  -23.6699    1.0000 </r>
       <r>  -23.6447    1.0000 </r>
       <r>  -23.6000    1.0000 </r>
       <r>  -23.4349    1.0000 </r>
       <r>  -23.3467    1.0000 </r>
       <r>  -23.2769    1.0000 </r>
       <r>  -23.2127    1.0000 </r>
       <r>  -23.1286    1.0000 </r>
       <r>  -22.9996    1.0000 </r>
       <r>  -22.9847    1.0000 </r>
       <r>  -22.8709    1.0000 </r>
       <r>  -22.8280    1.0000 </r>
       <r>  -22.7039    1.0000 </r>
       <r>  -22.6766    1.0000 </r>
       <r>   -0.7008    1.0000 </r>
       <r>    0.7681    1.0000 </r>
       <r>    3.1687    1.0000 </r>
       <r>    3.2722    1.0000 </r>
       <r>    4.0463    1.0000 </r>
       <r>    5.3984    1.0000 </r>
       <r>    6.4326    1.0000 </r>
       <r>    6.7363    1.0000 </r>
       <r>    7.1399    1.0000 </r>
       <r>    7.2442    1.0000 </r>
       <r>    7.7584    1.0000 </r>
       <r>    7.9656    1.0000 </r>
       <r>    8.0621    1.0000 </r>
       <r>    8.6264    1.0000 </r>
       <r>    8.9285    1.0000 </r>
       <r>    8.9974    1.0000 </r>
       <r>    9.4238    1.0000 </r>
       <r>    9.6020    1.0000 </r>
       <r>    9.6531    1.0000 </r>
       <r>   10.0224    1.0000 </r>
       <r>   10.9534    1.0000 </r>
       <r>   11.1536    1.0000 </r>
       <r>   11.1981    1.0000 </r>
       <r>   11.9626    1.0000 </r>
       <r>   11.9913    1.0000 </r>
       <r>   12.4373    1.0000 </r>
       <r>   12.6713    1.0000 </r>
       <r>   12.7888    1.0000 </r>
       <r>   13.0492    0.0000 </r>
       <r>   13.5573    0.0000 </r>
       <r>   13.6056    0.0000 </r>
       <r>   14.2231    0.0000 </r>
       <r>   14.5734    0.0000 </r>
       <r>   14.6042    0.0000 </r>
       <r>   14.9710    0.0000 </r>
       <r>   15.1624    0.0000 </r>
       <r>   15.5038    0.0000 </r>
       <r>   15.8030    0.0000 </r>
       <r>   15.8607    0.0000 </r>
       <r>   16.0354    0.0000 </r>
       <r>   16.7013    0.0000 </r>
       <r>   16.7610    0.0000 </r>
      </set>
      <set comment="kpoint 8">
       <r>  -49.8877    1.0000 </r>
       <r>  -49.8472    1.0000 </r>
       <r>  -49.7864    1.0000 </r>
       <r>  -49.7575    1.0000 </r>
       <r>  -49.7294    1.0000 </r>
       <r>  -49.7181    1.0000 </r>
       <r>  -23.8876    1.0000 </r>
       <r>  -23.8695    1.0000 </r>
       <r>  -23.8104    1.0000 </r>
       <r>  -23.7432    1.0000 </r>
       <r>  -23.5842    1.0000 </r>
       <r>  -23.5504    1.0000 </r>
       <r>  -23.4621    1.0000 </r>
       <r>  -23.4418    1.0000 </r>
       <r>  -23.3403    1.0000 </r>
       <r>  -23.3347    1.0000 </r>
       <r>  -23.2221    1.0000 </r>
       <r>  -23.2177    1.0000 </r>
       <r>  -23.1680    1.0000 </r>
       <r>  -23.0606    1.0000 </r>
       <r>  -22.8768    1.0000 </r>
       <r>  -22.8451    1.0000 </r>
       <r>  -22.7052    1.0000 </r>
       <r>  -22.7010    1.0000 </r>
       <r>   -0.1639    1.0000 </r>
       <r>    0.5723    1.0000 </r>
       <r>    2.8745    1.0000 </r>
       <r>    3.3100    1.0000 </r>
       <r>    3.9332    1.0000 </r>
       <r>    4.6300    1.0000 </r>
       <r>    6.6871    1.0000 </r>
       <r>    6.9502    1.0000 </r>
       <r>    7.1686    1.0000 </r>
       <r>    7.3624    1.0000 </r>
       <r>    8.3023    1.0000 </r>
       <r>    8.4190    1.0000 </r>
       <r>    8.5626    1.0000 </r>
       <r>    8.7087    1.0000 </r>
       <r>    8.9763    1.0000 </r>
       <r>    9.0934    1.0000 </r>
       <r>    9.3409    1.0000 </r>
       <r>    9.3733    1.0000 </r>
       <r>   10.0224    1.0000 </r>
       <r>   10.3157    1.0000 </r>
       <r>   10.5302    1.0000 </r>
       <r>   10.6718    1.0000 </r>
       <r>   11.4856    1.0000 </r>
       <r>   11.6716    1.0000 </r>
       <r>   11.7045    1.0000 </r>
       <r>   12.2390    1.0000 </r>
       <r>   12.3091    1.0000 </r>
       <r>   12.6148    1.0000 </r>
       <r>   13.4043    0.0000 </r>
       <r>   13.4314    0.0000 </r>
       <r>   13.5878    0.0000 </r>
       <r>   13.9971    0.0000 </r>
       <r>   14.0753    0.0000 </r>
       <r>   14.5417    0.0000 </r>
       <r>   14.7188    0.0000 </r>
       <r>   14.9123    0.0000 </r>
       <r>   15.2966    0.0000 </r>
       <r>   15.6195    0.0000 </r>
       <r>   15.9696    0.0000 </r>
       <r>   16.1166    0.0000 </r>
       <r>   16.4066    0.0000 </r>
       <r>   16.4900    0.0000 </r>
      </set>
      <set comment="kpoint 9">
       <r>  -49.8765    1.0000 </r>
       <r>  -49.8589    1.0000 </r>
       <r>  -49.7721    1.0000 </r>
       <r>  -49.7719    1.0000 </r>
       <r>  -49.7325    1.0000 </r>
       <r>  -49.7143    1.0000 </r>
       <r>  -23.9031    1.0000 </r>
       <r>  -23.8594    1.0000 </r>
       <r>  -23.7920    1.0000 </r>
       <r>  -23.7458    1.0000 </r>
       <r>  -23.5675    1.0000 </r>
       <r>  -23.5573    1.0000 </r>
       <r>  -23.4373    1.0000 </r>
       <r>  -23.3791    1.0000 </r>
       <r>  -23.3364    1.0000 </r>
       <r>  -23.3303    1.0000 </r>
       <r>  -23.2685    1.0000 </r>
       <r>  -23.2324    1.0000 </r>
       <r>  -23.1438    1.0000 </r>
       <r>  -23.1417    1.0000 </r>
       <r>  -22.8746    1.0000 </r>
       <r>  -22.8520    1.0000 </r>
       <r>  -22.7183    1.0000 </r>
       <r>  -22.6856    1.0000 </r>
       <r>    0.0562    1.0000 </r>
       <r>    0.3842    1.0000 </r>
       <r>    2.8727    1.0000 </r>
       <r>    3.2573    1.0000 </r>
       <r>    4.1850    1.0000 </r>
       <r>    4.2515    1.0000 </r>
       <r>    6.6555    1.0000 </r>
       <r>    6.9807    1.0000 </r>
       <r>    7.3074    1.0000 </r>
       <r>    7.4103    1.0000 </r>
       <r>    8.3191    1.0000 </r>
       <r>    8.4598    1.0000 </r>
       <r>    8.6275    1.0000 </r>
       <r>    8.8136    1.0000 </r>
       <r>    8.8872    1.0000 </r>
       <r>    9.0505    1.0000 </r>
       <r>    9.3038    1.0000 </r>
       <r>    9.3361    1.0000 </r>
       <r>   10.3059    1.0000 </r>
       <r>   10.3734    1.0000 </r>
       <r>   10.5034    1.0000 </r>
       <r>   10.6681    1.0000 </r>
       <r>   11.4217    1.0000 </r>
       <r>   11.5349    1.0000 </r>
       <r>   11.9002    1.0000 </r>
       <r>   12.1899    1.0000 </r>
       <r>   12.3465    1.0000 </r>
       <r>   12.3822    1.0000 </r>
       <r>   13.3090    0.0000 </r>
       <r>   13.5165    0.0000 </r>
       <r>   13.6515    0.0000 </r>
       <r>   13.7930    0.0000 </r>
       <r>   14.1364    0.0000 </r>
       <r>   14.3835    0.0000 </r>
       <r>   14.7145    0.0000 </r>
       <r>   14.7659    0.0000 </r>
       <r>   14.9410    0.0000 </r>
       <r>   15.9597    0.0000 </r>
       <r>   16.2715    0.0000 </r>
       <r>   16.3205    0.0000 </r>
       <r>   16.4169    0.0000 </r>
       <r>   16.5633    0.0000 </r>
      </set>
      <set comment="kpoint 10">
       <r>  -49.9047    1.0000 </r>
       <r>  -49.8327    1.0000 </r>
       <r>  -49.7855    1.0000 </r>
       <r>  -49.7574    1.0000 </r>
       <r>  -49.7448    1.0000 </r>
       <r>  -49.7007    1.0000 </r>
       <r>  -23.9444    1.0000 </r>
       <r>  -23.8582    1.0000 </r>
       <r>  -23.8380    1.0000 </r>
       <r>  -23.7388    1.0000 </r>
       <r>  -23.6576    1.0000 </r>
       <r>  -23.6435    1.0000 </r>
       <r>  -23.5106    1.0000 </r>
       <r>  -23.4306    1.0000 </r>
       <r>  -23.3699    1.0000 </r>
       <r>  -23.2288    1.0000 </r>
       <r>  -23.2217    1.0000 </r>
       <r>  -23.1196    1.0000 </r>
       <r>  -23.0841    1.0000 </r>
       <r>  -23.0656    1.0000 </r>
       <r>  -22.8633    1.0000 </r>
       <r>  -22.8521    1.0000 </r>
       <r>  -22.7146    1.0000 </r>
       <r>  -22.6589    1.0000 </r>
       <r>   -0.5206    1.0000 </r>
       <r>    0.7156    1.0000 </r>
       <r>    2.9039    1.0000 </r>
       <r>    3.2841    1.0000 </r>
       <r>    4.3450    1.0000 </r>
       <r>    4.8204    1.0000 </r>
       <r>    6.4131    1.0000 </r>
       <r>    7.0029    1.0000 </r>
       <r>    7.0707    1.0000 </r>
       <r>    7.5134    1.0000 </r>
       <r>    7.5734    1.0000 </r>
       <r>    8.1606    1.0000 </r>
       <r>    8.1893    1.0000 </r>
       <r>    8.6928    1.0000 </r>
       <r>    8.8189    1.0000 </r>
       <r>    9.0297    1.0000 </r>
       <r>    9.5547    1.0000 </r>
       <r>    9.6194    1.0000 </r>
       <r>    9.9493    1.0000 </r>
       <r>   10.2457    1.0000 </r>
       <r>   10.9125    1.0000 </r>
       <r>   11.0971    1.0000 </r>
       <r>   11.2586    1.0000 </r>
       <r>   11.7382    1.0000 </r>
       <r>   11.8890    1.0000 </r>
       <r>   12.2561    1.0000 </r>
       <r>   12.5041    1.0000 </r>
       <r>   12.9597    0.0005 </r>
       <r>   13.1385    0.0000 </r>
       <r>   13.4016    0.0000 </r>
       <r>   13.6591    0.0000 </r>
       <r>   14.0422    0.0000 </r>
       <r>   14.6132    0.0000 </r>
       <r>   14.6768    0.0000 </r>
       <r>   14.7202    0.0000 </r>
       <r>   14.9095    0.0000 </r>
       <r>   14.9914    0.0000 </r>
       <r>   15.8798    0.0000 </r>
       <r>   16.2760    0.0000 </r>
       <r>   16.2775    0.0000 </r>
       <r>   16.6397    0.0000 </r>
       <r>   16.8950    0.0000 </r>
      </set>
      <set comment="kpoint 11">
       <r>  -49.9272    1.0000 </r>
       <r>  -49.8140    1.0000 </r>
       <r>  -49.7968    1.0000 </r>
       <r>  -49.7519    1.0000 </r>
       <r>  -49.7445    1.0000 </r>
       <r>  -49.6907    1.0000 </r>
       <r>  -23.9823    1.0000 </r>
       <r>  -23.9164    1.0000 </r>
       <r>  -23.8251    1.0000 </r>
       <r>  -23.7869    1.0000 </r>
       <r>  -23.7563    1.0000 </r>
       <r>  -23.7382    1.0000 </r>
       <r>  -23.6026    1.0000 </r>
       <r>  -23.4182    1.0000 </r>
       <r>  -23.3364    1.0000 </r>
       <r>  -23.2766    1.0000 </r>
       <r>  -23.1287    1.0000 </r>
       <r>  -23.0524    1.0000 </r>
       <r>  -22.9872    1.0000 </r>
       <r>  -22.9405    1.0000 </r>
       <r>  -22.8487    1.0000 </r>
       <r>  -22.8391    1.0000 </r>
       <r>  -22.6970    1.0000 </r>
       <r>  -22.6282    1.0000 </r>
       <r>   -0.9820    1.0000 </r>
       <r>    0.7250    1.0000 </r>
       <r>    2.9520    1.0000 </r>
       <r>    3.6737    1.0000 </r>
       <r>    4.6530    1.0000 </r>
       <r>    5.6376    1.0000 </r>
       <r>    6.2486    1.0000 </r>
       <r>    6.6577    1.0000 </r>
       <r>    6.7829    1.0000 </r>
       <r>    6.9105    1.0000 </r>
       <r>    7.4169    1.0000 </r>
       <r>    7.7072    1.0000 </r>
       <r>    7.9938    1.0000 </r>
       <r>    8.4493    1.0000 </r>
       <r>    8.6958    1.0000 </r>
       <r>    8.9957    1.0000 </r>
       <r>    9.3410    1.0000 </r>
       <r>    9.7512    1.0000 </r>
       <r>    9.7913    1.0000 </r>
       <r>   10.1043    1.0000 </r>
       <r>   10.6220    1.0000 </r>
       <r>   11.2946    1.0000 </r>
       <r>   12.0566    1.0000 </r>
       <r>   12.1046    1.0000 </r>
       <r>   12.1719    1.0000 </r>
       <r>   12.5704    1.0000 </r>
       <r>   12.7275    1.0000 </r>
       <r>   12.8412    1.0000 </r>
       <r>   13.0918    0.0000 </r>
       <r>   13.3333    0.0000 </r>
       <r>   13.9602    0.0000 </r>
       <r>   14.6660    0.0000 </r>
       <r>   14.7749    0.0000 </r>
       <r>   14.9483    0.0000 </r>
       <r>   15.1592    0.0000 </r>
       <r>   15.3362    0.0000 </r>
       <r>   15.4356    0.0000 </r>
       <r>   15.8122    0.0000 </r>
       <r>   16.1245    0.0000 </r>
       <r>   16.1925    0.0000 </r>
       <r>   16.4235    0.0000 </r>
       <r>   17.3286    0.0000 </r>
      </set>
      <set comment="kpoint 12">
       <r>  -49.9404    1.0000 </r>
       <r>  -49.8044    1.0000 </r>
       <r>  -49.8044    1.0000 </r>
       <r>  -49.7535    1.0000 </r>
       <r>  -49.7357    1.0000 </r>
       <r>  -49.6860    1.0000 </r>
       <r>  -23.9974    1.0000 </r>
       <r>  -23.9613    1.0000 </r>
       <r>  -23.8319    1.0000 </r>
       <r>  -23.8199    1.0000 </r>
       <r>  -23.8182    1.0000 </r>
       <r>  -23.7957    1.0000 </r>
       <r>  -23.6489    1.0000 </r>
       <r>  -23.4061    1.0000 </r>
       <r>  -23.3090    1.0000 </r>
       <r>  -23.3062    1.0000 </r>
       <r>  -23.0703    1.0000 </r>
       <r>  -23.0324    1.0000 </r>
       <r>  -22.9385    1.0000 </r>
       <r>  -22.8615    1.0000 </r>
       <r>  -22.8424    1.0000 </r>
       <r>  -22.8040    1.0000 </r>
       <r>  -22.6770    1.0000 </r>
       <r>  -22.6091    1.0000 </r>
       <r>   -1.2489    1.0000 </r>
       <r>    0.6291    1.0000 </r>
       <r>    3.0310    1.0000 </r>
       <r>    4.1826    1.0000 </r>
       <r>    4.8665    1.0000 </r>
       <r>    6.2081    1.0000 </r>
       <r>    6.3339    1.0000 </r>
       <r>    6.3462    1.0000 </r>
       <r>    6.4503    1.0000 </r>
       <r>    6.6507    1.0000 </r>
       <r>    7.1848    1.0000 </r>
       <r>    7.3186    1.0000 </r>
       <r>    7.9907    1.0000 </r>
       <r>    8.2278    1.0000 </r>
       <r>    8.4618    1.0000 </r>
       <r>    8.8999    1.0000 </r>
       <r>    9.1570    1.0000 </r>
       <r>    9.7164    1.0000 </r>
       <r>    9.7208    1.0000 </r>
       <r>    9.8771    1.0000 </r>
       <r>   10.8275    1.0000 </r>
       <r>   11.1613    1.0000 </r>
       <r>   12.3678    1.0000 </r>
       <r>   12.4567    1.0000 </r>
       <r>   12.5467    1.0000 </r>
       <r>   12.6265    1.0000 </r>
       <r>   12.6556    1.0000 </r>
       <r>   13.0266    0.0000 </r>
       <r>   13.2076    0.0000 </r>
       <r>   13.5280    0.0000 </r>
       <r>   14.5558    0.0000 </r>
       <r>   14.8149    0.0000 </r>
       <r>   14.8996    0.0000 </r>
       <r>   14.9070    0.0000 </r>
       <r>   15.1583    0.0000 </r>
       <r>   15.6547    0.0000 </r>
       <r>   15.7053    0.0000 </r>
       <r>   15.9456    0.0000 </r>
       <r>   16.1011    0.0000 </r>
       <r>   16.2032    0.0000 </r>
       <r>   16.4571    0.0000 </r>
       <r>   16.8764    0.0000 </r>
      </set>
      <set comment="kpoint 13">
       <r>  -49.8935    1.0000 </r>
       <r>  -49.8276    1.0000 </r>
       <r>  -49.8046    1.0000 </r>
       <r>  -49.7549    1.0000 </r>
       <r>  -49.7307    1.0000 </r>
       <r>  -49.7149    1.0000 </r>
       <r>  -23.8680    1.0000 </r>
       <r>  -23.8553    1.0000 </r>
       <r>  -23.8380    1.0000 </r>
       <r>  -23.7130    1.0000 </r>
       <r>  -23.5790    1.0000 </r>
       <r>  -23.5678    1.0000 </r>
       <r>  -23.5358    1.0000 </r>
       <r>  -23.4568    1.0000 </r>
       <r>  -23.3394    1.0000 </r>
       <r>  -23.3365    1.0000 </r>
       <r>  -23.2539    1.0000 </r>
       <r>  -23.1808    1.0000 </r>
       <r>  -23.0679    1.0000 </r>
       <r>  -23.0192    1.0000 </r>
       <r>  -22.9374    1.0000 </r>
       <r>  -22.8636    1.0000 </r>
       <r>  -22.7089    1.0000 </r>
       <r>  -22.6994    1.0000 </r>
       <r>   -0.2781    1.0000 </r>
       <r>    0.8161    1.0000 </r>
       <r>    2.5246    1.0000 </r>
       <r>    3.2200    1.0000 </r>
       <r>    4.1245    1.0000 </r>
       <r>    5.6369    1.0000 </r>
       <r>    5.7352    1.0000 </r>
       <r>    6.8905    1.0000 </r>
       <r>    6.9242    1.0000 </r>
       <r>    7.3808    1.0000 </r>
       <r>    8.3386    1.0000 </r>
       <r>    8.4776    1.0000 </r>
       <r>    8.5466    1.0000 </r>
       <r>    8.6452    1.0000 </r>
       <r>    8.7846    1.0000 </r>
       <r>    9.2403    1.0000 </r>
       <r>    9.6565    1.0000 </r>
       <r>    9.7702    1.0000 </r>
       <r>    9.8158    1.0000 </r>
       <r>    9.9317    1.0000 </r>
       <r>   10.4795    1.0000 </r>
       <r>   10.8832    1.0000 </r>
       <r>   11.3256    1.0000 </r>
       <r>   11.6616    1.0000 </r>
       <r>   11.9126    1.0000 </r>
       <r>   12.2882    1.0000 </r>
       <r>   12.3404    1.0000 </r>
       <r>   13.1017    0.0000 </r>
       <r>   13.1585    0.0000 </r>
       <r>   13.1945    0.0000 </r>
       <r>   13.7896    0.0000 </r>
       <r>   13.8333    0.0000 </r>
       <r>   14.0913    0.0000 </r>
       <r>   14.7869    0.0000 </r>
       <r>   15.0210    0.0000 </r>
       <r>   15.1169    0.0000 </r>
       <r>   15.4100    0.0000 </r>
       <r>   15.4583    0.0000 </r>
       <r>   15.5467    0.0000 </r>
       <r>   15.8207    0.0000 </r>
       <r>   16.3021    0.0000 </r>
       <r>   16.5629    0.0000 </r>
      </set>
      <set comment="kpoint 14">
       <r>  -49.8680    1.0000 </r>
       <r>  -49.8486    1.0000 </r>
       <r>  -49.7980    1.0000 </r>
       <r>  -49.7683    1.0000 </r>
       <r>  -49.7274    1.0000 </r>
       <r>  -49.7165    1.0000 </r>
       <r>  -23.8941    1.0000 </r>
       <r>  -23.8207    1.0000 </r>
       <r>  -23.7730    1.0000 </r>
       <r>  -23.6920    1.0000 </r>
       <r>  -23.5198    1.0000 </r>
       <r>  -23.5160    1.0000 </r>
       <r>  -23.4664    1.0000 </r>
       <r>  -23.4624    1.0000 </r>
       <r>  -23.3791    1.0000 </r>
       <r>  -23.3142    1.0000 </r>
       <r>  -23.2637    1.0000 </r>
       <r>  -23.2039    1.0000 </r>
       <r>  -23.1743    1.0000 </r>
       <r>  -23.0857    1.0000 </r>
       <r>  -22.9679    1.0000 </r>
       <r>  -22.8883    1.0000 </r>
       <r>  -22.7328    1.0000 </r>
       <r>  -22.6856    1.0000 </r>
       <r>    0.2401    1.0000 </r>
       <r>    0.6145    1.0000 </r>
       <r>    2.1591    1.0000 </r>
       <r>    3.1028    1.0000 </r>
       <r>    4.3808    1.0000 </r>
       <r>    5.0501    1.0000 </r>
       <r>    6.0715    1.0000 </r>
       <r>    6.6316    1.0000 </r>
       <r>    7.1705    1.0000 </r>
       <r>    7.4303    1.0000 </r>
       <r>    8.3725    1.0000 </r>
       <r>    8.4315    1.0000 </r>
       <r>    8.8968    1.0000 </r>
       <r>    8.9542    1.0000 </r>
       <r>    9.0903    1.0000 </r>
       <r>    9.2871    1.0000 </r>
       <r>    9.4527    1.0000 </r>
       <r>    9.5558    1.0000 </r>
       <r>   10.0592    1.0000 </r>
       <r>   10.2805    1.0000 </r>
       <r>   10.3513    1.0000 </r>
       <r>   10.7811    1.0000 </r>
       <r>   11.4210    1.0000 </r>
       <r>   11.6839    1.0000 </r>
       <r>   11.7856    1.0000 </r>
       <r>   12.1039    1.0000 </r>
       <r>   12.2933    1.0000 </r>
       <r>   12.5783    1.0000 </r>
       <r>   13.3183    0.0000 </r>
       <r>   13.4253    0.0000 </r>
       <r>   13.6283    0.0000 </r>
       <r>   13.7289    0.0000 </r>
       <r>   13.9542    0.0000 </r>
       <r>   14.6093    0.0000 </r>
       <r>   14.7706    0.0000 </r>
       <r>   14.9894    0.0000 </r>
       <r>   15.2117    0.0000 </r>
       <r>   15.3935    0.0000 </r>
       <r>   15.8029    0.0000 </r>
       <r>   15.8452    0.0000 </r>
       <r>   16.2461    0.0000 </r>
       <r>   16.4106    0.0000 </r>
      </set>
      <set comment="kpoint 15">
       <r>  -49.8750    1.0000 </r>
       <r>  -49.8416    1.0000 </r>
       <r>  -49.7845    1.0000 </r>
       <r>  -49.7817    1.0000 </r>
       <r>  -49.7403    1.0000 </r>
       <r>  -49.7035    1.0000 </r>
       <r>  -23.9439    1.0000 </r>
       <r>  -23.7935    1.0000 </r>
[...]
       <r>    9.8724    1.0000 </r>
       <r>   10.1107    1.0000 </r>
       <r>   10.8910    1.0000 </r>
       <r>   10.9376    1.0000 </r>
       <r>   11.0776    1.0000 </r>
       <r>   11.8969    1.0000 </r>
       <r>   11.9170    1.0000 </r>
       <r>   12.3569    1.0000 </r>
       <r>   12.6052    1.0000 </r>
       <r>   12.7664    1.0000 </r>
       <r>   13.0571    0.0000 </r>
       <r>   13.4044    0.0000 </r>
       <r>   13.6069    0.0000 </r>
       <r>   13.9134    0.0000 </r>
       <r>   14.3864    0.0000 </r>
       <r>   14.6992    0.0000 </r>
       <r>   14.8841    0.0000 </r>
       <r>   15.0648    0.0000 </r>
       <r>   15.1123    0.0000 </r>
       <r>   15.8207    0.0000 </r>
       <r>   15.8553    0.0000 </r>
       <r>   16.0609    0.0000 </r>
       <r>   16.4913    0.0000 </r>
       <r>   16.5672    0.0000 </r>
      </set>
      <set comment="kpoint 165">
       <r>  -49.8949    1.0000 </r>
       <r>  -49.8163    1.0000 </r>
       <r>  -49.8049    1.0000 </r>
       <r>  -49.7703    1.0000 </r>
       <r>  -49.7422    1.0000 </r>
       <r>  -49.6976    1.0000 </r>
       <r>  -23.9674    1.0000 </r>
       <r>  -23.7999    1.0000 </r>
       <r>  -23.7895    1.0000 </r>
       <r>  -23.7550    1.0000 </r>
       <r>  -23.6253    1.0000 </r>
       <r>  -23.5719    1.0000 </r>
       <r>  -23.5005    1.0000 </r>
       <r>  -23.4361    1.0000 </r>
       <r>  -23.3101    1.0000 </r>
       <r>  -23.3008    1.0000 </r>
       <r>  -23.2834    1.0000 </r>
       <r>  -23.0947    1.0000 </r>
       <r>  -23.0658    1.0000 </r>
       <r>  -23.0626    1.0000 </r>
       <r>  -22.9580    1.0000 </r>
       <r>  -22.9308    1.0000 </r>
       <r>  -22.7164    1.0000 </r>
       <r>  -22.6488    1.0000 </r>
       <r>   -0.3058    1.0000 </r>
       <r>    0.9097    1.0000 </r>
       <r>    2.4194    1.0000 </r>
       <r>    2.8068    1.0000 </r>
       <r>    4.6586    1.0000 </r>
       <r>    5.7923    1.0000 </r>
       <r>    6.0843    1.0000 </r>
       <r>    6.3395    1.0000 </r>
       <r>    6.6812    1.0000 </r>
       <r>    7.5703    1.0000 </r>
       <r>    7.7689    1.0000 </r>
       <r>    8.1853    1.0000 </r>
       <r>    8.7046    1.0000 </r>
       <r>    8.7577    1.0000 </r>
       <r>    8.8356    1.0000 </r>
       <r>    8.9773    1.0000 </r>
       <r>    9.9058    1.0000 </r>
       <r>    9.9161    1.0000 </r>
       <r>   10.0696    1.0000 </r>
       <r>   10.0922    1.0000 </r>
       <r>   10.8142    1.0000 </r>
       <r>   11.0391    1.0000 </r>
       <r>   11.1316    1.0000 </r>
       <r>   11.8469    1.0000 </r>
       <r>   12.0119    1.0000 </r>
       <r>   12.4325    1.0000 </r>
       <r>   12.5659    1.0000 </r>
       <r>   12.8151    1.0000 </r>
       <r>   13.0202    0.0000 </r>
       <r>   13.0227    0.0000 </r>
       <r>   13.6401    0.0000 </r>
       <r>   13.9326    0.0000 </r>
       <r>   14.5032    0.0000 </r>
       <r>   14.5771    0.0000 </r>
       <r>   14.6363    0.0000 </r>
       <r>   15.0654    0.0000 </r>
       <r>   15.2706    0.0000 </r>
       <r>   15.5718    0.0000 </r>
       <r>   15.7534    0.0000 </r>
       <r>   16.2665    0.0000 </r>
       <r>   16.3549    0.0000 </r>
       <r>   16.8268    0.0000 </r>
      </set>
     </set>
    </set>
   </array>
  </eigenvalues>
  <separator name="orbital magnetization" >
   <v name="MAGDIPOLOUT">      0.00000000      0.00000000      0.00000000</v>
  </separator>
  <dos>
   <i name="efermi">     12.91349208 </i>
   <total>
    <array>
     <dimension dim="1">gridpoints</dimension>
     <dimension dim="2">spin</dimension>
     <field>energy</field>
     <field>total</field>
     <field>integrated</field>
     <set>
      <set comment="spin 1">
       <r>   -53.3547     0.0000     0.0000 </r>
       <r>   -53.1050     0.0000     0.0000 </r>
       <r>   -52.8552     0.0000     0.0000 </r>
       <r>   -52.6054     0.0000     0.0000 </r>
       <r>   -52.3556     0.0000     0.0000 </r>
       <r>   -52.1058     0.0000     0.0000 </r>
       <r>   -51.8560     0.0000     0.0000 </r>
       <r>   -51.6062     0.0000     0.0000 </r>
       <r>   -51.3564     0.0000     0.0000 </r>
       <r>   -51.1066     0.0000     0.0000 </r>
       <r>   -50.8568     0.0000     0.0000 </r>
       <r>   -50.6070     0.0000     0.0000 </r>
       <r>   -50.3572     0.0000     0.0000 </r>
       <r>   -50.1074     0.0000     0.0000 </r>
       <r>   -49.8576     8.0935     2.0217 </r>
       <r>   -49.6078    21.4201    12.0000 </r>
       <r>   -49.3580     0.0000    12.0000 </r>
       <r>   -49.1082     0.0000    12.0000 </r>
       <r>   -48.8584     0.0000    12.0000 </r>
       <r>   -48.6086     0.0000    12.0000 </r>
       <r>   -48.3588     0.0000    12.0000 </r>
       <r>   -48.1090     0.0000    12.0000 </r>
       <r>   -47.8592     0.0000    12.0000 </r>
       <r>   -47.6094     0.0000    12.0000 </r>
       <r>   -47.3596     0.0000    12.0000 </r>
       <r>   -47.1098     0.0000    12.0000 </r>
       <r>   -46.8600     0.0000    12.0000 </r>
       <r>   -46.6102     0.0000    12.0000 </r>
       <r>   -46.3604     0.0000    12.0000 </r>
       <r>   -46.1106     0.0000    12.0000 </r>
       <r>   -45.8608     0.0000    12.0000 </r>
       <r>   -45.6110     0.0000    12.0000 </r>
       <r>   -45.3612     0.0000    12.0000 </r>
       <r>   -45.1114     0.0000    12.0000 </r>
       <r>   -44.8616     0.0000    12.0000 </r>
       <r>   -44.6118     0.0000    12.0000 </r>
       <r>   -44.3620     0.0000    12.0000 </r>
       <r>   -44.1122     0.0000    12.0000 </r>
       <r>   -43.8624     0.0000    12.0000 </r>
       <r>   -43.6126     0.0000    12.0000 </r>
       <r>   -43.3628     0.0000    12.0000 </r>
       <r>   -43.1130     0.0000    12.0000 </r>
       <r>   -42.8632     0.0000    12.0000 </r>
       <r>   -42.6134     0.0000    12.0000 </r>
       <r>   -42.3636     0.0000    12.0000 </r>
       <r>   -42.1138     0.0000    12.0000 </r>
       <r>   -41.8641     0.0000    12.0000 </r>
       <r>   -41.6143     0.0000    12.0000 </r>
       <r>   -41.3645     0.0000    12.0000 </r>
       <r>   -41.1147     0.0000    12.0000 </r>
       <r>   -40.8649     0.0000    12.0000 </r>
       <r>   -40.6151     0.0000    12.0000 </r>
       <r>   -40.3653     0.0000    12.0000 </r>
       <r>   -40.1155     0.0000    12.0000 </r>
       <r>   -39.8657     0.0000    12.0000 </r>
       <r>   -39.6159     0.0000    12.0000 </r>
       <r>   -39.3661     0.0000    12.0000 </r>
       <r>   -39.1163     0.0000    12.0000 </r>
       <r>   -38.8665     0.0000    12.0000 </r>
       <r>   -38.6167     0.0000    12.0000 </r>
       <r>   -38.3669     0.0000    12.0000 </r>
       <r>   -38.1171     0.0000    12.0000 </r>
       <r>   -37.8673     0.0000    12.0000 </r>
       <r>   -37.6175     0.0000    12.0000 </r>
       <r>   -37.3677     0.0000    12.0000 </r>
       <r>   -37.1179     0.0000    12.0000 </r>
       <r>   -36.8681     0.0000    12.0000 </r>
       <r>   -36.6183     0.0000    12.0000 </r>
       <r>   -36.3685     0.0000    12.0000 </r>
       <r>   -36.1187     0.0000    12.0000 </r>
       <r>   -35.8689     0.0000    12.0000 </r>
       <r>   -35.6191     0.0000    12.0000 </r>
       <r>   -35.3693     0.0000    12.0000 </r>
       <r>   -35.1195     0.0000    12.0000 </r>
       <r>   -34.8697     0.0000    12.0000 </r>
       <r>   -34.6199     0.0000    12.0000 </r>
       <r>   -34.3701     0.0000    12.0000 </r>
       <r>   -34.1203     0.0000    12.0000 </r>
       <r>   -33.8705     0.0000    12.0000 </r>
       <r>   -33.6207     0.0000    12.0000 </r>
       <r>   -33.3709     0.0000    12.0000 </r>
       <r>   -33.1211     0.0000    12.0000 </r>
       <r>   -32.8713     0.0000    12.0000 </r>
       <r>   -32.6215     0.0000    12.0000 </r>
       <r>   -32.3717     0.0000    12.0000 </r>
       <r>   -32.1219     0.0000    12.0000 </r>
       <r>   -31.8721     0.0000    12.0000 </r>
       <r>   -31.6223     0.0000    12.0000 </r>
       <r>   -31.3725     0.0000    12.0000 </r>
       <r>   -31.1227     0.0000    12.0000 </r>
       <r>   -30.8729     0.0000    12.0000 </r>
       <r>   -30.6231     0.0000    12.0000 </r>
       <r>   -30.3734     0.0000    12.0000 </r>
       <r>   -30.1236     0.0000    12.0000 </r>
       <r>   -29.8738     0.0000    12.0000 </r>
       <r>   -29.6240     0.0000    12.0000 </r>
       <r>   -29.3742     0.0000    12.0000 </r>
       <r>   -29.1244     0.0000    12.0000 </r>
       <r>   -28.8746     0.0000    12.0000 </r>
       <r>   -28.6248     0.0000    12.0000 </r>
       <r>   -28.3750     0.0000    12.0000 </r>
       <r>   -28.1252     0.0000    12.0000 </r>
       <r>   -27.8754     0.0000    12.0000 </r>
       <r>   -27.6256     0.0000    12.0000 </r>
       <r>   -27.3758     0.0000    12.0000 </r>
       <r>   -27.1260     0.0000    12.0000 </r>
       <r>   -26.8762     0.0000    12.0000 </r>
       <r>   -26.6264     0.0000    12.0000 </r>
       <r>   -26.3766     0.0000    12.0000 </r>
       <r>   -26.1268     0.0000    12.0000 </r>
       <r>   -25.8770     0.0000    12.0000 </r>
       <r>   -25.6272     0.0000    12.0000 </r>
       <r>   -25.3774     0.0000    12.0000 </r>
       <r>   -25.1276     0.0000    12.0000 </r>
       <r>   -24.8778     0.0000    12.0000 </r>
       <r>   -24.6280     0.0000    12.0000 </r>
       <r>   -24.3782     0.0000    12.0000 </r>
       <r>   -24.1284     0.0000    12.0000 </r>
       <r>   -23.8786     7.2549    13.8122 </r>
       <r>   -23.6288    19.9956    21.3386 </r>
       <r>   -23.3790    20.3286    28.9044 </r>
       <r>   -23.1292    18.1549    36.4621 </r>
       <r>   -22.8794    12.5719    41.8765 </r>
       <r>   -22.6296    14.1555    47.8381 </r>
       <r>   -22.3798     0.0000    48.0000 </r>
       <r>   -22.1300     0.0000    48.0000 </r>
       <r>   -21.8802     0.0000    48.0000 </r>
       <r>   -21.6304     0.0000    48.0000 </r>
       <r>   -21.3806     0.0000    48.0000 </r>
       <r>   -21.1308     0.0000    48.0000 </r>
       <r>   -20.8810     0.0000    48.0000 </r>
       <r>   -20.6312     0.0000    48.0000 </r>
       <r>   -20.3814     0.0000    48.0000 </r>
       <r>   -20.1316     0.0000    48.0000 </r>
       <r>   -19.8818     0.0000    48.0000 </r>
       <r>   -19.6320     0.0000    48.0000 </r>
       <r>   -19.3822     0.0000    48.0000 </r>
       <r>   -19.1325     0.0000    48.0000 </r>
       <r>   -18.8827     0.0000    48.0000 </r>
       <r>   -18.6329     0.0000    48.0000 </r>
       <r>   -18.3831     0.0000    48.0000 </r>
       <r>   -18.1333     0.0000    48.0000 </r>
       <r>   -17.8835     0.0000    48.0000 </r>
       <r>   -17.6337     0.0000    48.0000 </r>
       <r>   -17.3839     0.0000    48.0000 </r>
       <r>   -17.1341     0.0000    48.0000 </r>
       <r>   -16.8843     0.0000    48.0000 </r>
       <r>   -16.6345     0.0000    48.0000 </r>
       <r>   -16.3847     0.0000    48.0000 </r>
       <r>   -16.1349     0.0000    48.0000 </r>
       <r>   -15.8851     0.0000    48.0000 </r>
       <r>   -15.6353     0.0000    48.0000 </r>
       <r>   -15.3855     0.0000    48.0000 </r>
       <r>   -15.1357     0.0000    48.0000 </r>
       <r>   -14.8859     0.0000    48.0000 </r>
       <r>   -14.6361     0.0000    48.0000 </r>
       <r>   -14.3863     0.0000    48.0000 </r>
       <r>   -14.1365     0.0000    48.0000 </r>
       <r>   -13.8867     0.0000    48.0000 </r>
       <r>   -13.6369     0.0000    48.0000 </r>
       <r>   -13.3871     0.0000    48.0000 </r>
       <r>   -13.1373     0.0000    48.0000 </r>
       <r>   -12.8875     0.0000    48.0000 </r>
       <r>   -12.6377     0.0000    48.0000 </r>
       <r>   -12.3879     0.0000    48.0000 </r>
       <r>   -12.1381     0.0000    48.0000 </r>
       <r>   -11.8883     0.0000    48.0000 </r>
       <r>   -11.6385     0.0000    48.0000 </r>
       <r>   -11.3887     0.0000    48.0000 </r>
       <r>   -11.1389     0.0000    48.0000 </r>
       <r>   -10.8891     0.0000    48.0000 </r>
       <r>   -10.6393     0.0000    48.0000 </r>
       <r>   -10.3895     0.0000    48.0000 </r>
       <r>   -10.1397     0.0000    48.0000 </r>
       <r>    -9.8899     0.0000    48.0000 </r>
       <r>    -9.6401     0.0000    48.0000 </r>
       <r>    -9.3903     0.0000    48.0000 </r>
       <r>    -9.1405     0.0000    48.0000 </r>
       <r>    -8.8907     0.0000    48.0000 </r>
       <r>    -8.6409     0.0000    48.0000 </r>
       <r>    -8.3911     0.0000    48.0000 </r>
       <r>    -8.1413     0.0000    48.0000 </r>
       <r>    -7.8915     0.0000    48.0000 </r>
       <r>    -7.6418     0.0000    48.0000 </r>
       <r>    -7.3920     0.0000    48.0000 </r>
       <r>    -7.1422     0.0000    48.0000 </r>
       <r>    -6.8924     0.0000    48.0000 </r>
       <r>    -6.6426     0.0000    48.0000 </r>
       <r>    -6.3928     0.0000    48.0000 </r>
       <r>    -6.1430     0.0000    48.0000 </r>
       <r>    -5.8932     0.0000    48.0000 </r>
       <r>    -5.6434     0.0000    48.0000 </r>
       <r>    -5.3936     0.0000    48.0000 </r>
       <r>    -5.1438     0.0000    48.0000 </r>
       <r>    -4.8940     0.0000    48.0000 </r>
       <r>    -4.6442     0.0000    48.0000 </r>
       <r>    -4.3944     0.0000    48.0000 </r>
       <r>    -4.1446     0.0000    48.0000 </r>
       <r>    -3.8948     0.0000    48.0000 </r>
       <r>    -3.6450     0.0000    48.0000 </r>
       <r>    -3.3952     0.0000    48.0000 </r>
       <r>    -3.1454     0.0000    48.0000 </r>
       <r>    -2.8956     0.0000    48.0000 </r>
       <r>    -2.6458     0.0000    48.0000 </r>
       <r>    -2.3960     0.0000    48.0000 </r>
       <r>    -2.1462     0.0000    48.0000 </r>
       <r>    -1.8964     0.0000    48.0000 </r>
       <r>    -1.6466     0.0000    48.0000 </r>
       <r>    -1.3968     0.0104    48.0026 </r>
       <r>    -1.1470     0.2202    48.0585 </r>
       <r>    -0.8972     0.4153    48.2114 </r>
       <r>    -0.6474     0.6405    48.3996 </r>
       <r>    -0.3976     0.5716    48.6046 </r>
       <r>    -0.1478     1.1131    48.9482 </r>
       <r>     0.1020     1.0590    49.2888 </r>
       <r>     0.3518     1.5477    49.8276 </r>
       <r>     0.6016     1.4385    50.3906 </r>
       <r>     0.8514     3.3584    51.5854 </r>
       <r>     1.1012     0.8123    51.9703 </r>
       <r>     1.3510     0.0171    52.0043 </r>
       <r>     1.6008     0.2198    52.0792 </r>
       <r>     1.8506     0.4278    52.2076 </r>
       <r>     2.1004     0.4457    52.3926 </r>
       <r>     2.3502     0.7529    52.6638 </r>
       <r>     2.6000     0.8877    53.0030 </r>
       <r>     2.8498     1.5421    53.5345 </r>
       <r>     3.0996     1.8515    54.2056 </r>
       <r>     3.3494     1.8924    54.9693 </r>
       <r>     3.5991     1.3389    55.4768 </r>
       <r>     3.8489     1.6470    56.1163 </r>
       <r>     4.0987     1.1689    56.5385 </r>
       <r>     4.3485     1.4031    57.1040 </r>
       <r>     4.5983     1.2561    57.5672 </r>
       <r>     4.8481     1.6624    58.3007 </r>
       <r>     5.0979     1.5985    58.9306 </r>
       <r>     5.3477     1.0033    59.3339 </r>
       <r>     5.5975     1.3049    59.8468 </r>
       <r>     5.8473     1.8983    60.4846 </r>
       <r>     6.0971     1.6355    61.1551 </r>
       <r>     6.3469     1.7837    61.8935 </r>
       <r>     6.5967     2.1099    62.7250 </r>
       <r>     6.8465     3.2610    63.9986 </r>
       <r>     7.0963     2.7985    65.0567 </r>
       <r>     7.3461     2.9709    66.2143 </r>
       <r>     7.5959     3.2763    67.4781 </r>
       <r>     7.8457     4.1645    69.2035 </r>
       <r>     8.0955     3.2369    70.2773 </r>
       <r>     8.3453     4.9378    71.9244 </r>
       <r>     8.5951     4.4071    73.6460 </r>
       <r>     8.8449     5.6542    75.7492 </r>
       <r>     9.0947     6.0444    78.1696 </r>
       <r>     9.3445     4.8344    80.1174 </r>
       <r>     9.5943     4.0543    81.9329 </r>
       <r>     9.8441     5.3954    84.1082 </r>
       <r>    10.0939     4.9106    85.8204 </r>
       <r>    10.3437     3.8662    87.3095 </r>
       <r>    10.5935     4.1690    89.0831 </r>
       <r>    10.8433     4.4134    90.6407 </r>
       <r>    11.0931     2.9442    91.8361 </r>
       <r>    11.3429     3.4507    93.1224 </r>
       <r>    11.5927     3.9952    94.6785 </r>
       <r>    11.8425     3.5555    96.0062 </r>
       <r>    12.0923     5.6106    98.2696 </r>
       <r>    12.3421     5.3357   100.2078 </r>
       <r>    12.5919     4.9394   102.1088 </r>
       <r>    12.8417     3.3494   103.6110 </r>
       <r>    13.0915     2.7958   104.8130 </r>
       <r>    13.3413     4.9571   106.5612 </r>
       <r>    13.5911     5.3053   108.7489 </r>
       <r>    13.8409     3.6854   110.2713 </r>
       <r>    14.0907     5.1352   112.0814 </r>
       <r>    14.3405     3.7962   113.5525 </r>
       <r>    14.5903     4.2585   115.0777 </r>
       <r>    14.8401     4.7810   116.8332 </r>
       <r>    15.0898     5.9671   119.0183 </r>
       <r>    15.3396     4.5075   120.7892 </r>
       <r>    15.5894     4.4644   122.4798 </r>
       <r>    15.8392     4.3118   124.0424 </r>
       <r>    16.0890     4.3797   125.8093 </r>
       <r>    16.3388     4.6311   127.6082 </r>
       <r>    16.5886     4.2348   129.4676 </r>
       <r>    16.8384     2.0106   130.4467 </r>
       <r>    17.0882     1.3475   131.0310 </r>
       <r>    17.3380     1.2002   131.4977 </r>
       <r>    17.5878     0.6107   131.7428 </r>
       <r>    17.8376     0.4451   131.8820 </r>
       <r>    18.0874     0.3041   131.9718 </r>
       <r>    18.3372     0.0278   132.0000 </r>
       <r>    18.5870     0.0000   132.0000 </r>
       <r>    18.8368     0.0000   132.0000 </r>
       <r>    19.0866     0.0000   132.0000 </r>
       <r>    19.3364     0.0000   132.0000 </r>
       <r>    19.5862     0.0000   132.0000 </r>
       <r>    19.8360     0.0000   132.0000 </r>
       <r>    20.0858     0.0000   132.0000 </r>
       <r>    20.3356     0.0000   132.0000 </r>
       <r>    20.5854     0.0000   132.0000 </r>
       <r>    20.8352     0.0000   132.0000 </r>
       <r>    21.0850     0.0000   132.0000 </r>
       <r>    21.3348     0.0000   132.0000 </r>
       <r>    21.5846     0.0000   132.0000 </r>
      </set>
     </set>
    </array>
   </total>
  </dos>
 </calculation>
 <structure name="finalpos" >
  <crystal>
   <varray name="basis" >
    <v>       4.94585852       0.00000000      -2.84296111 </v>
    <v>      -1.65595522       4.66040007      -2.84296111 </v>
    <v>       0.00000000       0.00000000       5.70473000 </v>
   </varray>
   <i name="volume">    131.49219764 </i>
   <varray name="rec_basis" >
    <v>       0.20218937       0.07184287       0.00000000 </v>
    <v>       0.00000000       0.21457385       0.00000000 </v>
    <v>       0.10076139       0.14273622       0.17529313 </v>
   </varray>
  </crystal>
  <varray name="positions" >
   <v>       0.50000000       0.00000000       0.00000000 </v>
   <v>       0.00000000       0.00000000       0.50000000 </v>
   <v>       0.00000000       0.50000000       0.00000000 </v>
   <v>       0.50000000       0.50000000       0.50000000 </v>
   <v>       0.74893000       0.24893000       0.99787000 </v>
   <v>       0.25000000       0.25000000       0.00000000 </v>
   <v>       0.25107000       0.75107000       0.00213000 </v>
   <v>       0.75000000       0.75000000       0.00000000 </v>
   <v>       0.24893000       0.25107000       0.50000000 </v>
   <v>       0.75107000       0.74893000       0.50000000 </v>
   <v>       0.25000000       0.75000000       0.50000000 </v>
   <v>       0.75000000       0.25000000       0.50000000 </v>
  </varray>
 </structure>
</modeling>
