 vasp.6.2.0 18Jan21 (build Jan 05 2022 15:41:44) complex                        
  
 executed on             LinuxIFC date 2025.05.07  18:40:11
 running on   24 total cores
 distrk:  each k-point on   12 cores,    2 groups
 distr:  one band on NCORE=   2 cores,    6 groups


--------------------------------------------------------------------------------------------------------


 INCAR:
   SYSTEM = routine with relax: pwdword
   ICHARG = 2
   NPAR = 6
   KPAR = 2
   NCORE = 2
   ADDGRID = T
   PREC = Acc
   ENCUT = 600
   METAGGA = R2SCAN
   LASPH = .TRUE.
   LMIXTAU = .FALSE.
   ALGO = A
   EDIFF = 1E-9
   NELM = 100
   NELMIN = 6
   IALGO = 38
   LREAL = F
   NSW = 0
   ISIF = -1
   ISMEAR = 0
   SIGMA = 0.02

 POTCAR:    PAW_PBE B 06Sep2000                   
 POTCAR:    PAW_PBE Mo_sv 02Feb2006               
 POTCAR:    PAW_PBE Si 05Jan2001                  
 -----------------------------------------------------------------------------
|                                                                             |
|           W    W    AA    RRRRR   N    N  II  N    N   GGGG   !!!           |
|           W    W   A  A   R    R  NN   N  II  NN   N  G    G  !!!           |
|           W    W  A    A  R    R  N N  N  II  N N  N  G       !!!           |
|           W WW W  AAAAAA  RRRRR   N  N N  II  N  N N  G  GGG   !            |
|           WW  WW  A    A  R   R   N   NN  II  N   NN  G    G                |
|           W    W  A    A  R    R  N    N  II  N    N   GGGG   !!!           |
|                                                                             |
|     For optimal performance we recommend to set                             |
|       NCORE = 2 up to number-of-cores-per-socket                            |
|     NCORE specifies how many cores store one orbital (NPAR=cpu/NCORE).      |
|     This setting can greatly improve the performance of VASP for DFT.       |
|     The default, NCORE=1 might be grossly inefficient on modern             |
|     multi-core architectures or massively parallel machines. Do your        |
|     own testing! More info at https://www.vasp.at/wiki/index.php/NCORE      |
|     Unfortunately you need to use the default for GW and RPA                |
|     calculations (for HF NCORE is supported but not extensively tested      |
|     yet).                                                                   |
|                                                                             |
 -----------------------------------------------------------------------------

 POTCAR:    PAW_PBE B 06Sep2000                   
   VRHFIN =B: s2p1                                                                                  
   LEXCH  = PE                                                                                      
   EATOM  =    71.1703 eV,    5.2309 Ry                                                             
                                                                                                    
   TITEL  = PAW_PBE B 06Sep2000                                                                     
   LULTRA =        F    use ultrasoft PP ?                                                          
   IUNSCR =        1    unscreen: 0-lin 1-nonlin 2-no                                               
   RPACOR =    1.200    partial core radius                                                         
   POMASS =   10.811; ZVAL   =    3.000    mass and valenz                                          
   RCORE  =    1.700    outmost cutoff radius                                                       
   RWIGS  =    1.710; RWIGS  =    0.905    wigner-seitz radius (au A)                               
   ENMAX  =  318.614; ENMIN  =  238.960 eV                                                          
   ICORE  =        2    local potential                                                             
   LCOR   =        T    correct aug charges                                                         
   LPAW   =        T    paw PP                                                                      
   EAUG   =  535.514                                                                                
   DEXC   =    0.000                                                                                
   RMAX   =    1.732    core radius for proj-oper                                                   
   RAUG   =    1.300    factor for augmentation sphere                                              
   RDEP   =    1.757    radius for radial grids                                                     
   RDEPT  =    1.436    core radius for aug-charge                                                  
                                                                                                    
   Atomic configuration                                                                             
    4 entries                                                                                       
     n  l   j            E        occ.                                                              
     1  0  0.50      -180.5896   2.0000                                                             
     2  0  0.50        -9.4431   2.0000                                                             
     2  1  0.50        -3.6068   1.0000                                                             
     3  2  1.50        -4.0817   0.0000                                                             
   Description                                                                                      
     l       E           TYP  RCUT    TYP  RCUT                                                     
     0     -9.4430752     23  1.500                                                                 
     0      0.8675899     23  1.500                                                                 
     1     -3.6067955     23  1.700                                                                 
     1      6.1086146     23  1.700                                                                 
     2     -4.0817478      7  1.700                                                                 
  local pseudopotential read in
  partial core-charges read in
  partial kinetic energy density read in
  atomic valenz-charges read in
  non local Contribution for L=           0  read in
    real space projection operators read in
  non local Contribution for L=           0  read in
    real space projection operators read in
  non local Contribution for L=           1  read in
    real space projection operators read in
  non local Contribution for L=           1  read in
    real space projection operators read in
    PAW grid and wavefunctions read in
 
   number of l-projection  operators is LMAX  =           4
   number of lm-projection operators is LMMAX =           8
 
 POTCAR:    PAW_PBE Mo_sv 02Feb2006               
   VRHFIN =Mo: 4p5s4d                                                                               
   LEXCH  = PE                                                                                      
   EATOM  =  1862.2866 eV,  136.8742 Ry                                                             
                                                                                                    
   TITEL  = PAW_PBE Mo_sv 02Feb2006                                                                 
   LULTRA =        F    use ultrasoft PP ?                                                          
   IUNSCR =        1    unscreen: 0-lin 1-nonlin 2-no                                               
   RPACOR =    2.200    partial core radius                                                         
   POMASS =   95.940; ZVAL   =   14.000    mass and valenz                                          
   RCORE  =    2.500    outmost cutoff radius                                                       
   RWIGS  =    2.750; RWIGS  =    1.455    wigner-seitz radius (au A)                               
   ENMAX  =  242.676; ENMIN  =  182.007 eV                                                          
   ICORE  =        3    local potential                                                             
   LCOR   =        T    correct aug charges                                                         
   LPAW   =        T    paw PP                                                                      
   EAUG   =  446.014                                                                                
   DEXC   =    0.000                                                                                
   RMAX   =    2.563    core radius for proj-oper                                                   
   RAUG   =    1.300    factor for augmentation sphere                                              
   RDEP   =    2.641    radius for radial grids                                                     
   RDEPT  =    2.031    core radius for aug-charge                                                  
                                                                                                    
   Atomic configuration                                                                             
   11 entries                                                                                       
     n  l   j            E        occ.                                                              
     1  0  0.50    -19819.0341   2.0000                                                             
     2  0  0.50     -2799.0127   2.0000                                                             
     2  1  1.50     -2502.0276   6.0000                                                             
     3  0  0.50      -476.4449   2.0000                                                             
     3  1  1.50      -379.1496   6.0000                                                             
     3  2  2.50      -220.9367  10.0000                                                             
     4  0  0.50       -64.3378   2.0000                                                             
     5  0  0.50        -4.0862   1.0000                                                             
     4  1  1.50       -38.4773   6.0000                                                             
     4  2  2.50        -3.7535   5.0000                                                             
     4  3  2.50        -1.3606   0.0000                                                             
   Description                                                                                      
     l       E           TYP  RCUT    TYP  RCUT                                                     
     0    -64.3377829     23  2.100                                                                 
     0     -4.0861640     23  2.400                                                                 
     1    -38.4772993     23  2.100                                                                 
     1     13.6058260     23  2.100                                                                 
     2     -3.7534941     23  2.400                                                                 
     2     -5.1140767     23  2.400                                                                 
     3     -4.0817478     23  2.500                                                                 
  local pseudopotential read in
  partial core-charges read in
  partial kinetic energy density read in
  atomic valenz-charges read in
  non local Contribution for L=           0  read in
    real space projection operators read in
  non local Contribution for L=           0  read in
    real space projection operators read in
  non local Contribution for L=           1  read in
    real space projection operators read in
  non local Contribution for L=           1  read in
    real space projection operators read in
  non local Contribution for L=           2  read in
    real space projection operators read in
  non local Contribution for L=           2  read in
    real space projection operators read in
    PAW grid and wavefunctions read in
 
   number of l-projection  operators is LMAX  =           6
   number of lm-projection operators is LMMAX =          18
 
 POTCAR:    PAW_PBE Si 05Jan2001                  
   VRHFIN =Si: s2p2                                                                                 
   LEXCH  = PE                                                                                      
   EATOM  =   103.0669 eV,    7.5752 Ry                                                             
                                                                                                    
   TITEL  = PAW_PBE Si 05Jan2001                                                                    
   LULTRA =        F    use ultrasoft PP ?                                                          
   IUNSCR =        1    unscreen: 0-lin 1-nonlin 2-no                                               
   RPACOR =    1.500    partial core radius                                                         
   POMASS =   28.085; ZVAL   =    4.000    mass and valenz                                          
   RCORE  =    1.900    outmost cutoff radius                                                       
   RWIGS  =    2.480; RWIGS  =    1.312    wigner-seitz radius (au A)                               
   ENMAX  =  245.345; ENMIN  =  184.009 eV                                                          
   ICORE  =        2    local potential                                                             
   LCOR   =        T    correct aug charges                                                         
   LPAW   =        T    paw PP                                                                      
   EAUG   =  322.069                                                                                
   DEXC   =    0.000                                                                                
   RMAX   =    1.950    core radius for proj-oper                                                   
   RAUG   =    1.300    factor for augmentation sphere                                              
   RDEP   =    1.993    radius for radial grids                                                     
   RDEPT  =    1.837    core radius for aug-charge                                                  
                                                                                                    
   Atomic configuration                                                                             
    6 entries                                                                                       
     n  l   j            E        occ.                                                              
     1  0  0.50     -1785.8828   2.0000                                                             
     2  0  0.50      -139.4969   2.0000                                                             
     2  1  1.50       -95.5546   6.0000                                                             
     3  0  0.50       -10.8127   2.0000                                                             
     3  1  0.50        -4.0811   2.0000                                                             
     3  2  1.50        -4.0817   0.0000                                                             
   Description                                                                                      
     l       E           TYP  RCUT    TYP  RCUT                                                     
     0    -10.8127223     23  1.900                                                                 
     0     -7.6451159     23  1.900                                                                 
     1     -4.0811372     23  1.900                                                                 
     1      2.4879257     23  1.900                                                                 
     2     -4.0817478      7  1.900                                                                 
  local pseudopotential read in
  partial core-charges read in
  partial kinetic energy density read in
  atomic valenz-charges read in
  non local Contribution for L=           0  read in
    real space projection operators read in
  non local Contribution for L=           0  read in
    real space projection operators read in
  non local Contribution for L=           1  read in
    real space projection operators read in
  non local Contribution for L=           1  read in
    real space projection operators read in
    PAW grid and wavefunctions read in
 
   number of l-projection  operators is LMAX  =           4
   number of lm-projection operators is LMMAX =           8
 
  PAW_PBE B 06Sep2000                   :
 energy of atom  1       EATOM=  -71.1703
 kinetic energy error for atom=    0.0007 (will be added to EATOM!!)
  PAW_PBE Mo_sv 02Feb2006               :
 energy of atom  2       EATOM=-1862.2866
 kinetic energy error for atom=    0.0041 (will be added to EATOM!!)
  PAW_PBE Si 05Jan2001                  :
 energy of atom  3       EATOM= -103.0669
 kinetic energy error for atom=    0.0003 (will be added to EATOM!!)
 
 
 POSCAR: EA165
  positions in direct lattice
  No initial velocities read in

 METAGGA = R2SCA    LMAXTAU =  6    LMIXTAU =  F

 exchange correlation table for  LEXCH =        8
   RHO(1)=    0.500       N(1)  =     2000
   RHO(2)=  100.500       N(2)  =     4000
 


--------------------------------------------------------------------------------------------------------


 ion  position               nearest neighbor table
   1  0.182  0.682  0.864-  15 2.26  16 2.26   8 2.29  11 2.29
   2  0.818  0.318  0.136-  15 2.26  16 2.26   6 2.29  12 2.29
   3  0.682  0.818  0.500-  16 2.26  15 2.26  10 2.29  13 2.29
   4  0.318  0.182  0.500-  16 2.26  15 2.26   9 2.29  14 2.29
   5  0.250  0.250  0.000-  15 2.17  16 2.17  10 2.61  13 2.61   9 2.61  14 2.61  11 2.61  12 2.61
                             8 2.61   6 2.61
   6  0.159  0.659  0.329-  10 1.06  14 1.06  11 1.50   2 2.29   7 2.61   5 2.61   8 2.87
   7  0.750  0.750  0.000-  15 2.17  16 2.17  14 2.61   9 2.61  13 2.61  10 2.61  11 2.61  12 2.61
                             6 2.61   8 2.61
   8  0.841  0.341  0.671-   9 1.06  13 1.06  12 1.50   1 2.29   5 2.61   7 2.61   6 2.87
   9  0.659  0.330  0.500-  12 1.06   8 1.06  13 1.50   4 2.29   7 2.61   5 2.61  10 2.87
  10  0.341  0.670  0.500-  11 1.06   6 1.06  14 1.50   3 2.29   5 2.61   7 2.61   9 2.87
  11  0.330  0.830  0.671-  10 1.06  14 1.06   6 1.50   1 2.29   5 2.61   7 2.61  12 2.87
  12  0.670  0.170  0.329-   9 1.06  13 1.06   8 1.50   2 2.29   7 2.61   5 2.61  11 2.87
  13  0.830  0.159  0.500-  12 1.06   8 1.06   9 1.50   3 2.29   5 2.61   7 2.61  14 2.87
  14  0.170  0.841  0.500-  11 1.06   6 1.06  10 1.50   4 2.29   7 2.61   5 2.61  13 2.87
  15  0.500  0.500  0.000-   5 2.17   7 2.17   3 2.26   4 2.26   1 2.26   2 2.26
  16  0.000  0.000  0.000-   5 2.17   7 2.17   4 2.26   3 2.26   1 2.26   2 2.26
 
 -----------------------------------------------------------------------------
|                                                                             |
|           W    W    AA    RRRRR   N    N  II  N    N   GGGG   !!!           |
|           W    W   A  A   R    R  NN   N  II  NN   N  G    G  !!!           |
|           W    W  A    A  R    R  N N  N  II  N N  N  G       !!!           |
|           W WW W  AAAAAA  RRRRR   N  N N  II  N  N N  G  GGG   !            |
|           WW  WW  A    A  R   R   N   NN  II  N   NN  G    G                |
|           W    W  A    A  R    R  N    N  II  N    N   GGGG   !!!           |
|                                                                             |
|     The distance between some ions is very small. Please check the          |
|     nearest-neighbor list in the OUTCAR file.                               |
|     I HOPE YOU KNOW WHAT YOU ARE DOING!                                     |
|                                                                             |
 -----------------------------------------------------------------------------

  LATTYP: Found a body centered tetragonal cell.
 ALAT       =     6.1772869582
 C/A-ratio  =     1.4079780809
  
  Lattice vectors:
  
 A1 = (   5.3457478804,   0.0000000000,  -3.0682330445)
 A2 = (  -1.7924543291,   5.0362811557,  -3.0682330445)
 A3 = (   0.0000000000,   0.0000000000,   6.1636900000)


Analysis of symmetry for initial positions (statically):
=====================================================================
 Subroutine PRICEL returns:
 Original cell was already a primitive cell.
 

 Routine SETGRP: Setting up the symmetry group for a 
 body centered tetragonal supercell.


 Subroutine GETGRP returns: Found  4 space group operations
 (whereof  2 operations were pure point group operations)
 out of a pool of 16 trial point group operations.


The static configuration has the point symmetry S_2 .
 The point group associated with its full space group is C_2h.


Analysis of symmetry for dynamics (positions and initial velocities):
=====================================================================
 Subroutine PRICEL returns:
 Original cell was already a primitive cell.
 

 Routine SETGRP: Setting up the symmetry group for a 
 body centered tetragonal supercell.


 Subroutine GETGRP returns: Found  4 space group operations
 (whereof  2 operations were pure point group operations)
 out of a pool of 16 trial point group operations.


The dynamic configuration has the point symmetry S_2 .
 The point group associated with its full space group is C_2h.


 Subroutine INISYM returns: Found  4 space group operations
 (whereof  2 operations are pure point group operations),
 and found     1 'primitive' translations


----------------------------------------------------------------------------------------

                                     Primitive cell                                     

  volume of cell :     165.9431

  direct lattice vectors                    reciprocal lattice vectors
     5.345747880  0.000000000 -3.068233044     0.187064565  0.066577834  0.000000000
    -1.792454329  5.036281156 -3.068233044     0.000000000  0.198559208  0.000000000
     0.000000000  0.000000000  6.163690000     0.093119167  0.131982990  0.162240476

  length of vectors
     6.163690000  6.163690000  6.163690000     0.198559208  0.198559208  0.228938116

  position of ions in fractional coordinates (direct lattice)
     0.182190000  0.682190000  0.864380000
     0.817810000  0.317810000  0.135620000
     0.682190000  0.817810000  0.500000000
     0.317810000  0.182190000  0.500000000
     0.250000000  0.250000000  0.000000000
     0.158840000  0.658840000  0.328780000
     0.750000000  0.750000000  0.000000000
     0.841160000  0.341160000  0.671220000
     0.658840000  0.330070000  0.500000000
     0.341160000  0.669930000  0.500000000
     0.330070000  0.830070000  0.671220000
     0.669930000  0.169930000  0.328780000
     0.830070000  0.158840000  0.500000000
     0.169930000  0.841160000  0.500000000
     0.500000000  0.500000000  0.000000000
     0.000000000  0.000000000  0.000000000

  ion indices of the primitive-cell ions
   primitive index   ion index
                 1           1
                 2           2
                 3           3
                 4           4
                 5           5
                 6           6
                 7           7
                 8           8
                 9           9
                10          10
                11          11
                12          12
                13          13
                14          14
                15          15
                16          16

----------------------------------------------------------------------------------------

 
 
 KPOINTS: EA                                      

Automatic generation of k-mesh.
 Grid dimensions read from file:
 generate k-points for:    7    7    8

 Generating k-lattice:

  Cartesian coordinates                     Fractional coordinates (reciprocal lattice)
     0.026723509  0.009511119  0.000000000     0.142857143  0.000000000  0.000000000
     0.000000000  0.028365601  0.000000000     0.000000000  0.142857143  0.000000000
     0.011639896  0.016497874  0.020280060    -0.000000000  0.000000000  0.125000000

  Length of vectors
     0.028365601  0.028365601  0.028617264

  Shift w.r.t. Gamma in fractional coordinates (k-lattice)
     0.000000000  0.000000000  0.000000000

 -----------------------------------------------------------------------------
|                                                                             |
|           W    W    AA    RRRRR   N    N  II  N    N   GGGG   !!!           |
|           W    W   A  A   R    R  NN   N  II  NN   N  G    G  !!!           |
|           W    W  A    A  R    R  N N  N  II  N N  N  G       !!!           |
|           W WW W  AAAAAA  RRRRR   N  N N  II  N  N N  G  GGG   !            |
|           WW  WW  A    A  R   R   N   NN  II  N   NN  G    G                |
|           W    W  A    A  R    R  N    N  II  N    N   GGGG   !!!           |
|                                                                             |
|     Your reciprocal lattice and k-lattice belong to different lattice       |
|     classes:                                                                |
|                                                                             |
|        The reciprocal lattice is body-centered tetragonal,                  |
|        whereas your k-lattice is base-centered monoclinic.                  |
|                                                                             |
|     Results are often still useful ...                                      |
|                                                                             |
 -----------------------------------------------------------------------------

 WARNING: IBZKPT: internal override: KBLOWUP is changed to .FALSE.
      ... skipping the blow-up phase ...

 
 Subroutine IBZKPT returns following result:
 ===========================================
 
 Found    116 irreducible k-points:
 
 Following reciprocal coordinates:
            Coordinates               Weight
  0.000000  0.000000  0.000000      1.000000
  0.142857  0.000000  0.000000      4.000000
  0.285714  0.000000  0.000000      4.000000
  0.428571  0.000000  0.000000      4.000000
  0.142857  0.142857  0.000000      2.000000
  0.285714  0.142857  0.000000      4.000000
  0.428571  0.142857  0.000000      4.000000
 -0.428571  0.142857  0.000000      4.000000
 -0.285714  0.142857  0.000000      4.000000
 -0.142857  0.142857  0.000000      2.000000
  0.285714  0.285714  0.000000      2.000000
  0.428571  0.285714  0.000000      4.000000
 -0.428571  0.285714  0.000000      4.000000
 -0.285714  0.285714  0.000000      2.000000
  0.428571  0.428571  0.000000      2.000000
 -0.428571  0.428571  0.000000      2.000000
  0.000000 -0.000000  0.125000      2.000000
  0.142857  0.000000  0.125000      4.000000
  0.285714 -0.000000  0.125000      4.000000
  0.428571 -0.000000  0.125000      4.000000
 -0.428571 -0.000000  0.125000      4.000000
 -0.285714 -0.000000  0.125000      4.000000
 -0.142857 -0.000000  0.125000      4.000000
  0.142857  0.142857  0.125000      2.000000
  0.285714  0.142857  0.125000      4.000000
  0.428571  0.142857  0.125000      4.000000
 -0.428571  0.142857  0.125000      4.000000
 -0.285714  0.142857  0.125000      4.000000
 -0.142857  0.142857  0.125000      4.000000
  0.285714  0.285714  0.125000      2.000000
  0.428571  0.285714  0.125000      4.000000
 -0.428571  0.285714  0.125000      4.000000
 -0.285714  0.285714  0.125000      4.000000
 -0.142857  0.285714  0.125000      4.000000
  0.428571  0.428571  0.125000      2.000000
 -0.428571  0.428571  0.125000      4.000000
 -0.285714  0.428571  0.125000      4.000000
 -0.142857  0.428571  0.125000      4.000000
 -0.428571 -0.428571  0.125000      2.000000
 -0.285714 -0.428571  0.125000      4.000000
 -0.142857 -0.428571  0.125000      4.000000
 -0.285714 -0.285714  0.125000      2.000000
 -0.142857 -0.285714  0.125000      4.000000
 -0.142857 -0.142857  0.125000      2.000000
  0.000000 -0.000000  0.250000      2.000000
  0.142857 -0.000000  0.250000      4.000000
  0.285714 -0.000000  0.250000      4.000000
  0.428571 -0.000000  0.250000      4.000000
 -0.428571 -0.000000  0.250000      4.000000
 -0.285714 -0.000000  0.250000      4.000000
 -0.142857 -0.000000  0.250000      4.000000
  0.142857  0.142857  0.250000      2.000000
  0.285714  0.142857  0.250000      4.000000
  0.428571  0.142857  0.250000      4.000000
 -0.428571  0.142857  0.250000      4.000000
 -0.285714  0.142857  0.250000      4.000000
 -0.142857  0.142857  0.250000      4.000000
  0.285714  0.285714  0.250000      2.000000
  0.428571  0.285714  0.250000      4.000000
 -0.428571  0.285714  0.250000      4.000000
 -0.285714  0.285714  0.250000      4.000000
 -0.142857  0.285714  0.250000      4.000000
  0.428571  0.428571  0.250000      2.000000
 -0.428571  0.428571  0.250000      4.000000
 -0.285714  0.428571  0.250000      4.000000
 -0.142857  0.428571  0.250000      4.000000
 -0.428571 -0.428571  0.250000      2.000000
 -0.285714 -0.428571  0.250000      4.000000
 -0.142857 -0.428571  0.250000      4.000000
 -0.285714 -0.285714  0.250000      2.000000
 -0.142857 -0.285714  0.250000      4.000000
 -0.142857 -0.142857  0.250000      2.000000
  0.000000 -0.000000  0.375000      2.000000
  0.142857 -0.000000  0.375000      4.000000
  0.285714 -0.000000  0.375000      4.000000
  0.428571 -0.000000  0.375000      4.000000
 -0.428571 -0.000000  0.375000      4.000000
 -0.285714 -0.000000  0.375000      4.000000
 -0.142857 -0.000000  0.375000      4.000000
  0.142857  0.142857  0.375000      2.000000
  0.285714  0.142857  0.375000      4.000000
  0.428571  0.142857  0.375000      4.000000
 -0.428571  0.142857  0.375000      4.000000
 -0.285714  0.142857  0.375000      4.000000
 -0.142857  0.142857  0.375000      4.000000
  0.285714  0.285714  0.375000      2.000000
  0.428571  0.285714  0.375000      4.000000
 -0.428571  0.285714  0.375000      4.000000
 -0.285714  0.285714  0.375000      4.000000
 -0.142857  0.285714  0.375000      4.000000
  0.428571  0.428571  0.375000      2.000000
 -0.428571  0.428571  0.375000      4.000000
 -0.285714  0.428571  0.375000      4.000000
 -0.142857  0.428571  0.375000      4.000000
 -0.428571 -0.428571  0.375000      2.000000
 -0.285714 -0.428571  0.375000      4.000000
 -0.142857 -0.428571  0.375000      4.000000
 -0.285714 -0.285714  0.375000      2.000000
 -0.142857 -0.285714  0.375000      4.000000
 -0.142857 -0.142857  0.375000      2.000000
  0.000000 -0.000000  0.500000      1.000000
  0.142857  0.000000  0.500000      4.000000
  0.285714 -0.000000  0.500000      4.000000
  0.428571 -0.000000  0.500000      4.000000
  0.142857  0.142857  0.500000      2.000000
  0.285714  0.142857  0.500000      4.000000
  0.428571  0.142857  0.500000      4.000000
 -0.428571  0.142857  0.500000      4.000000
 -0.285714  0.142857  0.500000      4.000000
 -0.142857  0.142857  0.500000      2.000000
  0.285714  0.285714  0.500000      2.000000
  0.428571  0.285714  0.500000      4.000000
 -0.428571  0.285714  0.500000      4.000000
 -0.285714  0.285714  0.500000      2.000000
  0.428571  0.428571  0.500000      2.000000
 -0.428571  0.428571  0.500000      2.000000
 
 Following cartesian coordinates:
            Coordinates               Weight
  0.000000  0.000000  0.000000      1.000000
  0.026724  0.009511  0.000000      4.000000
  0.053447  0.019022  0.000000      4.000000
  0.080171  0.028533  0.000000      4.000000
  0.026724  0.037877  0.000000      2.000000
  0.053447  0.047388  0.000000      4.000000
  0.080171  0.056899  0.000000      4.000000
 -0.080171 -0.000168  0.000000      4.000000
 -0.053447  0.009343  0.000000      4.000000
 -0.026724  0.018854  0.000000      2.000000
  0.053447  0.075753  0.000000      2.000000
  0.080171  0.085265  0.000000      4.000000
 -0.080171  0.028198  0.000000      4.000000
 -0.053447  0.037709  0.000000      2.000000
  0.080171  0.113630  0.000000      2.000000
 -0.080171  0.056563  0.000000      2.000000
  0.011640  0.016498  0.020280      2.000000
  0.038363  0.026009  0.020280      4.000000
  0.065087  0.035520  0.020280      4.000000
  0.091810  0.045031  0.020280      4.000000
 -0.068531 -0.012035  0.020280      4.000000
 -0.041807 -0.002524  0.020280      4.000000
 -0.015084  0.006987  0.020280      4.000000
  0.038363  0.054375  0.020280      2.000000
  0.065087  0.063886  0.020280      4.000000
  0.091810  0.073397  0.020280      4.000000
 -0.068531  0.016330  0.020280      4.000000
 -0.041807  0.025841  0.020280      4.000000
 -0.015084  0.035352  0.020280      4.000000
  0.065087  0.092251  0.020280      2.000000
  0.091810  0.101762  0.020280      4.000000
 -0.068531  0.044696  0.020280      4.000000
 -0.041807  0.054207  0.020280      4.000000
 -0.015084  0.063718  0.020280      4.000000
  0.091810  0.130128  0.020280      2.000000
 -0.068531  0.073061  0.020280      4.000000
 -0.041807  0.082572  0.020280      4.000000
 -0.015084  0.092084  0.020280      4.000000
 -0.068531 -0.097132  0.020280      2.000000
 -0.041807 -0.087621  0.020280      4.000000
 -0.015084 -0.078110  0.020280      4.000000
 -0.041807 -0.059256  0.020280      2.000000
 -0.015084 -0.049744  0.020280      4.000000
 -0.015084 -0.021379  0.020280      2.000000
  0.023280  0.032996  0.040560      2.000000
  0.050003  0.042507  0.040560      4.000000
  0.076727  0.052018  0.040560      4.000000
  0.103450  0.061529  0.040560      4.000000
 -0.056891  0.004462  0.040560      4.000000
 -0.030167  0.013974  0.040560      4.000000
 -0.003444  0.023485  0.040560      4.000000
  0.050003  0.070872  0.040560      2.000000
  0.076727  0.080384  0.040560      4.000000
  0.103450  0.089895  0.040560      4.000000
 -0.056891  0.032828  0.040560      4.000000
 -0.030167  0.042339  0.040560      4.000000
 -0.003444  0.051850  0.040560      4.000000
  0.076727  0.108749  0.040560      2.000000
  0.103450  0.118260  0.040560      4.000000
 -0.056891  0.061194  0.040560      4.000000
 -0.030167  0.070705  0.040560      4.000000
 -0.003444  0.080216  0.040560      4.000000
  0.103450  0.146626  0.040560      2.000000
 -0.056891  0.089559  0.040560      4.000000
 -0.030167  0.099070  0.040560      4.000000
 -0.003444  0.108581  0.040560      4.000000
 -0.056891 -0.080634  0.040560      2.000000
 -0.030167 -0.071123  0.040560      4.000000
 -0.003444 -0.061612  0.040560      4.000000
 -0.030167 -0.042758  0.040560      2.000000
 -0.003444 -0.033247  0.040560      4.000000
 -0.003444 -0.004881  0.040560      2.000000
  0.034920  0.049494  0.060840      2.000000
  0.061643  0.059005  0.060840      4.000000
  0.088367  0.068516  0.060840      4.000000
  0.115090  0.078027  0.060840      4.000000
 -0.045251  0.020960  0.060840      4.000000
 -0.018527  0.030471  0.060840      4.000000
  0.008196  0.039983  0.060840      4.000000
  0.061643  0.087370  0.060840      2.000000
  0.088367  0.096881  0.060840      4.000000
  0.115090  0.106393  0.060840      4.000000
 -0.045251  0.049326  0.060840      4.000000
 -0.018527  0.058837  0.060840      4.000000
  0.008196  0.068348  0.060840      4.000000
  0.088367  0.125247  0.060840      2.000000
  0.115090  0.134758  0.060840      4.000000
 -0.045251  0.077691  0.060840      4.000000
 -0.018527  0.087203  0.060840      4.000000
  0.008196  0.096714  0.060840      4.000000
  0.115090  0.163124  0.060840      2.000000
 -0.045251  0.106057  0.060840      4.000000
 -0.018527  0.115568  0.060840      4.000000
  0.008196  0.125079  0.060840      4.000000
 -0.045251 -0.064137  0.060840      2.000000
 -0.018527 -0.054625  0.060840      4.000000
  0.008196 -0.045114  0.060840      4.000000
 -0.018527 -0.026260  0.060840      2.000000
  0.008196 -0.016749  0.060840      4.000000
  0.008196  0.011617  0.060840      2.000000
  0.046560  0.065991  0.081120      1.000000
  0.073283  0.075503  0.081120      4.000000
  0.100007  0.085014  0.081120      4.000000
  0.126730  0.094525  0.081120      4.000000
  0.073283  0.103868  0.081120      2.000000
  0.100007  0.113379  0.081120      4.000000
  0.126730  0.122890  0.081120      4.000000
 -0.033611  0.065824  0.081120      4.000000
 -0.006887  0.075335  0.081120      4.000000
  0.019836  0.084846  0.081120      2.000000
  0.100007  0.141745  0.081120      2.000000
  0.126730  0.151256  0.081120      4.000000
 -0.033611  0.094189  0.081120      4.000000
 -0.006887  0.103700  0.081120      2.000000
  0.126730  0.179622  0.081120      2.000000
 -0.033611  0.122555  0.081120      2.000000
 


--------------------------------------------------------------------------------------------------------




 Dimension of arrays:
   k-points           NKPTS =    116   k-points in BZ     NKDIM =    116   number of bands    NBANDS=     96
   number of dos      NEDOS =    301   number of ions     NIONS =     16
   non local maximal  LDIM  =      6   non local SUM 2l+1 LMDIM =     18
   total plane-waves  NPLWV = 125000
   max r-space proj   IRMAX =      1   max aug-charges    IRDMAX= 263702
   dimension x,y,z NGX =    50 NGY =   50 NGZ =   50
   dimension x,y,z NGXF=   100 NGYF=  100 NGZF=  100
   support grid    NGXF=   200 NGYF=  200 NGZF=  200
   ions per type =               4  10   2
   NGX,Y,Z   is equivalent  to a cutoff of  13.49, 13.49, 13.49 a.u.
   NGXF,Y,Z  is equivalent  to a cutoff of  26.97, 26.97, 26.97 a.u.

 SYSTEM =  routine with relax: pwdword             
 POSCAR =  EA165                                   

 Startparameter for this run:
   NWRITE =      2    write-flag & timer
   PREC   = acc       normal or accurate (medium, high low for compatibility)
   ISTART =      0    job   : 0-new  1-cont  2-samecut
   ICHARG =      2    charge: 1-file 2-atom 10-const
   ISPIN  =      1    spin polarized calculation?
   LNONCOLLINEAR =      F non collinear calculations
   LSORBIT =      F    spin-orbit coupling
   INIWAV =      1    electr: 0-lowe 1-rand  2-diag
   LASPH  =      T    aspherical Exc in radial PAW
   METAGGA=      F    non-selfconsistent MetaGGA calc.

 Electronic Relaxation 1
   ENCUT  =  600.0 eV  44.10 Ry    6.64 a.u.  12.31 12.31 12.31*2*pi/ulx,y,z
   ENINI  =  600.0     initial cutoff
   ENAUG  =  535.5 eV  augmentation charge cutoff
   NELM   =    100;   NELMIN=  6; NELMDL= -5     # of ELM steps 
   EDIFF  = 0.1E-08   stopping-criterion for ELM
   LREAL  =      F    real-space projection
   NLSPLINE    = F    spline interpolate recip. space projectors
   LCOMPAT=      F    compatible to vasp.4.4
   GGA_COMPAT  = T    GGA compatible to vasp.4.4-vasp.4.6
   LMAXPAW     = -100 max onsite density
   LMAXMIX     =    2 max onsite mixed and CHGCAR
   VOSKOWN=      0    Vosko Wilk Nusair interpolation
   ROPT   =    0.00000   0.00000   0.00000
 Ionic relaxation
   EDIFFG = 0.1E-07   stopping-criterion for IOM
   NSW    =      0    number of steps for IOM
   NBLOCK =      1;   KBLOCK =      1    inner block; outer block 
   IBRION =     -1    ionic relax: 0-MD 1-quasi-New 2-CG
   NFREE  =      0    steps in history (QN), initial steepest desc. (CG)
   ISIF   =     -1    stress and relaxation
   IWAVPR =     10    prediction:  0-non 1-charg 2-wave 3-comb
   ISYM   =      2    0-nonsym 1-usesym 2-fastsym
   LCORR  =      T    Harris-Foulkes like correction to forces

   POTIM  = 0.5000    time-step for ionic-motion
   TEIN   =    0.0    initial temperature
   TEBEG  =    0.0;   TEEND  =   0.0 temperature during run
   SMASS  =  -3.00    Nose mass-parameter (am)
   estimated Nose-frequenzy (Omega)   =  0.10E-29 period in steps = 0.13E+47 mass=  -0.868E-27a.u.
   SCALEE = 1.0000    scale energy and forces
   NPACO  =    256;   APACO  = 16.0  distance and # of slots for P.C.
   PSTRESS=    0.0 pullay stress

  Mass of Ions in am
   POMASS =  10.81 95.94 28.09
  Ionic Valenz
   ZVAL   =   3.00 14.00  4.00
  Atomic Wigner-Seitz radii
   RWIGS  =  -1.00 -1.00 -1.00
  virtual crystal weights 
   VCA    =   1.00  1.00  1.00
   NELECT =     160.0000    total number of electrons
   NUPDOWN=      -1.0000    fix difference up-down

 DOS related values:
   EMIN   =  10.00;   EMAX   =-10.00  energy-range for DOS
   EFERMI =   0.00
   ISMEAR =     0;   SIGMA  =   0.02  broadening in eV -4-tet -1-fermi 0-gaus

 Electronic relaxation 2 (details)
   IALGO  =     58    algorithm
   LDIAG  =      T    sub-space diagonalisation (order eigenvalues)
   LSUBROT=      F    optimize rotation matrix (better conditioning)
   TURBO    =      0    0=normal 1=particle mesh
   IRESTART =      0    0=no restart 2=restart with 2 vectors
   NREBOOT  =      0    no. of reboots
   NMIN     =      0    reboot dimension
   EREF     =   0.00    reference energy to select bands
   IMIX   =      4    mixing-type and parameters
     AMIX     =   0.40;   BMIX     =  1.00
     AMIX_MAG =   1.60;   BMIX_MAG =  1.00
     AMIN     =   0.10
     WC   =   100.;   INIMIX=   1;  MIXPRE=   1;  MAXMIX= -45

 Intra band minimization:
   WEIMIN = 0.0000     energy-eigenvalue tresh-hold
   EBREAK =  0.26E-11  absolut break condition
   DEPER  =   0.30     relativ break condition  

   TIME   =   0.40     timestep for ELM

  volume/ion in A,a.u.               =      10.37        69.99
  Fermi-wavevector in a.u.,A,eV,Ry     =   1.617317  3.056285 35.588942  2.615713
  Thomas-Fermi vector in A             =   2.711761
 
 Write flags
   LWAVE        =      T    write WAVECAR
   LDOWNSAMPLE  =      F    k-point downsampling of WAVECAR
   LCHARG       =      T    write CHGCAR
   LVTOT        =      F    write LOCPOT, total local potential
   LVHAR        =      F    write LOCPOT, Hartree potential only
   LELF         =      F    write electronic localiz. function (ELF)
   LORBIT       =      0    0 simple, 1 ext, 2 COOP (PROOUT), +10 PAW based schemes


 Dipole corrections
   LMONO  =      F    monopole corrections only (constant potential shift)
   LDIPOL =      F    correct potential (dipole corrections)
   IDIPOL =      0    1-x, 2-y, 3-z, 4-all directions 
   EPSILON=  1.0000000 bulk dielectric constant

 Exchange correlation treatment:
   GGA     =    --    GGA type
   LEXCH   =     8    internal setting for exchange type
   VOSKOWN=      0    Vosko Wilk Nusair interpolation
   LHFCALC =     F    Hartree Fock is set to
   LHFONE  =     F    Hartree Fock one center treatment
   AEXX    =    0.0000 exact exchange contribution

 Linear response parameters
   LEPSILON=     F    determine dielectric tensor
   LRPA    =     F    only Hartree local field effects (RPA)
   LNABLA  =     F    use nabla operator in PAW spheres
   LVEL    =     F    velocity operator in full k-point grid
   LINTERFAST=   F  fast interpolation
   KINTER  =     0    interpolate to denser k-point grid
   CSHIFT  =0.1000    complex shift for real part using Kramers Kronig
   OMEGAMAX=  -1.0    maximum frequency
   DEG_THRESHOLD= 0.2000000E-02 threshold for treating states as degnerate
   RTIME   =   -0.100 relaxation time in fs
  (WPLASMAI=    0.000 imaginary part of plasma frequency in eV, 0.658/RTIME)
   DFIELD  = 0.0000000 0.0000000 0.0000000 field for delta impulse in time
 
 Orbital magnetization related:
   ORBITALMAG=     F  switch on orbital magnetization
   LCHIMAG   =     F  perturbation theory with respect to B field
   DQ        =  0.001000  dq finite difference perturbation B field
   LLRAUG    =     F  two centre corrections for induced B field



--------------------------------------------------------------------------------------------------------


 Static calculation
 charge density and potential will be updated during run
 non-spin polarized calculation
 Conjugate gradient for all bands (Freysoldt, et al. PRB 79, 241103 (2009))
 preconditioned conjugated gradient                                        
 perform sub-space diagonalisation
    before iterative eigenvector-optimisation
 modified Broyden-mixing scheme, WC =      100.0
 initial mixing is a Kerker type mixing with AMIX =  0.4000 and BMIX =      1.0000
 Hartree-type preconditioning will be used
 using additional bands           16
 reciprocal scheme for non local part
 use partial core corrections
 no Harris-corrections to forces 
 use gradient corrections 
 use of overlap-Matrix (Vanderbilt PP)
 Gauss-broadening in eV      SIGMA  =   0.02


--------------------------------------------------------------------------------------------------------


  energy-cutoff  :      600.00
  volume of cell :      165.94
      direct lattice vectors                 reciprocal lattice vectors
     5.345747880  0.000000000 -3.068233044     0.187064565  0.066577834  0.000000000
    -1.792454329  5.036281156 -3.068233044     0.000000000  0.198559208  0.000000000
     0.000000000  0.000000000  6.163690000     0.093119167  0.131982990  0.162240476

  length of vectors
     6.163690000  6.163690000  6.163690000     0.198559208  0.198559208  0.228938116


 
 k-points in units of 2pi/SCALE and weight: EA                                      
   0.00000000  0.00000000  0.00000000       0.003
   0.02672351  0.00951112  0.00000000       0.010
   0.05344702  0.01902224  0.00000000       0.010
   0.08017053  0.02853336  0.00000000       0.010
   0.02672351  0.03787672  0.00000000       0.005
   0.05344702  0.04738784  0.00000000       0.010
   0.08017053  0.05689896  0.00000000       0.010
  -0.08017053 -0.00016776  0.00000000       0.010
  -0.05344702  0.00934336  0.00000000       0.010
  -0.02672351  0.01885448  0.00000000       0.005
   0.05344702  0.07575344  0.00000000       0.005
   0.08017053  0.08526456  0.00000000       0.010
  -0.08017053  0.02819785  0.00000000       0.010
  -0.05344702  0.03770896  0.00000000       0.005
   0.08017053  0.11363016  0.00000000       0.005
  -0.08017053  0.05656345  0.00000000       0.005
   0.01163990  0.01649787  0.02028006       0.005
   0.03836341  0.02600899  0.02028006       0.010
   0.06508691  0.03552011  0.02028006       0.010
   0.09181042  0.04503123  0.02028006       0.010
  -0.06853063 -0.01203548  0.02028006       0.010
  -0.04180712 -0.00252436  0.02028006       0.010
  -0.01508361  0.00698675  0.02028006       0.010
   0.03836341  0.05437459  0.02028006       0.005
   0.06508691  0.06388571  0.02028006       0.010
   0.09181042  0.07339683  0.02028006       0.010
  -0.06853063  0.01633012  0.02028006       0.010
  -0.04180712  0.02584124  0.02028006       0.010
  -0.01508361  0.03535236  0.02028006       0.010
   0.06508691  0.09225131  0.02028006       0.005
   0.09181042  0.10176243  0.02028006       0.010
  -0.06853063  0.04469572  0.02028006       0.010
  -0.04180712  0.05420684  0.02028006       0.010
  -0.01508361  0.06371796  0.02028006       0.010
   0.09181042  0.13012803  0.02028006       0.005
  -0.06853063  0.07306132  0.02028006       0.010
  -0.04180712  0.08257244  0.02028006       0.010
  -0.01508361  0.09208356  0.02028006       0.010
  -0.06853063 -0.09713229  0.02028006       0.005
  -0.04180712 -0.08762117  0.02028006       0.010
  -0.01508361 -0.07811005  0.02028006       0.010
  -0.04180712 -0.05925557  0.02028006       0.005
  -0.01508361 -0.04974445  0.02028006       0.010
  -0.01508361 -0.02137885  0.02028006       0.005
   0.02327979  0.03299575  0.04056012       0.005
   0.05000330  0.04250687  0.04056012       0.010
   0.07672681  0.05201799  0.04056012       0.010
   0.10345032  0.06152910  0.04056012       0.010
  -0.05689074  0.00446239  0.04056012       0.010
  -0.03016723  0.01397351  0.04056012       0.010
  -0.00344372  0.02348463  0.04056012       0.010
   0.05000330  0.07087247  0.04056012       0.005
   0.07672681  0.08038359  0.04056012       0.010
   0.10345032  0.08989471  0.04056012       0.010
  -0.05689074  0.03282799  0.04056012       0.010
  -0.03016723  0.04233911  0.04056012       0.010
  -0.00344372  0.05185023  0.04056012       0.010
   0.07672681  0.10874919  0.04056012       0.005
   0.10345032  0.11826031  0.04056012       0.010
  -0.05689074  0.06119359  0.04056012       0.010
  -0.03016723  0.07070471  0.04056012       0.010
  -0.00344372  0.08021583  0.04056012       0.010
   0.10345032  0.14662591  0.04056012       0.005
  -0.05689074  0.08955919  0.04056012       0.010
  -0.03016723  0.09907031  0.04056012       0.010
  -0.00344372  0.10858143  0.04056012       0.010
  -0.05689074 -0.08063441  0.04056012       0.005
  -0.03016723 -0.07112329  0.04056012       0.010
  -0.00344372 -0.06161218  0.04056012       0.010
  -0.03016723 -0.04275769  0.04056012       0.005
  -0.00344372 -0.03324657  0.04056012       0.010
  -0.00344372 -0.00488097  0.04056012       0.005
   0.03491969  0.04949362  0.06084018       0.005
   0.06164320  0.05900474  0.06084018       0.010
   0.08836671  0.06851586  0.06084018       0.010
   0.11509022  0.07802698  0.06084018       0.010
  -0.04525084  0.02096026  0.06084018       0.010
  -0.01852733  0.03047138  0.06084018       0.010
   0.00819618  0.03998250  0.06084018       0.010
   0.06164320  0.08737034  0.06084018       0.005
   0.08836671  0.09688146  0.06084018       0.010
   0.11509022  0.10639258  0.06084018       0.010
  -0.04525084  0.04932587  0.06084018       0.010
  -0.01852733  0.05883698  0.06084018       0.010
   0.00819618  0.06834810  0.06084018       0.010
   0.08836671  0.12524706  0.06084018       0.005
   0.11509022  0.13475818  0.06084018       0.010
  -0.04525084  0.07769147  0.06084018       0.010
  -0.01852733  0.08720259  0.06084018       0.010
   0.00819618  0.09671370  0.06084018       0.010
   0.11509022  0.16312378  0.06084018       0.005
  -0.04525084  0.10605707  0.06084018       0.010
  -0.01852733  0.11556819  0.06084018       0.010
   0.00819618  0.12507931  0.06084018       0.010
  -0.04525084 -0.06413654  0.06084018       0.005
  -0.01852733 -0.05462542  0.06084018       0.010
   0.00819618 -0.04511430  0.06084018       0.010
  -0.01852733 -0.02625982  0.06084018       0.005
   0.00819618 -0.01674870  0.06084018       0.010
   0.00819618  0.01161690  0.06084018       0.005
   0.04655958  0.06599149  0.08112024       0.003
   0.07328309  0.07550261  0.08112024       0.010
   0.10000660  0.08501373  0.08112024       0.010
   0.12673011  0.09452485  0.08112024       0.010
   0.07328309  0.10386822  0.08112024       0.005
   0.10000660  0.11337933  0.08112024       0.010
   0.12673011  0.12289045  0.08112024       0.010
  -0.03361094  0.06582374  0.08112024       0.010
  -0.00688743  0.07533486  0.08112024       0.010
   0.01983607  0.08484598  0.08112024       0.005
   0.10000660  0.14174494  0.08112024       0.005
   0.12673011  0.15125605  0.08112024       0.010
  -0.03361094  0.09418934  0.08112024       0.010
  -0.00688743  0.10370046  0.08112024       0.005
   0.12673011  0.17962166  0.08112024       0.005
  -0.03361094  0.12255494  0.08112024       0.005
 
 k-points in reciprocal lattice and weights: EA                                      
   0.00000000  0.00000000  0.00000000       0.003
   0.14285714  0.00000000  0.00000000       0.010
   0.28571429  0.00000000  0.00000000       0.010
   0.42857143  0.00000000  0.00000000       0.010
   0.14285714  0.14285714  0.00000000       0.005
   0.28571429  0.14285714  0.00000000       0.010
   0.42857143  0.14285714  0.00000000       0.010
  -0.42857143  0.14285714  0.00000000       0.010
  -0.28571429  0.14285714  0.00000000       0.010
  -0.14285714  0.14285714  0.00000000       0.005
   0.28571429  0.28571429  0.00000000       0.005
   0.42857143  0.28571429  0.00000000       0.010
  -0.42857143  0.28571429  0.00000000       0.010
  -0.28571429  0.28571429  0.00000000       0.005
   0.42857143  0.42857143  0.00000000       0.005
  -0.42857143  0.42857143  0.00000000       0.005
   0.00000000 -0.00000000  0.12500000       0.005
   0.14285714  0.00000000  0.12500000       0.010
   0.28571429 -0.00000000  0.12500000       0.010
   0.42857143 -0.00000000  0.12500000       0.010
  -0.42857143 -0.00000000  0.12500000       0.010
  -0.28571429 -0.00000000  0.12500000       0.010
  -0.14285714 -0.00000000  0.12500000       0.010
   0.14285714  0.14285714  0.12500000       0.005
   0.28571429  0.14285714  0.12500000       0.010
   0.42857143  0.14285714  0.12500000       0.010
  -0.42857143  0.14285714  0.12500000       0.010
  -0.28571429  0.14285714  0.12500000       0.010
  -0.14285714  0.14285714  0.12500000       0.010
   0.28571429  0.28571429  0.12500000       0.005
   0.42857143  0.28571429  0.12500000       0.010
  -0.42857143  0.28571429  0.12500000       0.010
  -0.28571429  0.28571429  0.12500000       0.010
  -0.14285714  0.28571429  0.12500000       0.010
   0.42857143  0.42857143  0.12500000       0.005
  -0.42857143  0.42857143  0.12500000       0.010
  -0.28571429  0.42857143  0.12500000       0.010
  -0.14285714  0.42857143  0.12500000       0.010
  -0.42857143 -0.42857143  0.12500000       0.005
  -0.28571429 -0.42857143  0.12500000       0.010
  -0.14285714 -0.42857143  0.12500000       0.010
  -0.28571429 -0.28571429  0.12500000       0.005
  -0.14285714 -0.28571429  0.12500000       0.010
  -0.14285714 -0.14285714  0.12500000       0.005
   0.00000000 -0.00000000  0.25000000       0.005
   0.14285714 -0.00000000  0.25000000       0.010
   0.28571429 -0.00000000  0.25000000       0.010
   0.42857143 -0.00000000  0.25000000       0.010
  -0.42857143 -0.00000000  0.25000000       0.010
  -0.28571429 -0.00000000  0.25000000       0.010
  -0.14285714 -0.00000000  0.25000000       0.010
   0.14285714  0.14285714  0.25000000       0.005
   0.28571429  0.14285714  0.25000000       0.010
   0.42857143  0.14285714  0.25000000       0.010
  -0.42857143  0.14285714  0.25000000       0.010
  -0.28571429  0.14285714  0.25000000       0.010
  -0.14285714  0.14285714  0.25000000       0.010
   0.28571429  0.28571429  0.25000000       0.005
   0.42857143  0.28571429  0.25000000       0.010
  -0.42857143  0.28571429  0.25000000       0.010
  -0.28571429  0.28571429  0.25000000       0.010
  -0.14285714  0.28571429  0.25000000       0.010
   0.42857143  0.42857143  0.25000000       0.005
  -0.42857143  0.42857143  0.25000000       0.010
  -0.28571429  0.42857143  0.25000000       0.010
  -0.14285714  0.42857143  0.25000000       0.010
  -0.42857143 -0.42857143  0.25000000       0.005
  -0.28571429 -0.42857143  0.25000000       0.010
  -0.14285714 -0.42857143  0.25000000       0.010
  -0.28571429 -0.28571429  0.25000000       0.005
  -0.14285714 -0.28571429  0.25000000       0.010
  -0.14285714 -0.14285714  0.25000000       0.005
   0.00000000 -0.00000000  0.37500000       0.005
   0.14285714 -0.00000000  0.37500000       0.010
   0.28571429 -0.00000000  0.37500000       0.010
   0.42857143 -0.00000000  0.37500000       0.010
  -0.42857143 -0.00000000  0.37500000       0.010
  -0.28571429 -0.00000000  0.37500000       0.010
  -0.14285714 -0.00000000  0.37500000       0.010
   0.14285714  0.14285714  0.37500000       0.005
   0.28571429  0.14285714  0.37500000       0.010
   0.42857143  0.14285714  0.37500000       0.010
  -0.42857143  0.14285714  0.37500000       0.010
  -0.28571429  0.14285714  0.37500000       0.010
  -0.14285714  0.14285714  0.37500000       0.010
   0.28571429  0.28571429  0.37500000       0.005
   0.42857143  0.28571429  0.37500000       0.010
  -0.42857143  0.28571429  0.37500000       0.010
  -0.28571429  0.28571429  0.37500000       0.010
  -0.14285714  0.28571429  0.37500000       0.010
   0.42857143  0.42857143  0.37500000       0.005
  -0.42857143  0.42857143  0.37500000       0.010
  -0.28571429  0.42857143  0.37500000       0.010
  -0.14285714  0.42857143  0.37500000       0.010
  -0.42857143 -0.42857143  0.37500000       0.005
  -0.28571429 -0.42857143  0.37500000       0.010
  -0.14285714 -0.42857143  0.37500000       0.010
  -0.28571429 -0.28571429  0.37500000       0.005
  -0.14285714 -0.28571429  0.37500000       0.010
  -0.14285714 -0.14285714  0.37500000       0.005
   0.00000000 -0.00000000  0.50000000       0.003
   0.14285714  0.00000000  0.50000000       0.010
   0.28571429 -0.00000000  0.50000000       0.010
   0.42857143 -0.00000000  0.50000000       0.010
   0.14285714  0.14285714  0.50000000       0.005
   0.28571429  0.14285714  0.50000000       0.010
   0.42857143  0.14285714  0.50000000       0.010
  -0.42857143  0.14285714  0.50000000       0.010
  -0.28571429  0.14285714  0.50000000       0.010
  -0.14285714  0.14285714  0.50000000       0.005
   0.28571429  0.28571429  0.50000000       0.005
   0.42857143  0.28571429  0.50000000       0.010
  -0.42857143  0.28571429  0.50000000       0.010
  -0.28571429  0.28571429  0.50000000       0.005
   0.42857143  0.42857143  0.50000000       0.005
  -0.42857143  0.42857143  0.50000000       0.005
 
 position of ions in fractional coordinates (direct lattice) 
   0.18219000  0.68219000  0.86438000
   0.81781000  0.31781000  0.13562000
   0.68219000  0.81781000  0.50000000
   0.31781000  0.18219000  0.50000000
   0.25000000  0.25000000  0.00000000
   0.15884000  0.65884000  0.32878000
   0.75000000  0.75000000  0.00000000
   0.84116000  0.34116000  0.67122000
   0.65884000  0.33007000  0.50000000
   0.34116000  0.66993000  0.50000000
   0.33007000  0.83007000  0.67122000
   0.66993000  0.16993000  0.32878000
   0.83007000  0.15884000  0.50000000
   0.16993000  0.84116000  0.50000000
   0.50000000  0.50000000  0.00000000
   0.00000000  0.00000000  0.00000000
 
 position of ions in cartesian coordinates  (Angst):
  -0.24885261  3.43570064  2.67565108
   3.80214616  1.60058051 -2.64842717
   2.18092867  4.11872109 -1.52050457
   1.37236488  0.91756006  1.54772848
   0.88832339  1.25907029 -1.53411652
  -0.33182202  3.31810348 -0.48233480
   2.66497016  3.77721087 -4.60234957
   3.88511557  1.71817768  0.50955871
   2.93035713  1.66232532  0.04763866
   0.62293642  3.37395583 -0.02041475
   0.27660844  4.18046590  0.57761212
   3.27668511  0.85581526 -0.55038821
   4.15263150  0.79996290  0.04763866
  -0.59933795  4.23631826 -0.02041475
   1.77664678  2.51814058 -3.06823304
   0.00000000  0.00000000  0.00000000
 


--------------------------------------------------------------------------------------------------------


 k-point   1 :   0.0000 0.0000 0.0000  plane waves:    5585
 k-point   2 :   0.1429 0.0000 0.0000  plane waves:    5565
 k-point   3 :   0.2857 0.0000 0.0000  plane waves:    5539
 k-point   4 :   0.4286 0.0000 0.0000  plane waves:    5540
 k-point   5 :   0.1429 0.1429 0.0000  plane waves:    5545
 k-point   6 :   0.2857 0.1429 0.0000  plane waves:    5531
 k-point   7 :   0.4286 0.1429 0.0000  plane waves:    5538
 k-point   8 :  -0.4286 0.1429 0.0000  plane waves:    5529
 k-point   9 :  -0.2857 0.1429 0.0000  plane waves:    5537
 k-point  10 :  -0.1429 0.1429 0.0000  plane waves:    5551
 k-point  11 :   0.2857 0.2857 0.0000  plane waves:    5534
 k-point  12 :   0.4286 0.2857 0.0000  plane waves:    5530
 k-point  13 :  -0.4286 0.2857 0.0000  plane waves:    5541
 k-point  14 :  -0.2857 0.2857 0.0000  plane waves:    5546
 k-point  15 :   0.4286 0.4286 0.0000  plane waves:    5534
 k-point  16 :  -0.4286 0.4286 0.0000  plane waves:    5532
 k-point  17 :   0.0000-0.0000 0.1250  plane waves:    5561
 k-point  18 :   0.1429 0.0000 0.1250  plane waves:    5538
 k-point  19 :   0.2857-0.0000 0.1250  plane waves:    5530
 k-point  20 :   0.4286-0.0000 0.1250  plane waves:    5543
 k-point  21 :  -0.4286-0.0000 0.1250  plane waves:    5531
 k-point  22 :  -0.2857-0.0000 0.1250  plane waves:    5549
 k-point  23 :  -0.1429-0.0000 0.1250  plane waves:    5566
 k-point  24 :   0.1429 0.1429 0.1250  plane waves:    5543
 k-point  25 :   0.2857 0.1429 0.1250  plane waves:    5542
 k-point  26 :   0.4286 0.1429 0.1250  plane waves:    5536
 k-point  27 :  -0.4286 0.1429 0.1250  plane waves:    5540
 k-point  28 :  -0.2857 0.1429 0.1250  plane waves:    5534
 k-point  29 :  -0.1429 0.1429 0.1250  plane waves:    5550
 k-point  30 :   0.2857 0.2857 0.1250  plane waves:    5533
 k-point  31 :   0.4286 0.2857 0.1250  plane waves:    5533
 k-point  32 :  -0.4286 0.2857 0.1250  plane waves:    5539
 k-point  33 :  -0.2857 0.2857 0.1250  plane waves:    5529
 k-point  34 :  -0.1429 0.2857 0.1250  plane waves:    5529
 k-point  35 :   0.4286 0.4286 0.1250  plane waves:    5528
 k-point  36 :  -0.4286 0.4286 0.1250  plane waves:    5545
 k-point  37 :  -0.2857 0.4286 0.1250  plane waves:    5541
 k-point  38 :  -0.1429 0.4286 0.1250  plane waves:    5535
 k-point  39 :  -0.4286-0.4286 0.1250  plane waves:    5551
 k-point  40 :  -0.2857-0.4286 0.1250  plane waves:    5540
 k-point  41 :  -0.1429-0.4286 0.1250  plane waves:    5535
 k-point  42 :  -0.2857-0.2857 0.1250  plane waves:    5542
 k-point  43 :  -0.1429-0.2857 0.1250  plane waves:    5534
 k-point  44 :  -0.1429-0.1429 0.1250  plane waves:    5551
 k-point  45 :   0.0000-0.0000 0.2500  plane waves:    5543
 k-point  46 :   0.1429-0.0000 0.2500  plane waves:    5538
 k-point  47 :   0.2857-0.0000 0.2500  plane waves:    5530
 k-point  48 :   0.4286-0.0000 0.2500  plane waves:    5533
 k-point  49 :  -0.4286-0.0000 0.2500  plane waves:    5530
 k-point  50 :  -0.2857-0.0000 0.2500  plane waves:    5542
 k-point  51 :  -0.1429-0.0000 0.2500  plane waves:    5545
 k-point  52 :   0.1429 0.1429 0.2500  plane waves:    5547
 k-point  53 :   0.2857 0.1429 0.2500  plane waves:    5538
 k-point  54 :   0.4286 0.1429 0.2500  plane waves:    5545
 k-point  55 :  -0.4286 0.1429 0.2500  plane waves:    5535
 k-point  56 :  -0.2857 0.1429 0.2500  plane waves:    5528
 k-point  57 :  -0.1429 0.1429 0.2500  plane waves:    5530
 k-point  58 :   0.2857 0.2857 0.2500  plane waves:    5529
 k-point  59 :   0.4286 0.2857 0.2500  plane waves:    5536
 k-point  60 :  -0.4286 0.2857 0.2500  plane waves:    5543
 k-point  61 :  -0.2857 0.2857 0.2500  plane waves:    5532
 k-point  62 :  -0.1429 0.2857 0.2500  plane waves:    5534
 k-point  63 :   0.4286 0.4286 0.2500  plane waves:    5538
 k-point  64 :  -0.4286 0.4286 0.2500  plane waves:    5542
 k-point  65 :  -0.2857 0.4286 0.2500  plane waves:    5531
 k-point  66 :  -0.1429 0.4286 0.2500  plane waves:    5533
 k-point  67 :  -0.4286-0.4286 0.2500  plane waves:    5540
 k-point  68 :  -0.2857-0.4286 0.2500  plane waves:    5540
 k-point  69 :  -0.1429-0.4286 0.2500  plane waves:    5537
 k-point  70 :  -0.2857-0.2857 0.2500  plane waves:    5539
 k-point  71 :  -0.1429-0.2857 0.2500  plane waves:    5543
 k-point  72 :  -0.1429-0.1429 0.2500  plane waves:    5554
 k-point  73 :   0.0000-0.0000 0.3750  plane waves:    5530
 k-point  74 :   0.1429-0.0000 0.3750  plane waves:    5532
 k-point  75 :   0.2857-0.0000 0.3750  plane waves:    5522
 k-point  76 :   0.4286-0.0000 0.3750  plane waves:    5539
 k-point  77 :  -0.4286-0.0000 0.3750  plane waves:    5539
 k-point  78 :  -0.2857-0.0000 0.3750  plane waves:    5539
 k-point  79 :  -0.1429-0.0000 0.3750  plane waves:    5538
 k-point  80 :   0.1429 0.1429 0.3750  plane waves:    5534
 k-point  81 :   0.2857 0.1429 0.3750  plane waves:    5542
 k-point  82 :   0.4286 0.1429 0.3750  plane waves:    5535
 k-point  83 :  -0.4286 0.1429 0.3750  plane waves:    5532
 k-point  84 :  -0.2857 0.1429 0.3750  plane waves:    5531
 k-point  85 :  -0.1429 0.1429 0.3750  plane waves:    5550
 k-point  86 :   0.2857 0.2857 0.3750  plane waves:    5523
 k-point  87 :   0.4286 0.2857 0.3750  plane waves:    5536
 k-point  88 :  -0.4286 0.2857 0.3750  plane waves:    5534
 k-point  89 :  -0.2857 0.2857 0.3750  plane waves:    5548
 k-point  90 :  -0.1429 0.2857 0.3750  plane waves:    5537
 k-point  91 :   0.4286 0.4286 0.3750  plane waves:    5537
 k-point  92 :  -0.4286 0.4286 0.3750  plane waves:    5533
 k-point  93 :  -0.2857 0.4286 0.3750  plane waves:    5539
 k-point  94 :  -0.1429 0.4286 0.3750  plane waves:    5537
 k-point  95 :  -0.4286-0.4286 0.3750  plane waves:    5544
 k-point  96 :  -0.2857-0.4286 0.3750  plane waves:    5540
 k-point  97 :  -0.1429-0.4286 0.3750  plane waves:    5539
 k-point  98 :  -0.2857-0.2857 0.3750  plane waves:    5545
 k-point  99 :  -0.1429-0.2857 0.3750  plane waves:    5534
 k-point 100 :  -0.1429-0.1429 0.3750  plane waves:    5535
 k-point 101 :   0.0000-0.0000 0.5000  plane waves:    5506
 k-point 102 :   0.1429 0.0000 0.5000  plane waves:    5533
 k-point 103 :   0.2857-0.0000 0.5000  plane waves:    5540
 k-point 104 :   0.4286-0.0000 0.5000  plane waves:    5542
 k-point 105 :   0.1429 0.1429 0.5000  plane waves:    5549
 k-point 106 :   0.2857 0.1429 0.5000  plane waves:    5530
 k-point 107 :   0.4286 0.1429 0.5000  plane waves:    5535
 k-point 108 :  -0.4286 0.1429 0.5000  plane waves:    5536
 k-point 109 :  -0.2857 0.1429 0.5000  plane waves:    5535
 k-point 110 :  -0.1429 0.1429 0.5000  plane waves:    5528
 k-point 111 :   0.2857 0.2857 0.5000  plane waves:    5542
 k-point 112 :   0.4286 0.2857 0.5000  plane waves:    5544
 k-point 113 :  -0.4286 0.2857 0.5000  plane waves:    5538
 k-point 114 :  -0.2857 0.2857 0.5000  plane waves:    5546
 k-point 115 :   0.4286 0.4286 0.5000  plane waves:    5542
 k-point 116 :  -0.4286 0.4286 0.5000  plane waves:    5520

 maximum and minimum number of plane-waves per node :      2824     2725

 maximum number of plane-waves:      5585
 maximum index in each direction: 
   IXMAX=   12   IYMAX=   12   IZMAX=   12
   IXMIN=  -12   IYMIN=  -12   IZMIN=  -12


 parallel 3D FFT for wavefunctions:
    minimum data exchange during FFTs selected (reduces bandwidth)
 parallel 3D FFT for charge:
    minimum data exchange during FFTs selected (reduces bandwidth)


 total amount of memory used by VASP MPI-rank0   459854. kBytes
=======================================================================

   base      :      30000. kBytes
   nonl-proj :     142339. kBytes
   fftplans  :      14373. kBytes
   grid      :      11100. kBytes
   one-center:        124. kBytes
   wavefun   :     261918. kBytes
 
     INWAV:  cpu time    0.0001: real time    0.0001
 Broyden mixing: mesh for mixing (old mesh)
   NGX = 25   NGY = 25   NGZ = 25
  (NGX  =100   NGY  =100   NGZ  =100)
  gives a total of  15625 points

 initial charge density was supplied:
 charge density of overlapping atoms calculated
 number of electron     160.0000000 magnetization 
 keeping initial charge density in first step


--------------------------------------------------------------------------------------------------------


 Maximum index for augmentation-charges        22131 (set IRDMAX)


--------------------------------------------------------------------------------------------------------


 First call to EWALD:  gamma=   0.323
 Maximum number of real-space cells 3x 3x 3
 Maximum number of reciprocal cells 3x 3x 3

    FEWALD:  cpu time    0.0017: real time    0.0017


--------------------------------------- Iteration      1(   1)  ---------------------------------------


    POTLOK:  cpu time    0.1801: real time    0.1815
    SETDIJ:  cpu time    0.6816: real time    0.6862
    TRIAL :  cpu time   34.1820: real time   34.5022
    CORREC:  cpu time    0.0031: real time    0.0031
    --------------------------------------------
      LOOP:  cpu time   35.1597: real time   35.4907

 eigenvalue-minimisations  : 23952
 total energy-change (2. order) : 0.3747422E+04  (-0.1322567E+05)
 number of electron     160.0000000 magnetization 
 augmentation part      160.0000000 magnetization 

 Free energy of the ion-electron system (eV)
  ---------------------------------------------------
  alpha Z        PSCENC =      1373.85941844
  Ewald energy   TEWEN  =     -6426.30360445
  -Hartree energ DENC   =    -10195.70153345
  -exchange      EXHF   =         0.00000000
  -V(xc)+E(xc)   XCENC  =       895.44982574
  PAW double counting   =     15195.10980530   -15141.88575711
  entropy T*S    EENTRO =        -0.00048749
  eigenvalues    EBANDS =     -1066.74212200
  atomic energy  EATOM  =     19113.63672979
  ---------------------------------------------------
  free energy    TOTEN  =      3747.42227477 eV

  energy without entropy =     3747.42276226  energy(sigma->0) =     3747.42251852


--------------------------------------------------------------------------------------------------------




--------------------------------------- Iteration      1(   2)  ---------------------------------------


    TRIAL :  cpu time   32.9913: real time   33.3003
    CORREC:  cpu time    0.0032: real time    0.0033
    --------------------------------------------
      LOOP:  cpu time   32.9951: real time   33.3065

 eigenvalue-minimisations  : 23856
 total energy-change (2. order) :-0.2498704E+04  (-0.2432140E+04)
 number of electron     160.0000000 magnetization 
 augmentation part      160.0000000 magnetization 

 Free energy of the ion-electron system (eV)
  ---------------------------------------------------
  alpha Z        PSCENC =      1373.85941844
  Ewald energy   TEWEN  =     -6426.30360445
  -Hartree energ DENC   =    -10195.70153345
  -exchange      EXHF   =         0.00000000
  -V(xc)+E(xc)   XCENC  =       895.44982574
  PAW double counting   =     15195.10980530   -15141.88575711
  entropy T*S    EENTRO =        -0.00121592
  eigenvalues    EBANDS =     -3565.44547859
  atomic energy  EATOM  =     19113.63672979
  ---------------------------------------------------
  free energy    TOTEN  =      1248.71818975 eV

  energy without entropy =     1248.71940567  energy(sigma->0) =     1248.71879771


--------------------------------------------------------------------------------------------------------




--------------------------------------- Iteration      1(   3)  ---------------------------------------


    TRIAL :  cpu time   36.2510: real time   36.5881
    CORREC:  cpu time    0.0031: real time    0.0031
    --------------------------------------------
      LOOP:  cpu time   36.2544: real time   36.5941

 eigenvalue-minimisations  : 27768
 total energy-change (2. order) :-0.1749040E+03  (-0.1700248E+03)
 number of electron     160.0000000 magnetization 
 augmentation part      160.0000000 magnetization 

 Free energy of the ion-electron system (eV)
  ---------------------------------------------------
  alpha Z        PSCENC =      1373.85941844
  Ewald energy   TEWEN  =     -6426.30360445
  -Hartree energ DENC   =    -10195.70153345
  -exchange      EXHF   =         0.00000000
  -V(xc)+E(xc)   XCENC  =       895.44982574
  PAW double counting   =     15195.10980530   -15141.88575711
  entropy T*S    EENTRO =        -0.00206497
  eigenvalues    EBANDS =     -3740.34859678
  atomic energy  EATOM  =     19113.63672979
  ---------------------------------------------------
  free energy    TOTEN  =      1073.81422252 eV

  energy without entropy =     1073.81628748  energy(sigma->0) =     1073.81525500


--------------------------------------------------------------------------------------------------------




--------------------------------------- Iteration      1(   4)  ---------------------------------------


    TRIAL :  cpu time   34.9100: real time   35.2479
    CORREC:  cpu time    0.0032: real time    0.0032
    --------------------------------------------
      LOOP:  cpu time   34.9141: real time   35.2539

 eigenvalue-minimisations  : 26520
 total energy-change (2. order) :-0.5836614E+01  (-0.5763393E+01)
 number of electron     160.0000000 magnetization 
 augmentation part      160.0000000 magnetization 

 Free energy of the ion-electron system (eV)
  ---------------------------------------------------
  alpha Z        PSCENC =      1373.85941844
  Ewald energy   TEWEN  =     -6426.30360445
  -Hartree energ DENC   =    -10195.70153345
  -exchange      EXHF   =         0.00000000
  -V(xc)+E(xc)   XCENC  =       895.44982574
  PAW double counting   =     15195.10980530   -15141.88575711
  entropy T*S    EENTRO =        -0.00205819
  eigenvalues    EBANDS =     -3746.18521751
  atomic energy  EATOM  =     19113.63672979
  ---------------------------------------------------
  free energy    TOTEN  =      1067.97760857 eV

  energy without entropy =     1067.97966675  energy(sigma->0) =     1067.97863766


--------------------------------------------------------------------------------------------------------




--------------------------------------- Iteration      1(   5)  ---------------------------------------


    TRIAL :  cpu time   35.5748: real time   35.9138
    CORREC:  cpu time    0.0034: real time    0.0035
    CHARGE:  cpu time    2.6382: real time    2.6585
    --------------------------------------------
      LOOP:  cpu time   38.2177: real time   38.5786

 eigenvalue-minimisations  : 27300
 total energy-change (2. order) :-0.1790564E+00  (-0.1788906E+00)
 number of electron     160.0000002 magnetization 
 augmentation part       41.9076525 magnetization 

 Free energy of the ion-electron system (eV)
  ---------------------------------------------------
  alpha Z        PSCENC =      1373.85941844
  Ewald energy   TEWEN  =     -6426.30360445
  -Hartree energ DENC   =    -10195.70153345
  -exchange      EXHF   =         0.00000000
  -V(xc)+E(xc)   XCENC  =       895.44982574
  PAW double counting   =     15195.10980530   -15141.88575711
  entropy T*S    EENTRO =        -0.00201424
  eigenvalues    EBANDS =     -3746.36431789
  atomic energy  EATOM  =     19113.63672979
  ---------------------------------------------------
  free energy    TOTEN  =      1067.79855214 eV

  energy without entropy =     1067.80056638  energy(sigma->0) =     1067.79955926


--------------------------------------------------------------------------------------------------------




--------------------------------------- Iteration      1(   6)  ---------------------------------------


    POTLOK:  cpu time    0.1246: real time    0.1254
    SETDIJ:  cpu time    0.6746: real time    0.6790
    TRIAL :  cpu time   24.6376: real time   24.8638
    CORREC:  cpu time    8.7823: real time    8.8591
    CHARGE:  cpu time    2.5801: real time    2.5986
    --------------------------------------------
      LOOP:  cpu time   36.8013: real time   37.1294

 eigenvalue-minimisations  :     0
 total energy-change (2. order) : 0.7349714E+03  (-0.4984973E+03)
 number of electron     160.0000002 magnetization 
 augmentation part       34.3213060 magnetization 

 Free energy of the ion-electron system (eV)
  ---------------------------------------------------
  alpha Z        PSCENC =      1373.85941844
  Ewald energy   TEWEN  =     -6426.30360445
  -Hartree energ DENC   =    -15410.29955062
  -exchange      EXHF   =         0.00000000
  -V(xc)+E(xc)   XCENC  =      1032.64328344
  PAW double counting   =   1723926.09705822 -1723784.40755610
  entropy T*S    EENTRO =        -0.00203910
  eigenvalues    EBANDS =      1977.54621044
  atomic energy  EATOM  =     19113.63672979
  ---------------------------------------------------
  free energy    TOTEN  =      1802.76997493 eV

  energy without entropy =     1802.77201403  energy(sigma->0) =     1802.77099448


--------------------------------------------------------------------------------------------------------




--------------------------------------- Iteration      1(   7)  ---------------------------------------


    POTLOK:  cpu time    0.1167: real time    0.1174
    SETDIJ:  cpu time    0.6728: real time    0.6774
    TRIAL :  cpu time   25.0798: real time   25.3183
    CORREC:  cpu time    9.0205: real time    9.0958
    CHARGE:  cpu time    2.5823: real time    2.6031
    --------------------------------------------
      LOOP:  cpu time   37.4731: real time   37.8157

 eigenvalue-minimisations  :     0
 total energy-change (2. order) :-0.4832490E+03  (-0.3628700E+02)
 number of electron     160.0000002 magnetization 
 augmentation part       36.1437957 magnetization 

 Free energy of the ion-electron system (eV)
  ---------------------------------------------------
  alpha Z        PSCENC =      1373.85941844
  Ewald energy   TEWEN  =     -6426.30360445
  -Hartree energ DENC   =    -11672.89097693
  -exchange      EXHF   =         0.00000000
  -V(xc)+E(xc)   XCENC  =       962.55550657
  PAW double counting   =    950760.10703455  -950682.81022996
  entropy T*S    EENTRO =        -0.00213312
  eigenvalues    EBANDS =     -2108.63082365
  atomic energy  EATOM  =     19113.63672979
  ---------------------------------------------------
  free energy    TOTEN  =      1319.52101526 eV

  energy without entropy =     1319.52314838  energy(sigma->0) =     1319.52208182


--------------------------------------------------------------------------------------------------------




--------------------------------------- Iteration      1(   8)  ---------------------------------------


    POTLOK:  cpu time    0.1210: real time    0.1221
    SETDIJ:  cpu time    0.6716: real time    0.6760
    TRIAL :  cpu time   24.9961: real time   25.2358
    CORREC:  cpu time    8.7825: real time    8.8623
    CHARGE:  cpu time    2.5719: real time    2.5918
    --------------------------------------------
      LOOP:  cpu time   37.1454: real time   37.4912

 eigenvalue-minimisations  :     0
 total energy-change (2. order) :-0.3531556E+02  (-0.1246349E+02)
 number of electron     160.0000002 magnetization 
 augmentation part       35.6331208 magnetization 

 Free energy of the ion-electron system (eV)
  ---------------------------------------------------
  alpha Z        PSCENC =      1373.85941844
  Ewald energy   TEWEN  =     -6426.30360445
  -Hartree energ DENC   =    -11382.25818890
  -exchange      EXHF   =         0.00000000
  -V(xc)+E(xc)   XCENC  =       957.66528977
  PAW double counting   =    841167.47444934  -841076.28613175
  entropy T*S    EENTRO =        -0.00113258
  eigenvalues    EBANDS =     -2443.58036910
  atomic energy  EATOM  =     19113.63672979
  ---------------------------------------------------
  free energy    TOTEN  =      1284.20546002 eV

  energy without entropy =     1284.20659260  energy(sigma->0) =     1284.20602631


--------------------------------------------------------------------------------------------------------




--------------------------------------- Iteration      1(   9)  ---------------------------------------


    POTLOK:  cpu time    0.1243: real time    0.1252
    SETDIJ:  cpu time    0.6685: real time    0.6730
    TRIAL :  cpu time   24.9988: real time   25.2353
    CORREC:  cpu time    8.8144: real time    8.8930
    CHARGE:  cpu time    2.5621: real time    2.5826
    --------------------------------------------
      LOOP:  cpu time   37.1750: real time   37.5170

 eigenvalue-minimisations  :     0
 total energy-change (2. order) :-0.1244497E+02  (-0.4351561E+01)
 number of electron     160.0000002 magnetization 
 augmentation part       36.3995192 magnetization 

 Free energy of the ion-electron system (eV)
  ---------------------------------------------------
  alpha Z        PSCENC =      1373.85941844
  Ewald energy   TEWEN  =     -6426.30360445
  -Hartree energ DENC   =    -11266.93155984
  -exchange      EXHF   =         0.00000000
  -V(xc)+E(xc)   XCENC  =       956.06367804
  PAW double counting   =    823272.31335567  -823177.88285788
  entropy T*S    EENTRO =        -0.00164046
  eigenvalues    EBANDS =     -2572.99353807
  atomic energy  EATOM  =     19113.63672979
  ---------------------------------------------------
  free energy    TOTEN  =      1271.76048911 eV

  energy without entropy =     1271.76212956  energy(sigma->0) =     1271.76130934


[...]
      2    -111.3986      2.00000
      3     -78.2786      2.00000
      4     -78.2779      2.00000
      5     -78.2743      2.00000
      6     -78.2739      2.00000
      7     -59.6422      2.00000
      8     -59.6406      2.00000
      9     -59.4320      2.00000
     10     -59.4317      2.00000
     11     -48.3443      2.00000
     12     -48.3246      2.00000
     13     -46.4095      2.00000
     14     -46.4071      2.00000
     15     -39.3888      2.00000
     16     -39.3341      2.00000
     17     -37.9645      2.00000
     18     -37.9612      2.00000
     19     -37.9608      2.00000
     20     -37.9589      2.00000
     21     -28.1828      2.00000
     22     -28.1458      2.00000
     23     -27.9741      2.00000
     24     -27.9451      2.00000
     25     -22.3613      2.00000
     26     -22.3402      2.00000
     27     -22.1126      2.00000
     28     -22.0698      2.00000
     29     -21.9790      2.00000
     30     -21.9284      2.00000
     31     -19.9473      2.00000
     32     -19.8695      2.00000
     33     -19.8564      2.00000
     34     -19.7854      2.00000
     35     -15.8793      2.00000
     36     -15.8233      2.00000
     37      -7.7017      2.00000
     38      -7.6926      2.00000
     39      -7.1826      2.00000
     40      -7.0478      2.00000
     41      -4.1346      2.00000
     42      -3.6192      2.00000
     43      -3.5623      2.00000
     44      -2.4642      2.00000
     45      -1.1646      2.00000
     46      -0.8063      2.00000
     47       0.1187      2.00000
     48       0.2032      2.00000
     49       2.8435      2.00000
     50       2.9444      2.00000
     51       4.1379      2.00000
     52       4.4303      2.00000
     53       4.6157      2.00000
     54       5.2658      2.00000
     55       5.8519      2.00000
     56       5.9102      2.00000
     57       6.3821      2.00000
     58       7.3084      2.00000
     59       7.6444      2.00000
     60       7.9702      2.00000
     61       8.4373      2.00000
     62       8.5900      2.00000
     63       9.0566      2.00000
     64       9.2073      2.00000
     65       9.5213      2.00000
     66       9.6957      2.00000
     67      10.2331      2.00000
     68      10.8609      2.00000
     69      11.0346      2.00000
     70      11.1778      2.00000
     71      11.6460      2.00000
     72      12.0469      2.00000
     73      12.1117      2.00000
     74      12.5369      2.00000
     75      12.9075      2.00000
     76      12.9536      2.00000
     77      13.2088      2.00000
     78      13.3862      2.00000
     79      13.7398      2.00000
     80      14.4011      0.00000
     81      14.4830      0.00000
     82      14.7721      0.00000
     83      14.9803      0.00000
     84      15.1952      0.00000
     85      15.4045      0.00000
     86      15.6756      0.00000
     87      15.8419      0.00000
     88      16.3919      0.00000
     89      16.4928      0.00000
     90      16.9092      0.00000
     91      17.3641      0.00000
     92      17.5282      0.00000
     93      18.6608      0.00000
     94      18.6843      0.00000
     95      19.2487      0.00000
     96      20.3673      0.00000

 k-point   113 :      -0.4286    0.2857    0.5000
  band No.  band energies     occupation 
      1    -111.3989      2.00000
      2    -111.3983      2.00000
      3     -78.2784      2.00000
      4     -78.2780      2.00000
      5     -78.2745      2.00000
      6     -78.2739      2.00000
      7     -59.6422      2.00000
      8     -59.6406      2.00000
      9     -59.4321      2.00000
     10     -59.4316      2.00000
     11     -48.3441      2.00000
     12     -48.3249      2.00000
     13     -46.4096      2.00000
     14     -46.4071      2.00000
     15     -39.3888      2.00000
     16     -39.3341      2.00000
     17     -37.9636      2.00000
     18     -37.9620      2.00000
     19     -37.9613      2.00000
     20     -37.9583      2.00000
     21     -28.1783      2.00000
     22     -28.1503      2.00000
     23     -27.9786      2.00000
     24     -27.9406      2.00000
     25     -22.3657      2.00000
     26     -22.3358      2.00000
     27     -22.1126      2.00000
     28     -22.0696      2.00000
     29     -21.9790      2.00000
     30     -21.9286      2.00000
     31     -19.9475      2.00000
     32     -19.8694      2.00000
     33     -19.8563      2.00000
     34     -19.7855      2.00000
     35     -15.8803      2.00000
     36     -15.8224      2.00000
     37      -7.6991      2.00000
     38      -7.6945      2.00000
     39      -7.1778      2.00000
     40      -7.0576      2.00000
     41      -4.1265      2.00000
     42      -3.6140      2.00000
     43      -3.5731      2.00000
     44      -2.4647      2.00000
     45      -1.1650      2.00000
     46      -0.8062      2.00000
     47       0.0609      2.00000
     48       0.2801      2.00000
     49       2.7272      2.00000
     50       3.0880      2.00000
     51       4.1842      2.00000
     52       4.5280      2.00000
     53       4.6226      2.00000
     54       5.3260      2.00000
     55       5.7250      2.00000
     56       5.7937      2.00000
     57       6.3985      2.00000
     58       7.3016      2.00000
     59       7.6014      2.00000
     60       7.9611      2.00000
     61       8.1873      2.00000
     62       8.7618      2.00000
     63       8.9226      2.00000
     64       9.0611      2.00000
     65       9.5049      2.00000
     66       9.6360      2.00000
     67      10.2101      2.00000
     68      10.9421      2.00000
     69      11.0018      2.00000
     70      11.2612      2.00000
     71      11.5578      2.00000
     72      11.9094      2.00000
     73      12.4998      2.00000
     74      12.7131      2.00000
     75      12.8969      2.00000
     76      13.1858      2.00000
     77      13.4455      2.00000
     78      13.5705      2.00000
     79      13.9440      1.99911
     80      14.2848      0.00000
     81      14.5630      0.00000
     82      14.6207      0.00000
     83      14.8321      0.00000
     84      15.2631      0.00000
     85      15.4153      0.00000
     86      15.6164      0.00000
     87      15.8000      0.00000
     88      16.0650      0.00000
     89      16.5376      0.00000
     90      16.7966      0.00000
     91      17.3389      0.00000
     92      17.5815      0.00000
     93      18.4818      0.00000
     94      19.2773      0.00000
     95      19.4994      0.00000
     96      20.3743      0.00000

 k-point   114 :      -0.2857    0.2857    0.5000
  band No.  band energies     occupation 
      1    -111.3992      2.00000
      2    -111.3985      2.00000
      3     -78.2784      2.00000
      4     -78.2781      2.00000
      5     -78.2745      2.00000
      6     -78.2738      2.00000
      7     -59.6421      2.00000
      8     -59.6407      2.00000
      9     -59.4320      2.00000
     10     -59.4317      2.00000
     11     -48.3404      2.00000
     12     -48.3254      2.00000
     13     -46.4119      2.00000
     14     -46.4101      2.00000
     15     -39.3834      2.00000
     16     -39.3396      2.00000
     17     -37.9631      2.00000
     18     -37.9627      2.00000
     19     -37.9615      2.00000
     20     -37.9580      2.00000
     21     -28.1812      2.00000
     22     -28.0975      2.00000
     23     -28.0222      2.00000
     24     -27.9273      2.00000
     25     -22.3666      2.00000
     26     -22.3339      2.00000
     27     -22.0601      2.00000
     28     -22.0520      2.00000
     29     -21.9480      2.00000
     30     -21.9380      2.00000
     31     -19.9496      2.00000
     32     -19.9319      2.00000
     33     -19.8738      2.00000
     34     -19.8612      2.00000
     35     -15.8757      2.00000
     36     -15.8271      2.00000
     37      -7.6999      2.00000
     38      -7.6990      2.00000
     39      -7.1537      2.00000
     40      -7.0716      2.00000
     41      -4.1219      2.00000
     42      -3.6906      2.00000
     43      -3.4391      2.00000
     44      -2.5225      2.00000
     45      -1.1206      2.00000
     46      -0.8315      2.00000
     47       0.0494      2.00000
     48       0.3578      2.00000
     49       2.6283      2.00000
     50       3.1361      2.00000
     51       4.2806      2.00000
     52       4.6446      2.00000
     53       4.7609      2.00000
     54       5.6465      2.00000
     55       5.7411      2.00000
     56       5.8988      2.00000
     57       6.0128      2.00000
     58       7.1668      2.00000
     59       7.7293      2.00000
     60       8.0222      2.00000
     61       8.1365      2.00000
     62       8.8753      2.00000
     63       9.0388      2.00000
     64       9.1905      2.00000
     65       9.3965      2.00000
     66       9.7680      2.00000
     67      10.2824      2.00000
     68      10.5487      2.00000
     69      11.3204      2.00000
     70      11.5264      2.00000
     71      11.5768      2.00000
     72      11.7949      2.00000
     73      12.1475      2.00000
     74      12.4260      2.00000
     75      12.9402      2.00000
     76      13.2412      2.00000
     77      13.2721      2.00000
     78      13.3568      2.00000
     79      13.4291      2.00000
     80      13.5757      2.00000
     81      14.2266      0.00000
     82      14.7363      0.00000
     83      15.0400      0.00000
     84      15.0487      0.00000
     85      15.4380      0.00000
     86      15.5271      0.00000
     87      15.8953      0.00000
     88      16.0238      0.00000
     89      16.5873      0.00000
     90      17.1072      0.00000
     91      17.4933      0.00000
     92      17.7882      0.00000
     93      18.2570      0.00000
     94      19.2664      0.00000
     95      19.3703      0.00000
     96      20.8833      0.00000

 k-point   115 :       0.4286    0.4286    0.5000
  band No.  band energies     occupation 
      1    -111.3988      2.00000
      2    -111.3984      2.00000
      3     -78.2785      2.00000
      4     -78.2779      2.00000
      5     -78.2744      2.00000
      6     -78.2739      2.00000
      7     -59.6425      2.00000
      8     -59.6405      2.00000
      9     -59.4321      2.00000
     10     -59.4316      2.00000
     11     -48.3482      2.00000
     12     -48.3239      2.00000
     13     -46.4069      2.00000
     14     -46.4040      2.00000
     15     -39.3954      2.00000
     16     -39.3272      2.00000
     17     -37.9645      2.00000
     18     -37.9612      2.00000
     19     -37.9611      2.00000
     20     -37.9584      2.00000
     21     -28.2020      2.00000
     22     -28.1861      2.00000
     23     -27.9427      2.00000
     24     -27.9358      2.00000
     25     -22.3664      2.00000
     26     -22.3361      2.00000
     27     -22.1288      2.00000
     28     -22.1283      2.00000
     29     -21.9632      2.00000
     30     -21.9607      2.00000
     31     -19.8780      2.00000
     32     -19.8777      2.00000
     33     -19.7750      2.00000
     34     -19.7714      2.00000
     35     -15.8866      2.00000
     36     -15.8160      2.00000
     37      -7.6986      2.00000
     38      -7.6892      2.00000
     39      -7.2121      2.00000
     40      -7.0484      2.00000
     41      -4.1735      2.00000
     42      -3.7584      2.00000
     43      -3.4745      2.00000
     44      -2.3223      2.00000
     45      -1.2177      2.00000
     46      -0.7722      2.00000
     47       0.0658      2.00000
     48       0.2329      2.00000
     49       2.7778      2.00000
     50       3.0731      2.00000
     51       4.2450      2.00000
     52       4.4043      2.00000
     53       4.5086      2.00000
     54       4.9108      2.00000
     55       5.6511      2.00000
     56       5.6790      2.00000
     57       6.9462      2.00000
     58       7.3673      2.00000
     59       7.6537      2.00000
     60       7.9821      2.00000
     61       8.1598      2.00000
     62       8.2302      2.00000
     63       8.8360      2.00000
     64       8.8775      2.00000
     65       9.5375      2.00000
     66       9.5782      2.00000
     67      10.0262      2.00000
     68      10.5287      2.00000
     69      11.2173      2.00000
     70      11.3044      2.00000
     71      11.5682      2.00000
     72      11.9336      2.00000
     73      12.9726      2.00000
     74      13.1002      2.00000
     75      13.1086      2.00000
     76      13.2629      2.00000
     77      13.6291      2.00000
     78      14.1055      0.00000
     79      14.1268      0.00000
     80      14.6922      0.00000
     81      14.7674      0.00000
     82      14.8230      0.00000
     83      14.8430      0.00000
     84      15.3555      0.00000
     85      15.4313      0.00000
     86      15.6867      0.00000
     87      15.7347      0.00000
     88      15.8682      0.00000
     89      16.5655      0.00000
     90      16.5883      0.00000
     91      17.5443      0.00000
     92      17.5483      0.00000
     93      18.7981      0.00000
     94      19.1123      0.00000
     95      19.4994      0.00000
     96      19.5093      0.00000

 k-point   116 :      -0.4286    0.4286    0.5000
  band No.  band energies     occupation 
      1    -111.3987      2.00000
      2    -111.3981      2.00000
      3     -78.2784      2.00000
      4     -78.2780      2.00000
      5     -78.2744      2.00000
      6     -78.2738      2.00000
      7     -59.6425      2.00000
      8     -59.6405      2.00000
      9     -59.4321      2.00000
     10     -59.4315      2.00000
     11     -48.3481      2.00000
     12     -48.3240      2.00000
     13     -46.4069      2.00000
     14     -46.4039      2.00000
     15     -39.3954      2.00000
     16     -39.3272      2.00000
     17     -37.9642      2.00000
     18     -37.9614      2.00000
     19     -37.9614      2.00000
     20     -37.9581      2.00000
     21     -28.1973      2.00000
     22     -28.1908      2.00000
     23     -27.9473      2.00000
     24     -27.9311      2.00000
     25     -22.3679      2.00000
     26     -22.3346      2.00000
     27     -22.1295      2.00000
     28     -22.1275      2.00000
     29     -21.9623      2.00000
     30     -21.9618      2.00000
     31     -19.8797      2.00000
     32     -19.8760      2.00000
     33     -19.7731      2.00000
     34     -19.7731      2.00000
     35     -15.8869      2.00000
     36     -15.8156      2.00000
     37      -7.6976      2.00000
     38      -7.6898      2.00000
     39      -7.2105      2.00000
     40      -7.0521      2.00000
     41      -4.1706      2.00000
     42      -3.7571      2.00000
     43      -3.4777      2.00000
     44      -2.3223      2.00000
     45      -1.2179      2.00000
     46      -0.7722      2.00000
     47       0.0459      2.00000
     48       0.2608      2.00000
     49       2.7365      2.00000
     50       3.1285      2.00000
     51       4.2770      2.00000
     52       4.4485      2.00000
     53       4.5109      2.00000
     54       4.9279      2.00000
     55       5.5908      2.00000
     56       5.6227      2.00000
     57       6.9598      2.00000
     58       7.3737      2.00000
     59       7.6394      2.00000
     60       7.9771      2.00000
     61       8.0738      2.00000
     62       8.2874      2.00000
     63       8.7766      2.00000
     64       8.8040      2.00000
     65       9.5369      2.00000
     66       9.5670      2.00000
     67       9.9906      2.00000
     68      10.5529      2.00000
     69      11.2062      2.00000
     70      11.3351      2.00000
     71      11.5236      2.00000
     72      11.8949      2.00000
     73      13.0215      2.00000
     74      13.0953      2.00000
     75      13.1322      2.00000
     76      13.7757      2.00000
     77      14.0601      0.00000
     78      14.1094      0.00000
     79      14.2671      0.00000
     80      14.3740      0.00000
     81      14.6874      0.00000
     82      14.6942      0.00000
     83      14.8189      0.00000
     84      15.3109      0.00000
     85      15.4436      0.00000
     86      15.5540      0.00000
     87      15.5607      0.00000
     88      15.8582      0.00000
     89      16.5436      0.00000
     90      16.6174      0.00000
     91      17.6028      0.00000
     92      18.2732      0.00000
     93      19.0078      0.00000
     94      19.1298      0.00000
     95      19.3380      0.00000
     96      19.5361      0.00000


--------------------------------------------------------------------------------------------------------


 soft charge-density along one line, spin component           1
         0         1         2         3         4         5         6         7         8         9
 total charge-density along one line
 
 pseudopotential strength for first ion, spin component:           1
  5.688   8.597  -0.000  -0.000  -0.000  -0.001  -0.001  -0.000
  8.597  12.983  -0.001  -0.001  -0.000  -0.001  -0.001  -0.000
 -0.000  -0.001  -1.849   0.002  -0.001  -3.046   0.004  -0.002
 -0.000  -0.001   0.002  -1.850   0.001   0.004  -3.048   0.003
 -0.000  -0.000  -0.001   0.001  -1.848  -0.002   0.003  -3.044
 -0.001  -0.001  -3.046   0.004  -0.002  -4.801   0.007  -0.005
 -0.001  -0.001   0.004  -3.048   0.003   0.007  -4.805   0.005
 -0.000  -0.000  -0.002   0.003  -3.044  -0.005   0.005  -4.798
 total augmentation occupancy for first ion, spin component:           1
  2.931  -0.599  -0.076  -0.094  -0.054   0.028   0.035   0.020
 -0.599   0.155   0.030   0.037   0.021  -0.009  -0.011  -0.006
 -0.076   0.030   1.854  -0.204  -0.070  -0.446   0.058   0.031
 -0.094   0.037  -0.204   1.801  -0.144   0.058  -0.424   0.041
 -0.054   0.021  -0.070  -0.144   1.904   0.031   0.041  -0.468
  0.028  -0.009  -0.446   0.058   0.031   0.113  -0.017  -0.011
  0.035  -0.011   0.058  -0.424   0.041  -0.017   0.106  -0.012
  0.020  -0.006   0.031   0.041  -0.468  -0.011  -0.012   0.121


------------------------ aborting loop because EDIFF is reached ----------------------------------------




--------------------------------------------------------------------------------------------------------



  FREE ENERGIE OF THE ION-ELECTRON SYSTEM (eV)
  ---------------------------------------------------
  free  energy   TOTEN  =      1262.15221472 eV

  energy  without entropy=     1262.15363505  energy(sigma->0) =     1262.15292489
 


--------------------------------------------------------------------------------------------------------


    POTLOK:  cpu time    0.8581: real time    0.8644


--------------------------------------------------------------------------------------------------------


 writing wavefunctions
     LOOP+:  cpu time 2105.0045: real time 2124.3255
    4ORBIT:  cpu time    0.0000: real time    0.0000

 total amount of memory used by VASP MPI-rank0   459854. kBytes
=======================================================================

   base      :      30000. kBytes
   nonl-proj :     142339. kBytes
   fftplans  :      14373. kBytes
   grid      :      11100. kBytes
   one-center:        124. kBytes
   wavefun   :     261918. kBytes
 
  
  
 General timing and accounting informations for this job:
 ========================================================
  
                  Total CPU time used (sec):     2111.357
                            User time (sec):     2104.262
                          System time (sec):        7.094
                         Elapsed time (sec):     2131.539
  
                   Maximum memory used (kb):      694752.
                   Average memory used (kb):          N/A
  
                          Minor page faults:      2946500
                          Major page faults:           33
                 Voluntary context switches:         1252
