<?xml version="1.0" encoding="ISO-8859-1"?>
<modeling>
 <generator>
  <i name="program" type="string">vasp </i>
  <i name="version" type="string">6.2.0  </i>
  <i name="subversion" type="string">18Jan21 (build Jan 05 2022 15:41:44) complex                          parallel </i>
  <i name="platform" type="string">LinuxIFC </i>
  <i name="date" type="string">2025 05 07 </i>
  <i name="time" type="string">18:40:11 </i>
 </generator>
 <incar>
  <i type="string" name="SYSTEM">routine with relax: pwdword</i>
  <i type="string" name="PREC">Acc</i>
  <i type="int" name="IALGO">    38</i>
  <i type="string" name="ALGO">A</i>
  <i type="logical" name="ADDGRID"> T  </i>
  <i type="int" name="ICHARG">     2</i>
  <i type="int" name="NELM">   100</i>
  <i type="int" name="NELMIN">     6</i>
  <i name="EDIFF">      0.00000000</i>
  <i type="int" name="NSW">     0</i>
  <i type="int" name="ISIF">    -1</i>
  <i name="ENCUT">    600.00000000</i>
  <i type="logical" name="LREAL"> F  </i>
  <i type="int" name="ISMEAR">     0</i>
  <i name="SIGMA">      0.02000000</i>
  <i type="logical" name="LASPH"> T  </i>
  <i type="string" name="METAGGA">R2SCAN</i>
  <i type="logical" name="LMIXTAU"> F  </i>
 </incar>
 <primitive_cell>
  <structure name="primitive_cell" >
   <crystal>
    <varray name="basis" >
     <v>       5.34574788       0.00000000      -3.06823304 </v>
     <v>      -1.79245433       5.03628116      -3.06823304 </v>
     <v>       0.00000000       0.00000000       6.16369000 </v>
    </varray>
    <i name="volume">    165.94311089 </i>
    <varray name="rec_basis" >
     <v>       0.18706456       0.06657783       0.00000000 </v>
     <v>       0.00000000       0.19855921       0.00000000 </v>
     <v>       0.09311917       0.13198299       0.16224048 </v>
    </varray>
   </crystal>
   <varray name="positions" >
    <v>       0.18219000       0.68219000       0.86438000 </v>
    <v>       0.81781000       0.31781000       0.13562000 </v>
    <v>       0.68219000       0.81781000       0.50000000 </v>
    <v>       0.31781000       0.18219000       0.50000000 </v>
    <v>       0.25000000       0.25000000       0.00000000 </v>
    <v>       0.15884000       0.65884000       0.32878000 </v>
    <v>       0.75000000       0.75000000       0.00000000 </v>
    <v>       0.84116000       0.34116000       0.67122000 </v>
    <v>       0.65884000       0.33007000       0.50000000 </v>
    <v>       0.34116000       0.66993000       0.50000000 </v>
    <v>       0.33007000       0.83007000       0.67122000 </v>
    <v>       0.66993000       0.16993000       0.32878000 </v>
    <v>       0.83007000       0.15884000       0.50000000 </v>
    <v>       0.16993000       0.84116000       0.50000000 </v>
    <v>       0.50000000       0.50000000       0.00000000 </v>
    <v>       0.00000000       0.00000000       0.00000000 </v>
   </varray>
  </structure>
  <varray name="primitive_index" >
   <v type="int" >        1 </v>
   <v type="int" >        2 </v>
   <v type="int" >        3 </v>
   <v type="int" >        4 </v>
   <v type="int" >        5 </v>
   <v type="int" >        6 </v>
   <v type="int" >        7 </v>
   <v type="int" >        8 </v>
   <v type="int" >        9 </v>
   <v type="int" >       10 </v>
   <v type="int" >       11 </v>
   <v type="int" >       12 </v>
   <v type="int" >       13 </v>
   <v type="int" >       14 </v>
   <v type="int" >       15 </v>
   <v type="int" >       16 </v>
  </varray>
 </primitive_cell>
 <kpoints>
  <generation param="Gamma">
   <v type="int" name="divisions">       7        7        8 </v>
   <v name="usershift">      0.00000000       0.00000000       0.00000000 </v>
   <v name="genvec1">      0.14285714       0.00000000       0.00000000 </v>
   <v name="genvec2">      0.00000000       0.14285714       0.00000000 </v>
   <v name="genvec3">     -0.00000000       0.00000000       0.12500000 </v>
   <v name="shift">      0.00000000       0.00000000       0.00000000 </v>
  </generation>
  <varray name="kpointlist" >
   <v>       0.00000000       0.00000000       0.00000000 </v>
   <v>       0.14285714       0.00000000       0.00000000 </v>
   <v>       0.28571429       0.00000000       0.00000000 </v>
   <v>       0.42857143       0.00000000       0.00000000 </v>
   <v>       0.14285714       0.14285714       0.00000000 </v>
   <v>       0.28571429       0.14285714       0.00000000 </v>
   <v>       0.42857143       0.14285714       0.00000000 </v>
   <v>      -0.42857143       0.14285714       0.00000000 </v>
   <v>      -0.28571429       0.14285714       0.00000000 </v>
   <v>      -0.14285714       0.14285714       0.00000000 </v>
   <v>       0.28571429       0.28571429       0.00000000 </v>
   <v>       0.42857143       0.28571429       0.00000000 </v>
   <v>      -0.42857143       0.28571429       0.00000000 </v>
   <v>      -0.28571429       0.28571429       0.00000000 </v>
   <v>       0.42857143       0.42857143       0.00000000 </v>
   <v>      -0.42857143       0.42857143       0.00000000 </v>
   <v>       0.00000000      -0.00000000       0.12500000 </v>
   <v>       0.14285714       0.00000000       0.12500000 </v>
   <v>       0.28571429      -0.00000000       0.12500000 </v>
   <v>       0.42857143      -0.00000000       0.12500000 </v>
   <v>      -0.42857143      -0.00000000       0.12500000 </v>
   <v>      -0.28571429      -0.00000000       0.12500000 </v>
   <v>      -0.14285714      -0.00000000       0.12500000 </v>
   <v>       0.14285714       0.14285714       0.12500000 </v>
   <v>       0.28571429       0.14285714       0.12500000 </v>
   <v>       0.42857143       0.14285714       0.12500000 </v>
   <v>      -0.42857143       0.14285714       0.12500000 </v>
   <v>      -0.28571429       0.14285714       0.12500000 </v>
   <v>      -0.14285714       0.14285714       0.12500000 </v>
   <v>       0.28571429       0.28571429       0.12500000 </v>
   <v>       0.42857143       0.28571429       0.12500000 </v>
   <v>      -0.42857143       0.28571429       0.12500000 </v>
   <v>      -0.28571429       0.28571429       0.12500000 </v>
   <v>      -0.14285714       0.28571429       0.12500000 </v>
   <v>       0.42857143       0.42857143       0.12500000 </v>
   <v>      -0.42857143       0.42857143       0.12500000 </v>
   <v>      -0.28571429       0.42857143       0.12500000 </v>
   <v>      -0.14285714       0.42857143       0.12500000 </v>
   <v>      -0.42857143      -0.42857143       0.12500000 </v>
   <v>      -0.28571429      -0.42857143       0.12500000 </v>
   <v>      -0.14285714      -0.42857143       0.12500000 </v>
   <v>      -0.28571429      -0.28571429       0.12500000 </v>
   <v>      -0.14285714      -0.28571429       0.12500000 </v>
   <v>      -0.14285714      -0.14285714       0.12500000 </v>
   <v>       0.00000000      -0.00000000       0.25000000 </v>
   <v>       0.14285714      -0.00000000       0.25000000 </v>
   <v>       0.28571429      -0.00000000       0.25000000 </v>
   <v>       0.42857143      -0.00000000       0.25000000 </v>
   <v>      -0.42857143      -0.00000000       0.25000000 </v>
   <v>      -0.28571429      -0.00000000       0.25000000 </v>
   <v>      -0.14285714      -0.00000000       0.25000000 </v>
   <v>       0.14285714       0.14285714       0.25000000 </v>
   <v>       0.28571429       0.14285714       0.25000000 </v>
   <v>       0.42857143       0.14285714       0.25000000 </v>
   <v>      -0.42857143       0.14285714       0.25000000 </v>
   <v>      -0.28571429       0.14285714       0.25000000 </v>
   <v>      -0.14285714       0.14285714       0.25000000 </v>
   <v>       0.28571429       0.28571429       0.25000000 </v>
   <v>       0.42857143       0.28571429       0.25000000 </v>
   <v>      -0.42857143       0.28571429       0.25000000 </v>
   <v>      -0.28571429       0.28571429       0.25000000 </v>
   <v>      -0.14285714       0.28571429       0.25000000 </v>
   <v>       0.42857143       0.42857143       0.25000000 </v>
   <v>      -0.42857143       0.42857143       0.25000000 </v>
   <v>      -0.28571429       0.42857143       0.25000000 </v>
   <v>      -0.14285714       0.42857143       0.25000000 </v>
   <v>      -0.42857143      -0.42857143       0.25000000 </v>
   <v>      -0.28571429      -0.42857143       0.25000000 </v>
   <v>      -0.14285714      -0.42857143       0.25000000 </v>
   <v>      -0.28571429      -0.28571429       0.25000000 </v>
   <v>      -0.14285714      -0.28571429       0.25000000 </v>
   <v>      -0.14285714      -0.14285714       0.25000000 </v>
   <v>       0.00000000      -0.00000000       0.37500000 </v>
   <v>       0.14285714      -0.00000000       0.37500000 </v>
   <v>       0.28571429      -0.00000000       0.37500000 </v>
   <v>       0.42857143      -0.00000000       0.37500000 </v>
   <v>      -0.42857143      -0.00000000       0.37500000 </v>
   <v>      -0.28571429      -0.00000000       0.37500000 </v>
   <v>      -0.14285714      -0.00000000       0.37500000 </v>
   <v>       0.14285714       0.14285714       0.37500000 </v>
   <v>       0.28571429       0.14285714       0.37500000 </v>
   <v>       0.42857143       0.14285714       0.37500000 </v>
   <v>      -0.42857143       0.14285714       0.37500000 </v>
   <v>      -0.28571429       0.14285714       0.37500000 </v>
   <v>      -0.14285714       0.14285714       0.37500000 </v>
   <v>       0.28571429       0.28571429       0.37500000 </v>
   <v>       0.42857143       0.28571429       0.37500000 </v>
   <v>      -0.42857143       0.28571429       0.37500000 </v>
   <v>      -0.28571429       0.28571429       0.37500000 </v>
   <v>      -0.14285714       0.28571429       0.37500000 </v>
   <v>       0.42857143       0.42857143       0.37500000 </v>
   <v>      -0.42857143       0.42857143       0.37500000 </v>
   <v>      -0.28571429       0.42857143       0.37500000 </v>
   <v>      -0.14285714       0.42857143       0.37500000 </v>
   <v>      -0.42857143      -0.42857143       0.37500000 </v>
   <v>      -0.28571429      -0.42857143       0.37500000 </v>
   <v>      -0.14285714      -0.42857143       0.37500000 </v>
   <v>      -0.28571429      -0.28571429       0.37500000 </v>
   <v>      -0.14285714      -0.28571429       0.37500000 </v>
   <v>      -0.14285714      -0.14285714       0.37500000 </v>
   <v>       0.00000000      -0.00000000       0.50000000 </v>
   <v>       0.14285714       0.00000000       0.50000000 </v>
   <v>       0.28571429      -0.00000000       0.50000000 </v>
   <v>       0.42857143      -0.00000000       0.50000000 </v>
   <v>       0.14285714       0.14285714       0.50000000 </v>
   <v>       0.28571429       0.14285714       0.50000000 </v>
   <v>       0.42857143       0.14285714       0.50000000 </v>
   <v>      -0.42857143       0.14285714       0.50000000 </v>
   <v>      -0.28571429       0.14285714       0.50000000 </v>
   <v>      -0.14285714       0.14285714       0.50000000 </v>
   <v>       0.28571429       0.28571429       0.50000000 </v>
   <v>       0.42857143       0.28571429       0.50000000 </v>
   <v>      -0.42857143       0.28571429       0.50000000 </v>
   <v>      -0.28571429       0.28571429       0.50000000 </v>
   <v>       0.42857143       0.42857143       0.50000000 </v>
   <v>      -0.42857143       0.42857143       0.50000000 </v>
  </varray>
  <varray name="weights" >
   <v>       0.00255102 </v>
   <v>       0.01020408 </v>
   <v>       0.01020408 </v>
   <v>       0.01020408 </v>
   <v>       0.00510204 </v>
   <v>       0.01020408 </v>
   <v>       0.01020408 </v>
   <v>       0.01020408 </v>
   <v>       0.01020408 </v>
   <v>       0.00510204 </v>
   <v>       0.00510204 </v>
   <v>       0.01020408 </v>
   <v>       0.01020408 </v>
   <v>       0.00510204 </v>
   <v>       0.00510204 </v>
   <v>       0.00510204 </v>
   <v>       0.00510204 </v>
   <v>       0.01020408 </v>
   <v>       0.01020408 </v>
   <v>       0.01020408 </v>
   <v>       0.01020408 </v>
   <v>       0.01020408 </v>
   <v>       0.01020408 </v>
   <v>       0.00510204 </v>
   <v>       0.01020408 </v>
   <v>       0.01020408 </v>
   <v>       0.01020408 </v>
   <v>       0.01020408 </v>
   <v>       0.01020408 </v>
   <v>       0.00510204 </v>
   <v>       0.01020408 </v>
   <v>       0.01020408 </v>
   <v>       0.01020408 </v>
   <v>       0.01020408 </v>
   <v>       0.00510204 </v>
   <v>       0.01020408 </v>
   <v>       0.01020408 </v>
   <v>       0.01020408 </v>
   <v>       0.00510204 </v>
   <v>       0.01020408 </v>
   <v>       0.01020408 </v>
   <v>       0.00510204 </v>
   <v>       0.01020408 </v>
   <v>       0.00510204 </v>
   <v>       0.00510204 </v>
   <v>       0.01020408 </v>
   <v>       0.01020408 </v>
   <v>       0.01020408 </v>
   <v>       0.01020408 </v>
   <v>       0.01020408 </v>
   <v>       0.01020408 </v>
   <v>       0.00510204 </v>
   <v>       0.01020408 </v>
   <v>       0.01020408 </v>
   <v>       0.01020408 </v>
   <v>       0.01020408 </v>
   <v>       0.01020408 </v>
   <v>       0.00510204 </v>
   <v>       0.01020408 </v>
   <v>       0.01020408 </v>
   <v>       0.01020408 </v>
   <v>       0.01020408 </v>
   <v>       0.00510204 </v>
   <v>       0.01020408 </v>
   <v>       0.01020408 </v>
   <v>       0.01020408 </v>
   <v>       0.00510204 </v>
   <v>       0.01020408 </v>
   <v>       0.01020408 </v>
   <v>       0.00510204 </v>
   <v>       0.01020408 </v>
   <v>       0.00510204 </v>
   <v>       0.00510204 </v>
   <v>       0.01020408 </v>
   <v>       0.01020408 </v>
   <v>       0.01020408 </v>
   <v>       0.01020408 </v>
   <v>       0.01020408 </v>
   <v>       0.01020408 </v>
   <v>       0.00510204 </v>
   <v>       0.01020408 </v>
   <v>       0.01020408 </v>
   <v>       0.01020408 </v>
   <v>       0.01020408 </v>
   <v>       0.01020408 </v>
   <v>       0.00510204 </v>
   <v>       0.01020408 </v>
   <v>       0.01020408 </v>
   <v>       0.01020408 </v>
   <v>       0.01020408 </v>
   <v>       0.00510204 </v>
   <v>       0.01020408 </v>
   <v>       0.01020408 </v>
   <v>       0.01020408 </v>
   <v>       0.00510204 </v>
   <v>       0.01020408 </v>
   <v>       0.01020408 </v>
   <v>       0.00510204 </v>
   <v>       0.01020408 </v>
   <v>       0.00510204 </v>
   <v>       0.00255102 </v>
   <v>       0.01020408 </v>
   <v>       0.01020408 </v>
   <v>       0.01020408 </v>
   <v>       0.00510204 </v>
   <v>       0.01020408 </v>
   <v>       0.01020408 </v>
   <v>       0.01020408 </v>
   <v>       0.01020408 </v>
   <v>       0.00510204 </v>
   <v>       0.00510204 </v>
   <v>       0.01020408 </v>
   <v>       0.01020408 </v>
   <v>       0.00510204 </v>
   <v>       0.00510204 </v>
   <v>       0.00510204 </v>
  </varray>
 </kpoints>
 <parameters>
  <separator name="general" >
   <i type="string" name="SYSTEM">routine with relax: pwdword</i>
   <i type="logical" name="LCOMPAT"> F  </i>
  </separator>
  <separator name="electronic" >
   <i type="string" name="PREC">acc</i>
   <i name="ENMAX">    600.00000000</i>
   <i name="ENAUG">    535.51400000</i>
   <i name="EDIFF">      0.00000000</i>
   <i type="int" name="IALGO">    58</i>
   <i type="int" name="IWAVPR">    10</i>
   <i type="int" name="NBANDS">    96</i>
   <i type="int" name="NBANDSLOW">    -1</i>
   <i type="int" name="NBANDSHIGH">    -1</i>
   <i name="NELECT">    160.00000000</i>
   <i type="int" name="TURBO">     0</i>
   <i type="int" name="IRESTART">     0</i>
   <i type="int" name="NREBOOT">     0</i>
   <i type="int" name="NMIN">     0</i>
   <i name="EREF">      0.00000000</i>
   <separator name="electronic smearing" >
    <i type="int" name="ISMEAR">     0</i>
    <i name="SIGMA">      0.02000000</i>
    <i name="KSPACING">      0.50000000</i>
    <i type="logical" name="KGAMMA"> T  </i>
    <i type="logical" name="KBLOWUP"> F  </i>
   </separator>
   <separator name="electronic projectors" >
    <i type="logical" name="LREAL"> F  </i>
    <v name="ROPT">      0.00000000      0.00000000      0.00000000</v>
    <i type="int" name="LMAXPAW">  -100</i>
    <i type="int" name="LMAXMIX">     2</i>
    <i type="logical" name="NLSPLINE"> F  </i>
   </separator>
   <separator name="electronic startup" >
    <i type="int" name="ISTART">     0</i>
    <i type="int" name="ICHARG">     2</i>
    <i type="int" name="INIWAV">     1</i>
   </separator>
   <separator name="electronic spin" >
    <i type="int" name="ISPIN">     1</i>
    <i type="logical" name="LNONCOLLINEAR"> F  </i>
    <v name="MAGMOM">      1.00000000      1.00000000      1.00000000      1.00000000      1.00000000      1.00000000      1.00000000      1.00000000      1.00000000      1.00000000      1.00000000      1.00000000      1.00000000      1.00000000      1.00000000      1.00000000</v>
    <i name="NUPDOWN">     -1.00000000</i>
    <i type="logical" name="LSORBIT"> F  </i>
    <v name="SAXIS">      0.00000000      0.00000000      1.00000000</v>
    <i type="logical" name="LSPIRAL"> F  </i>
    <v name="QSPIRAL">      0.00000000      0.00000000      0.00000000</v>
    <i type="logical" name="LZEROZ"> F  </i>
   </separator>
   <separator name="electronic exchange-correlation" >
    <i type="logical" name="LASPH"> T  </i>
    <i type="logical" name="LMETAGGA"> F  </i>
   </separator>
   <separator name="electronic convergence" >
    <i type="int" name="NELM">   100</i>
    <i type="int" name="NELMDL">    -5</i>
    <i type="int" name="NELMIN">     6</i>
    <i name="ENINI">    600.00000000</i>
    <separator name="electronic convergence detail" >
     <i type="logical" name="LDIAG"> T  </i>
     <i type="logical" name="LSUBROT"> F  </i>
     <i name="WEIMIN">      0.00000000</i>
     <i name="EBREAK">      0.00000000</i>
     <i name="DEPER">      0.30000000</i>
     <i type="int" name="NRMM">     4</i>
     <i name="TIME">      0.40000000</i>
    </separator>
   </separator>
   <separator name="electronic mixer" >
    <i name="AMIX">      0.40000000</i>
    <i name="BMIX">      1.00000000</i>
    <i name="AMIN">      0.10000000</i>
    <i name="AMIX_MAG">      1.60000000</i>
    <i name="BMIX_MAG">      1.00000000</i>
    <separator name="electronic mixer details" >
     <i type="int" name="IMIX">     4</i>
     <i type="logical" name="MIXFIRST"> F  </i>
     <i type="int" name="MAXMIX">   -45</i>
     <i name="WC">    100.00000000</i>
     <i type="int" name="INIMIX">     1</i>
     <i type="int" name="MIXPRE">     1</i>
     <i type="int" name="MREMOVE">     5</i>
    </separator>
   </separator>
   <separator name="electronic dipolcorrection" >
    <i type="logical" name="LDIPOL"> F  </i>
    <i type="logical" name="LMONO"> F  </i>
    <i type="int" name="IDIPOL">     0</i>
    <i name="EPSILON">      1.00000000</i>
    <v name="DIPOL">   -100.00000000   -100.00000000   -100.00000000</v>
    <i name="EFIELD">      0.00000000</i>
   </separator>
  </separator>
  <separator name="grids" >
   <i type="int" name="NGX">    50</i>
   <i type="int" name="NGY">    50</i>
   <i type="int" name="NGZ">    50</i>
   <i type="int" name="NGXF">   100</i>
   <i type="int" name="NGYF">   100</i>
   <i type="int" name="NGZF">   100</i>
   <i type="logical" name="ADDGRID"> T  </i>
  </separator>
  <separator name="ionic" >
   <i type="int" name="NSW">     0</i>
   <i type="int" name="IBRION">    -1</i>
   <i type="int" name="MDALGO">     0</i>
   <i type="int" name="ISIF">    -1</i>
   <i name="PSTRESS">      0.00000000</i>
   <i name="EDIFFG">      0.00000001</i>
   <i type="int" name="NFREE">     0</i>
   <i name="POTIM">      0.50000000</i>
   <i name="SMASS">     -3.00000000</i>
   <i name="SCALEE">      1.00000000</i>
  </separator>
  <separator name="ionic md" >
   <i name="TEBEG">      0.00010000</i>
   <i name="TEEND">      0.00010000</i>
   <i type="int" name="NBLOCK">     1</i>
   <i type="int" name="KBLOCK">     1</i>
   <i type="int" name="NPACO">   256</i>
   <i name="APACO">     16.00000000</i>
  </separator>
  <separator name="symmetry" >
   <i type="int" name="ISYM">     2</i>
   <i name="SYMPREC">      0.00001000</i>
  </separator>
  <separator name="dos" >
   <i type="int" name="LORBIT">     0</i>
   <v name="RWIGS">     -1.00000000     -1.00000000     -1.00000000</v>
   <i type="int" name="NEDOS">   301</i>
   <i name="EMIN">     10.00000000</i>
   <i name="EMAX">    -10.00000000</i>
   <i name="EFERMI">      0.00000000</i>
  </separator>
  <separator name="writing" >
   <i type="int" name="NWRITE">     2</i>
   <i type="logical" name="LWAVE"> T  </i>
   <i type="logical" name="LDOWNSAMPLE"> F  </i>
   <i type="logical" name="LCHARG"> T  </i>
   <i type="logical" name="LPARD"> F  </i>
   <i type="logical" name="LVTOT"> F  </i>
   <i type="logical" name="LVHAR"> F  </i>
   <i type="logical" name="LELF"> F  </i>
   <i type="logical" name="LOPTICS"> F  </i>
   <v name="STM">      0.00000000      0.00000000      0.00000000      0.00000000      0.00000000      0.00000000      0.00000000</v>
  </separator>
  <separator name="performance" >
   <i type="int" name="NPAR">     6</i>
   <i type="int" name="NSIM">     4</i>
   <i type="int" name="NBLK">    -1</i>
   <i type="logical" name="LPLANE"> T  </i>
   <i type="logical" name="LSCALAPACK"> T  </i>
   <i type="logical" name="LSCAAWARE"> F  </i>
   <i type="logical" name="LSCALU"> F  </i>
   <i type="logical" name="LASYNC"> F  </i>
   <i type="logical" name="LORBITALREAL"> F  </i>
  </separator>
  <separator name="miscellaneous" >
   <i type="int" name="IDIOT">     3</i>
   <i type="int" name="PHON_NSTRUCT">    -1</i>
   <i type="logical" name="LMUSIC"> F  </i>
   <v name="POMASS">     10.81100000     95.94000000     28.08500000</v>
   <v name="DARWINR">      0.00000000      0.00000000      0.00000000</v>
   <v name="DARWINV">      1.00000000      1.00000000      1.00000000</v>
   <i type="logical" name="LCORR"> T  </i>
  </separator>
  <i type="logical" name="GGA_COMPAT"> T  </i>
  <i type="logical" name="LBERRY"> F  </i>
  <i type="int" name="ICORELEVEL">     0</i>
  <i type="logical" name="LDAU"> F  </i>
  <i type="int" name="I_CONSTRAINED_M">     0</i>
  <separator name="electronic exchange-correlation" >
   <i type="string" name="GGA">--</i>
   <i type="int" name="VOSKOWN">     0</i>
   <i type="logical" name="LHFCALC"> F  </i>
   <i type="string" name="PRECFOCK"></i>
   <i type="logical" name="LSYMGRAD"> F  </i>
   <i type="logical" name="LHFONE"> F  </i>
   <i type="logical" name="LRHFCALC"> F  </i>
   <i type="logical" name="LTHOMAS"> F  </i>
   <i type="logical" name="LMODELHF"> F  </i>
   <i type="logical" name="LFOCKACE"> F  </i>
   <i name="ENCUT4O">     -1.00000000</i>
   <i type="int" name="EXXOEP">     0</i>
   <i type="int" name="FOURORBIT">     0</i>
   <i name="AEXX">      0.00000000</i>
   <i name="HFALPHA">      0.00000000</i>
   <i name="MCALPHA">      0.00000000</i>
   <i name="ALDAX">      1.00000000</i>
   <i name="AGGAX">      1.00000000</i>
   <i name="ALDAC">      1.00000000</i>
   <i name="AGGAC">      1.00000000</i>
   <i type="int" name="NKREDX">     1</i>
   <i type="int" name="NKREDY">     1</i>
   <i type="int" name="NKREDZ">     1</i>
   <i type="logical" name="SHIFTRED"> F  </i>
   <i type="logical" name="ODDONLY"> F  </i>
   <i type="logical" name="EVENONLY"> F  </i>
   <i type="int" name="LMAXFOCK">     0</i>
   <i type="int" name="NMAXFOCKAE">     0</i>
   <i type="logical" name="LFOCKAEDFT"> F  </i>
   <i name="HFSCREEN">      0.00000000</i>
   <i name="HFSCREENC">      0.00000000</i>
   <i type="int" name="NBANDSGWLOW">     0</i>
  </separator>
  <separator name="vdW DFT" >
   <i type="logical" name="LUSE_VDW"> F  </i>
   <i name="Zab_VDW">     -0.84910000</i>
   <i name="PARAM1">      0.12340000</i>
   <i name="PARAM2">      1.00000000</i>
   <i name="PARAM3">      0.00000000</i>
  </separator>
  <separator name="model GW" >
   <i type="int" name="MODEL_GW">     0</i>
   <i name="MODEL_EPS0">      6.22286666</i>
   <i name="MODEL_ALPHA">      1.00000000</i>
  </separator>
  <separator name="linear response parameters" >
   <i type="logical" name="LEPSILON"> F  </i>
   <i type="logical" name="LRPA"> F  </i>
   <i type="logical" name="LNABLA"> F  </i>
   <i type="logical" name="LVEL"> F  </i>
   <i type="int" name="KINTER">     0</i>
   <i name="CSHIFT">      0.10000000</i>
   <i name="OMEGAMAX">     -1.00000000</i>
   <i name="DEG_THRESHOLD">      0.00200000</i>
   <i name="RTIME">     -0.10000000</i>
   <i name="WPLASMAI">      0.00000000</i>
   <v name="DFIELD">      0.00000000      0.00000000      0.00000000</v>
   <v name="WPLASMA">      0.00000000      0.00000000      0.00000000      0.00000000      0.00000000      0.00000000      0.00000000      0.00000000      0.00000000</v>
  </separator>
  <separator name="orbital magnetization" >
   <i type="logical" name="NUCIND"> F  </i>
   <v name="MAGPOS">      0.00000000      0.00000000      0.00000000</v>
   <i type="logical" name="LNICSALL"> T  </i>
   <i type="logical" name="ORBITALMAG"> F  </i>
   <i type="logical" name="LMAGBLOCH"> F  </i>
   <i type="logical" name="LCHIMAG"> F  </i>
   <i type="logical" name="LGAUGE"> T  </i>
   <i type="int" name="MAGATOM">     0</i>
   <v name="MAGDIPOL">      0.00000000      0.00000000      0.00000000</v>
   <v name="AVECCONST">      0.00000000      0.00000000      0.00000000</v>
  </separator>
  <separator name="response functions" >
   <i type="logical" name="LFINITE_TEMPERATURE"> F  </i>
   <i type="logical" name="LADDER"> F  </i>
   <i type="logical" name="LRPAFORCE"> F  </i>
   <i type="logical" name="LFXC"> F  </i>
   <i type="logical" name="LHARTREE"> T  </i>
   <i type="int" name="IBSE">     0</i>
   <v type="int" name="KPOINT">    -1     0     0     0</v>
   <i type="logical" name="LTCTC"> F  </i>
   <i type="logical" name="LTCTE"> F  </i>
   <i type="logical" name="LTETE"> F  </i>
   <i type="logical" name="LTRIPLET"> F  </i>
   <i type="logical" name="LFXCEPS"> F  </i>
   <i type="logical" name="LFXHEG"> F  </i>
   <i type="int" name="NATURALO">     2</i>
   <i type="logical" name="LHOLEGF"> F  </i>
   <i type="logical" name="L2ORDER"> F  </i>
   <i type="logical" name="LDMP1"> F  </i>
   <i type="logical" name="LMP2LT"> F  </i>
   <i type="logical" name="LSMP2LT"> F  </i>
   <i type="logical" name="LGWLF"> F  </i>
   <i name="ENCUTGW">     -2.00000000</i>
   <i name="ENCUTGWSOFT">     -2.00000000</i>
   <i name="ENCUTLF">     -1.00000000</i>
   <i type="logical" name="LESF_SPLINES"> F  </i>
   <i type="int" name="LMAXMP2">    -1</i>
   <i name="SCISSOR">      0.00000000</i>
   <i type="int" name="NOMEGA">     0</i>
   <i type="int" name="NOMEGAR">     0</i>
   <i type="int" name="NBANDSGW">    -1</i>
   <i type="int" name="NBANDSO">    -1</i>
   <i type="int" name="NBANDSV">    -1</i>
   <i type="int" name="NELM">   100</i>
   <i type="int" name="NELMHF">     1</i>
   <i type="int" name="DIM">     3</i>
   <i type="int" name="IESPILON">     4</i>
   <i type="int" name="ANTIRES">     0</i>
   <i name="OMEGAMAX">    -30.00000000</i>
   <i name="OMEGAMIN">    -30.00000000</i>
   <i name="OMEGATL">   -200.00000000</i>
   <i type="int" name="OMEGAGRID">     0</i>
   <i name="CSHIFT">     -0.10000000</i>
   <i type="logical" name="LSELFENERGY"> F  </i>
   <i type="logical" name="LSPECTRAL"> F  </i>
   <i type="logical" name="LSPECTRALGW"> F  </i>
   <i type="logical" name="LSINGLES"> F  </i>
   <i type="logical" name="LFERMIGW"> F  </i>
   <i type="logical" name="ODDONLYGW"> F  </i>
   <i type="logical" name="EVENONLYGW"> F  </i>
   <i type="int" name="NKREDLFX">     1</i>
   <i type="int" name="NKREDLFY">     1</i>
   <i type="int" name="NKREDLFZ">     1</i>
   <i type="int" name="MAXMEM">  2800</i>
   <i type="int" name="TELESCOPE">     0</i>
   <i type="int" name="NTAUPAR">    -1</i>
   <i type="int" name="NOMEGAPAR">    -1</i>
   <i name="DAMP_NEWTON">      0.80000001</i>
   <i name="LAMBDA">      1.00000000</i>
  </separator>
  <separator name="External order field" >
   <i name="OFIELD_KAPPA">      0.00000000</i>
   <v name="OFIELD_K">      0.00000000      0.00000000      0.00000000</v>
   <i name="OFIELD_Q6_NEAR">      0.00000000</i>
   <i name="OFIELD_Q6_FAR">      0.00000000</i>
   <i name="OFIELD_A">      0.00000000</i>
  </separator>
 </parameters>
 <atominfo>
  <atoms>      16 </atoms>
  <types>       3 </types>
  <array name="atoms" >
   <dimension dim="1">ion</dimension>
   <field type="string">element</field>
   <field type="int">atomtype</field>
   <set>
    <rc><c>B </c><c>   1</c></rc>
    <rc><c>B </c><c>   1</c></rc>
    <rc><c>B </c><c>   1</c></rc>
    <rc><c>B </c><c>   1</c></rc>
    <rc><c>Mo</c><c>   2</c></rc>
    <rc><c>Mo</c><c>   2</c></rc>
    <rc><c>Mo</c><c>   2</c></rc>
    <rc><c>Mo</c><c>   2</c></rc>
    <rc><c>Mo</c><c>   2</c></rc>
    <rc><c>Mo</c><c>   2</c></rc>
    <rc><c>Mo</c><c>   2</c></rc>
    <rc><c>Mo</c><c>   2</c></rc>
    <rc><c>Mo</c><c>   2</c></rc>
    <rc><c>Mo</c><c>   2</c></rc>
    <rc><c>Si</c><c>   3</c></rc>
    <rc><c>Si</c><c>   3</c></rc>
   </set>
  </array>
  <array name="atomtypes" >
   <dimension dim="1">type</dimension>
   <field type="int">atomspertype</field>
   <field type="string">element</field>
   <field>mass</field>
   <field>valence</field>
   <field type="string">pseudopotential</field>
   <set>
    <rc><c>   4</c><c>B </c><c>     10.81100000</c><c>      3.00000000</c><c>  PAW_PBE B 06Sep2000                   </c></rc>
    <rc><c>  10</c><c>Mo</c><c>     95.94000000</c><c>     14.00000000</c><c>  PAW_PBE Mo_sv 02Feb2006               </c></rc>
    <rc><c>   2</c><c>Si</c><c>     28.08500000</c><c>      4.00000000</c><c>  PAW_PBE Si 05Jan2001                  </c></rc>
   </set>
  </array>
 </atominfo>
 <structure name="initialpos" >
  <crystal>
   <varray name="basis" >
    <v>       5.34574788       0.00000000      -3.06823304 </v>
    <v>      -1.79245433       5.03628116      -3.06823304 </v>
    <v>       0.00000000       0.00000000       6.16369000 </v>
   </varray>
   <i name="volume">    165.94311089 </i>
   <varray name="rec_basis" >
    <v>       0.18706456       0.06657783       0.00000000 </v>
    <v>       0.00000000       0.19855921       0.00000000 </v>
    <v>       0.09311917       0.13198299       0.16224048 </v>
   </varray>
  </crystal>
  <varray name="positions" >
   <v>       0.18219000       0.68219000       0.86438000 </v>
   <v>       0.81781000       0.31781000       0.13562000 </v>
   <v>       0.68219000       0.81781000       0.50000000 </v>
   <v>       0.31781000       0.18219000       0.50000000 </v>
   <v>       0.25000000       0.25000000       0.00000000 </v>
   <v>       0.15884000       0.65884000       0.32878000 </v>
   <v>       0.75000000       0.75000000       0.00000000 </v>
   <v>       0.84116000       0.34116000       0.67122000 </v>
   <v>       0.65884000       0.33007000       0.50000000 </v>
   <v>       0.34116000       0.66993000       0.50000000 </v>
   <v>       0.33007000       0.83007000       0.67122000 </v>
   <v>       0.66993000       0.16993000       0.32878000 </v>
   <v>       0.83007000       0.15884000       0.50000000 </v>
   <v>       0.16993000       0.84116000       0.50000000 </v>
   <v>       0.50000000       0.50000000       0.00000000 </v>
   <v>       0.00000000       0.00000000       0.00000000 </v>
  </varray>
 </structure>
 <calculation>
  <scstep>
   <time name="total">   35.16   35.49</time>
   <energy>
    <i name="alphaZ">   1373.85941844 </i>
    <i name="ewald">  -6426.30360445 </i>
    <i name="hartreedc"> -10195.70153345 </i>
    <i name="XCdc">    895.44982574 </i>
    <i name="pawpsdc">  15195.10980530 </i>
    <i name="pawaedc"> -15141.88575711 </i>
    <i name="eentropy">     -0.00048749 </i>
    <i name="bandstr">  -1066.74212200 </i>
    <i name="atom">  19113.63672979 </i>
    <i name="e_fr_energy">   3747.42227477 </i>
    <i name="e_wo_entrp">   3747.42276226 </i>
    <i name="e_0_energy">   3747.42251852 </i>
   </energy>
  </scstep>
  <scstep>
   <time name="total">   33.00   33.31</time>
   <energy>
    <i name="e_fr_energy">   1248.71818975 </i>
    <i name="e_wo_entrp">   1248.71940567 </i>
    <i name="e_0_energy">   1248.71879771 </i>
   </energy>
  </scstep>
  <scstep>
   <time name="total">   36.25   36.59</time>
   <energy>
    <i name="e_fr_energy">   1073.81422252 </i>
    <i name="e_wo_entrp">   1073.81628748 </i>
    <i name="e_0_energy">   1073.81525500 </i>
   </energy>
  </scstep>
  <scstep>
   <time name="total">   34.91   35.25</time>
   <energy>
    <i name="e_fr_energy">   1067.97760857 </i>
    <i name="e_wo_entrp">   1067.97966675 </i>
    <i name="e_0_energy">   1067.97863766 </i>
   </energy>
  </scstep>
  <scstep>
   <time name="total">   38.22   38.58</time>
   <energy>
    <i name="e_fr_energy">   1067.79855214 </i>
    <i name="e_wo_entrp">   1067.80056638 </i>
    <i name="e_0_energy">   1067.79955926 </i>
   </energy>
  </scstep>
  <scstep>
   <time name="total">   36.80   37.13</time>
   <energy>
    <i name="e_fr_energy">   1802.76997493 </i>
    <i name="e_wo_entrp">   1802.77201403 </i>
    <i name="e_0_energy">   1802.77099448 </i>
   </energy>
  </scstep>
  <scstep>
   <time name="total">   37.47   37.82</time>
   <energy>
    <i name="e_fr_energy">   1319.52101526 </i>
    <i name="e_wo_entrp">   1319.52314838 </i>
    <i name="e_0_energy">   1319.52208182 </i>
   </energy>
  </scstep>
  <scstep>
   <time name="total">   37.15   37.49</time>
   <energy>
    <i name="e_fr_energy">   1284.20546002 </i>
    <i name="e_wo_entrp">   1284.20659260 </i>
    <i name="e_0_energy">   1284.20602631 </i>
   </energy>
  </scstep>
  <scstep>
   <time name="total">   37.17   37.52</time>
   <energy>
    <i name="e_fr_energy">   1271.76048911 </i>
    <i name="e_wo_entrp">   1271.76212956 </i>
    <i name="e_0_energy">   1271.76130934 </i>
   </energy>
  </scstep>
  <scstep>
   <time name="total">   37.10   37.44</time>
   <energy>
    <i name="e_fr_energy">   1267.40454599 </i>
    <i name="e_wo_entrp">   1267.40586208 </i>
    <i name="e_0_energy">   1267.40520403 </i>
   </energy>
  </scstep>
  <scstep>
   <time name="total">   37.28   37.62</time>
   <energy>
    <i name="e_fr_energy">   1264.60941852 </i>
    <i name="e_wo_entrp">   1264.61115482 </i>
    <i name="e_0_energy">   1264.61028667 </i>
   </energy>
  </scstep>
  <scstep>
   <time name="total">   37.10   37.44</time>
   <energy>
    <i name="e_fr_energy">   1263.45814867 </i>
    <i name="e_wo_entrp">   1263.45979213 </i>
    <i name="e_0_energy">   1263.45897040 </i>
   </energy>
  </scstep>
  <scstep>
   <time name="total">   37.13   37.47</time>
   <energy>
    <i name="e_fr_energy">   1262.88309515 </i>
    <i name="e_wo_entrp">   1262.88511624 </i>
    <i name="e_0_energy">   1262.88410569 </i>
   </energy>
  </scstep>
  <scstep>
   <time name="total">   36.91   37.25</time>
   <energy>
    <i name="e_fr_energy">   1262.51421709 </i>
    <i name="e_wo_entrp">   1262.51579801 </i>
    <i name="e_0_energy">   1262.51500755 </i>
   </energy>
  </scstep>
  <scstep>
   <time name="total">   37.75   38.09</time>
   <energy>
    <i name="e_fr_energy">   1262.33629507 </i>
    <i name="e_wo_entrp">   1262.33745306 </i>
    <i name="e_0_energy">   1262.33687407 </i>
   </energy>
  </scstep>
  <scstep>
   <time name="total">   37.17   37.50</time>
   <energy>
    <i name="e_fr_energy">   1262.24283839 </i>
    <i name="e_wo_entrp">   1262.24414021 </i>
    <i name="e_0_energy">   1262.24348930 </i>
   </energy>
  </scstep>
  <scstep>
   <time name="total">   37.48   37.82</time>
   <energy>
    <i name="e_fr_energy">   1262.19305303 </i>
    <i name="e_wo_entrp">   1262.19442155 </i>
    <i name="e_0_energy">   1262.19373729 </i>
   </energy>
  </scstep>
  <scstep>
   <time name="total">   37.12   37.47</time>
   <energy>
    <i name="e_fr_energy">   1262.17400384 </i>
    <i name="e_wo_entrp">   1262.17537284 </i>
    <i name="e_0_energy">   1262.17468834 </i>
   </energy>
  </scstep>
  <scstep>
   <time name="total">   37.61   37.96</time>
   <energy>
    <i name="e_fr_energy">   1262.16354821 </i>
    <i name="e_wo_entrp">   1262.16492621 </i>
    <i name="e_0_energy">   1262.16423721 </i>
   </energy>
  </scstep>
  <scstep>
   <time name="total">   37.47   37.81</time>
   <energy>
    <i name="e_fr_energy">   1262.15858466 </i>
    <i name="e_wo_entrp">   1262.15998336 </i>
    <i name="e_0_energy">   1262.15928401 </i>
   </energy>
  </scstep>
  <scstep>
   <time name="total">   37.29   37.64</time>
   <energy>
    <i name="e_fr_energy">   1262.15563087 </i>
    <i name="e_wo_entrp">   1262.15704943 </i>
    <i name="e_0_energy">   1262.15634015 </i>
   </energy>
  </scstep>
  <scstep>
   <time name="total">   37.69   38.03</time>
   <energy>
    <i name="e_fr_energy">   1262.15402265 </i>
    <i name="e_wo_entrp">   1262.15545048 </i>
    <i name="e_0_energy">   1262.15473657 </i>
   </energy>
  </scstep>
  <scstep>
   <time name="total">   37.15   37.48</time>
   <energy>
    <i name="e_fr_energy">   1262.15319281 </i>
    <i name="e_wo_entrp">   1262.15462008 </i>
    <i name="e_0_energy">   1262.15390644 </i>
   </energy>
  </scstep>
  <scstep>
   <time name="total">   37.64   37.98</time>
   <energy>
    <i name="e_fr_energy">   1262.15274411 </i>
    <i name="e_wo_entrp">   1262.15416722 </i>
    <i name="e_0_energy">   1262.15345566 </i>
   </energy>
  </scstep>
  <scstep>
   <time name="total">   37.70   38.04</time>
   <energy>
    <i name="e_fr_energy">   1262.15250457 </i>
    <i name="e_wo_entrp">   1262.15392424 </i>
    <i name="e_0_energy">   1262.15321440 </i>
   </energy>
  </scstep>
  <scstep>
   <time name="total">   37.06   37.41</time>
   <energy>
    <i name="e_fr_energy">   1262.15237456 </i>
    <i name="e_wo_entrp">   1262.15379244 </i>
    <i name="e_0_energy">   1262.15308350 </i>
   </energy>
  </scstep>
  <scstep>
   <time name="total">   37.39   37.74</time>
   <energy>
    <i name="e_fr_energy">   1262.15229871 </i>
    <i name="e_wo_entrp">   1262.15371657 </i>
    <i name="e_0_energy">   1262.15300764 </i>
   </energy>
  </scstep>
  <scstep>
   <time name="total">   37.24   37.59</time>
   <energy>
    <i name="e_fr_energy">   1262.15225831 </i>
    <i name="e_wo_entrp">   1262.15367690 </i>
    <i name="e_0_energy">   1262.15296760 </i>
   </energy>
  </scstep>
  <scstep>
   <time name="total">   37.51   37.85</time>
   <energy>
    <i name="e_fr_energy">   1262.15223869 </i>
    <i name="e_wo_entrp">   1262.15365798 </i>
    <i name="e_0_energy">   1262.15294833 </i>
   </energy>
  </scstep>
  <scstep>
   <time name="total">   37.23   37.58</time>
   <energy>
    <i name="e_fr_energy">   1262.15222855 </i>
    <i name="e_wo_entrp">   1262.15364850 </i>
    <i name="e_0_energy">   1262.15293853 </i>
   </energy>
  </scstep>
  <scstep>
   <time name="total">   37.79   38.13</time>
   <energy>
    <i name="e_fr_energy">   1262.15222287 </i>
    <i name="e_wo_entrp">   1262.15364344 </i>
    <i name="e_0_energy">   1262.15293315 </i>
   </energy>
  </scstep>
  <scstep>
   <time name="total">   37.56   37.90</time>
   <energy>
    <i name="e_fr_energy">   1262.15221926 </i>
    <i name="e_wo_entrp">   1262.15364011 </i>
    <i name="e_0_energy">   1262.15292968 </i>
   </energy>
  </scstep>
  <scstep>
   <time name="total">   37.34   37.68</time>
   <energy>
    <i name="e_fr_energy">   1262.15221741 </i>
    <i name="e_wo_entrp">   1262.15363830 </i>
    <i name="e_0_energy">   1262.15292785 </i>
   </energy>
  </scstep>
  <scstep>
   <time name="total">   37.19   37.53</time>
   <energy>
    <i name="e_fr_energy">   1262.15221642 </i>
    <i name="e_wo_entrp">   1262.15363722 </i>
    <i name="e_0_energy">   1262.15292682 </i>
   </energy>
  </scstep>
  <scstep>
   <time name="total">   37.20   37.54</time>
   <energy>
    <i name="e_fr_energy">   1262.15221576 </i>
    <i name="e_wo_entrp">   1262.15363631 </i>
    <i name="e_0_energy">   1262.15292603 </i>
   </energy>
  </scstep>
  <scstep>
   <time name="total">   37.21   37.55</time>
   <energy>
    <i name="e_fr_energy">   1262.15221531 </i>
    <i name="e_wo_entrp">   1262.15363563 </i>
    <i name="e_0_energy">   1262.15292547 </i>
   </energy>
  </scstep>
  <scstep>
   <time name="total">   37.62   37.97</time>
   <energy>
    <i name="e_fr_energy">   1262.15221508 </i>
    <i name="e_wo_entrp">   1262.15363538 </i>
    <i name="e_0_energy">   1262.15292523 </i>
   </energy>
  </scstep>
  <scstep>
   <time name="total">   38.63   38.98</time>
   <energy>
    <i name="e_fr_energy">   1262.15221489 </i>
    <i name="e_wo_entrp">   1262.15363517 </i>
    <i name="e_0_energy">   1262.15292503 </i>
   </energy>
  </scstep>
  <scstep>
   <time name="total">   38.37   38.72</time>
   <energy>
    <i name="e_fr_energy">   1262.15221479 </i>
    <i name="e_wo_entrp">   1262.15363508 </i>
    <i name="e_0_energy">   1262.15292493 </i>
   </energy>
  </scstep>
  <scstep>
   <time name="total">   38.70   39.05</time>
   <energy>
    <i name="e_fr_energy">   1262.15221474 </i>
    <i name="e_wo_entrp">   1262.15363503 </i>
    <i name="e_0_energy">   1262.15292489 </i>
   </energy>
  </scstep>
  <scstep>
   <time name="total">   38.28   38.62</time>
   <energy>
    <i name="e_fr_energy">   1262.15221473 </i>
    <i name="e_wo_entrp">   1262.15363503 </i>
    <i name="e_0_energy">   1262.15292488 </i>
   </energy>
  </scstep>
  <scstep>
   <time name="total">   37.53   37.88</time>
   <energy>
    <i name="e_fr_energy">   1262.15221473 </i>
    <i name="e_wo_entrp">   1262.15363503 </i>
    <i name="e_0_energy">   1262.15292488 </i>
   </energy>
  </scstep>
  <scstep>
   <time name="total">   38.62   38.98</time>
   <energy>
    <i name="e_fr_energy">   1262.15221474 </i>
    <i name="e_wo_entrp">   1262.15363503 </i>
    <i name="e_0_energy">   1262.15292488 </i>
   </energy>
  </scstep>
  <scstep>
   <time name="total">   38.98   39.33</time>
   <energy>
    <i name="e_fr_energy">   1262.15221474 </i>
    <i name="e_wo_entrp">   1262.15363504 </i>
    <i name="e_0_energy">   1262.15292489 </i>
   </energy>
  </scstep>
  <scstep>
   <time name="total">   39.20   39.55</time>
   <energy>
    <i name="e_fr_energy">   1262.15221474 </i>
    <i name="e_wo_entrp">   1262.15363504 </i>
    <i name="e_0_energy">   1262.15292489 </i>
   </energy>
  </scstep>
  <scstep>
   <time name="total">   37.71   38.04</time>
   <energy>
    <i name="e_fr_energy">   1262.15221474 </i>
    <i name="e_wo_entrp">   1262.15363504 </i>
    <i name="e_0_energy">   1262.15292489 </i>
   </energy>
  </scstep>
  <scstep>
   <time name="total">   37.43   37.78</time>
   <energy>
    <i name="e_fr_energy">   1262.15221473 </i>
    <i name="e_wo_entrp">   1262.15363504 </i>
    <i name="e_0_energy">   1262.15292489 </i>
   </energy>
  </scstep>
  <scstep>
   <time name="total">   39.04   39.39</time>
   <energy>
    <i name="e_fr_energy">   1262.15221473 </i>
    <i name="e_wo_entrp">   1262.15363504 </i>
    <i name="e_0_energy">   1262.15292488 </i>
   </energy>
  </scstep>
  <scstep>
   <time name="total">   38.61   38.96</time>
   <energy>
    <i name="e_fr_energy">   1262.15221473 </i>
    <i name="e_wo_entrp">   1262.15363504 </i>
    <i name="e_0_energy">   1262.15292489 </i>
   </energy>
  </scstep>
  <scstep>
   <time name="total">   37.79   38.14</time>
   <energy>
    <i name="e_fr_energy">   1262.15221473 </i>
    <i name="e_wo_entrp">   1262.15363505 </i>
    <i name="e_0_energy">   1262.15292489 </i>
   </energy>
  </scstep>
  <scstep>
   <time name="total">   66.85   67.43</time>
   <energy>
    <i name="e_fr_energy">   1262.15221473 </i>
    <i name="e_wo_entrp">   1262.15363505 </i>
    <i name="e_0_energy">   1262.15292489 </i>
   </energy>
  </scstep>
  <scstep>
   <time name="total">   39.15   39.50</time>
   <energy>
    <i name="e_fr_energy">   1262.15221473 </i>
    <i name="e_wo_entrp">   1262.15363505 </i>
    <i name="e_0_energy">   1262.15292489 </i>
   </energy>
  </scstep>
  <scstep>
   <time name="total">   38.70   39.04</time>
   <energy>
    <i name="e_fr_energy">   1262.15221472 </i>
    <i name="e_wo_entrp">   1262.15363505 </i>
    <i name="e_0_energy">   1262.15292489 </i>
   </energy>
  </scstep>
  <scstep>
   <time name="total">   38.60   38.97</time>
   <energy>
    <i name="e_fr_energy">   1262.15221473 </i>
    <i name="e_wo_entrp">   1262.15363505 </i>
    <i name="e_0_energy">   1262.15292489 </i>
   </energy>
  </scstep>
  <scstep>
   <time name="total">   46.28   46.69</time>
   <energy>
    <i name="alphaZ">   1373.85941844 </i>
    <i name="ewald">  -6426.30360445 </i>
    <i name="hartreedc"> -11255.62746220 </i>
    <i name="XCdc">    956.81812952 </i>
    <i name="pawpsdc"> 851857.57345212 </i>
    <i name="pawaedc">-851748.17162663 </i>
    <i name="eentropy">     -0.00142032 </i>
    <i name="bandstr">  -2609.63140154 </i>
    <i name="atom">  19113.63672979 </i>
    <i name="e_fr_energy">   1262.15221472 </i>
    <i name="e_wo_entrp">   1262.15363505 </i>
    <i name="e_0_energy">   1262.15292489 </i>
   </energy>
  </scstep>
  <structure>
   <crystal>
    <varray name="basis" >
     <v>       5.34574788       0.00000000      -3.06823304 </v>
     <v>      -1.79245433       5.03628116      -3.06823304 </v>
     <v>       0.00000000       0.00000000       6.16369000 </v>
    </varray>
    <i name="volume">    165.94311089 </i>
    <varray name="rec_basis" >
     <v>       0.18706456       0.06657783       0.00000000 </v>
     <v>       0.00000000       0.19855921       0.00000000 </v>
     <v>       0.09311917       0.13198299       0.16224048 </v>
    </varray>
   </crystal>
   <varray name="positions" >
    <v>       0.18219000       0.68219000       0.86438000 </v>
    <v>       0.81781000       0.31781000       0.13562000 </v>
    <v>       0.68219000       0.81781000       0.50000000 </v>
    <v>       0.31781000       0.18219000       0.50000000 </v>
    <v>       0.25000000       0.25000000       0.00000000 </v>
    <v>       0.15884000       0.65884000       0.32878000 </v>
    <v>       0.75000000       0.75000000       0.00000000 </v>
    <v>       0.84116000       0.34116000       0.67122000 </v>
    <v>       0.65884000       0.33007000       0.50000000 </v>
    <v>       0.34116000       0.66993000       0.50000000 </v>
    <v>       0.33007000       0.83007000       0.67122000 </v>
    <v>       0.66993000       0.16993000       0.32878000 </v>
    <v>       0.83007000       0.15884000       0.50000000 </v>
    <v>       0.16993000       0.84116000       0.50000000 </v>
    <v>       0.50000000       0.50000000       0.00000000 </v>
    <v>       0.00000000       0.00000000       0.00000000 </v>
   </varray>
  </structure>
  <varray name="forces" >
   <v>       0.00000000       0.00000000       0.00000000 </v>
   <v>       0.00000000       0.00000000       0.00000000 </v>
   <v>       0.00000000       0.00000000       0.00000000 </v>
   <v>       0.00000000       0.00000000       0.00000000 </v>
   <v>       0.00000000       0.00000000       0.00000000 </v>
   <v>       0.00000000       0.00000000       0.00000000 </v>
   <v>       0.00000000       0.00000000       0.00000000 </v>
   <v>       0.00000000       0.00000000       0.00000000 </v>
   <v>       0.00000000       0.00000000       0.00000000 </v>
   <v>       0.00000000       0.00000000       0.00000000 </v>
   <v>       0.00000000       0.00000000       0.00000000 </v>
   <v>       0.00000000       0.00000000       0.00000000 </v>
   <v>       0.00000000       0.00000000       0.00000000 </v>
   <v>       0.00000000       0.00000000       0.00000000 </v>
   <v>       0.00000000       0.00000000       0.00000000 </v>
   <v>       0.00000000       0.00000000       0.00000000 </v>
  </varray>
  <varray name="stress" >
   <v>       0.00000000       0.00000000       0.00000000 </v>
   <v>       0.00000000       0.00000000       0.00000000 </v>
   <v>       0.00000000       0.00000000       0.00000000 </v>
  </varray>
  <energy>
   <i name="e_fr_energy">   1262.15221472 </i>
   <i name="e_wo_entrp">   1262.15363505 </i>
   <i name="e_0_energy">   1262.15292489 </i>
  </energy>
  <time name="totalsc"> 2105.00 2124.33</time>
  <eigenvalues>
   <array>
    <dimension dim="1">band</dimension>
    <dimension dim="2">kpoint</dimension>
    <dimension dim="3">spin</dimension>
    <field>eigene</field>
    <field>occ</field>
    <set>
     <set comment="spin 1">
      <set comment="kpoint 1">
       <r> -111.4006    1.0000 </r>
       <r> -111.3990    1.0000 </r>
       <r>  -78.2786    1.0000 </r>
       <r>  -78.2780    1.0000 </r>
       <r>  -78.2745    1.0000 </r>
       <r>  -78.2740    1.0000 </r>
       <r>  -59.6425    1.0000 </r>
       <r>  -59.6404    1.0000 </r>
       <r>  -59.4323    1.0000 </r>
       <r>  -59.4319    1.0000 </r>
       <r>  -48.3509    1.0000 </r>
       <r>  -48.3221    1.0000 </r>
       <r>  -46.4062    1.0000 </r>
       <r>  -46.4032    1.0000 </r>
       <r>  -39.3973    1.0000 </r>
       <r>  -39.3253    1.0000 </r>
       <r>  -37.9655    1.0000 </r>
       <r>  -37.9625    1.0000 </r>
       <r>  -37.9603    1.0000 </r>
       <r>  -37.9572    1.0000 </r>
       <r>  -28.2040    1.0000 </r>
       <r>  -28.1994    1.0000 </r>
       <r>  -27.9365    1.0000 </r>
       <r>  -27.9319    1.0000 </r>
       <r>  -22.3662    1.0000 </r>
       <r>  -22.3363    1.0000 </r>
       <r>  -22.1400    1.0000 </r>
       <r>  -22.1388    1.0000 </r>
       <r>  -21.9646    1.0000 </r>
       <r>  -21.9637    1.0000 </r>
       <r>  -19.8695    1.0000 </r>
       <r>  -19.8678    1.0000 </r>
       <r>  -19.7609    1.0000 </r>
       <r>  -19.7590    1.0000 </r>
       <r>  -15.8809    1.0000 </r>
       <r>  -15.8210    1.0000 </r>
       <r>   -7.7175    1.0000 </r>
       <r>   -7.6760    1.0000 </r>
       <r>   -7.2496    1.0000 </r>
       <r>   -6.9719    1.0000 </r>
       <r>   -4.2283    1.0000 </r>
       <r>   -3.8282    1.0000 </r>
       <r>   -3.3891    1.0000 </r>
       <r>   -2.2796    1.0000 </r>
       <r>   -1.2286    1.0000 </r>
       <r>   -0.7640    1.0000 </r>
       <r>   -0.2980    1.0000 </r>
       <r>    0.4792    1.0000 </r>
       <r>    2.2396    1.0000 </r>
       <r>    3.6152    1.0000 </r>
       <r>    3.7677    1.0000 </r>
       <r>    3.7720    1.0000 </r>
       <r>    4.4336    1.0000 </r>
       <r>    5.2676    1.0000 </r>
       <r>    6.4109    1.0000 </r>
       <r>    6.4135    1.0000 </r>
       <r>    6.8445    1.0000 </r>
       <r>    6.9001    1.0000 </r>
       <r>    6.9016    1.0000 </r>
       <r>    9.1034    1.0000 </r>
       <r>    9.1343    1.0000 </r>
       <r>    9.3307    1.0000 </r>
       <r>    9.3320    1.0000 </r>
       <r>    9.3985    1.0000 </r>
       <r>    9.4011    1.0000 </r>
       <r>   10.0167    1.0000 </r>
       <r>   10.0486    1.0000 </r>
       <r>   10.0499    1.0000 </r>
       <r>   10.8521    1.0000 </r>
       <r>   10.8532    1.0000 </r>
       <r>   10.9277    1.0000 </r>
       <r>   10.9300    1.0000 </r>
       <r>   10.9519    1.0000 </r>
       <r>   12.2276    1.0000 </r>
       <r>   13.2986    1.0000 </r>
       <r>   13.3007    1.0000 </r>
       <r>   13.6566    1.0000 </r>
       <r>   13.8877    1.0000 </r>
       <r>   14.3745    0.0000 </r>
       <r>   14.5323    0.0000 </r>
       <r>   14.5365    0.0000 </r>
       <r>   14.5373    0.0000 </r>
       <r>   14.9965    0.0000 </r>
       <r>   14.9971    0.0000 </r>
       <r>   15.1302    0.0000 </r>
       <r>   16.1932    0.0000 </r>
       <r>   16.1942    0.0000 </r>
       <r>   16.2972    0.0000 </r>
       <r>   16.7197    0.0000 </r>
       <r>   17.0003    0.0000 </r>
       <r>   18.2117    0.0000 </r>
       <r>   18.4244    0.0000 </r>
       <r>   19.1056    0.0000 </r>
       <r>   19.5221    0.0000 </r>
       <r>   20.1239    0.0000 </r>
       <r>   21.3974    0.0000 </r>
      </set>
      <set comment="kpoint 2">
       <r> -111.3999    1.0000 </r>
       <r> -111.3987    1.0000 </r>
       <r>  -78.2785    1.0000 </r>
       <r>  -78.2780    1.0000 </r>
       <r>  -78.2745    1.0000 </r>
       <r>  -78.2740    1.0000 </r>
       <r>  -59.6424    1.0000 </r>
       <r>  -59.6405    1.0000 </r>
       <r>  -59.4321    1.0000 </r>
       <r>  -59.4319    1.0000 </r>
       <r>  -48.3486    1.0000 </r>
       <r>  -48.3227    1.0000 </r>
       <r>  -46.4076    1.0000 </r>
       <r>  -46.4050    1.0000 </r>
       <r>  -39.3938    1.0000 </r>
       <r>  -39.3290    1.0000 </r>
       <r>  -37.9652    1.0000 </r>
       <r>  -37.9622    1.0000 </r>
       <r>  -37.9605    1.0000 </r>
       <r>  -37.9575    1.0000 </r>
       <r>  -28.1892    1.0000 </r>
       <r>  -28.1827    1.0000 </r>
       <r>  -27.9482    1.0000 </r>
       <r>  -27.9414    1.0000 </r>
       <r>  -22.3644    1.0000 </r>
       <r>  -22.3376    1.0000 </r>
       <r>  -22.1310    1.0000 </r>
       <r>  -22.1081    1.0000 </r>
       <r>  -21.9731    1.0000 </r>
       <r>  -21.9455    1.0000 </r>
       <r>  -19.9071    1.0000 </r>
       <r>  -19.8644    1.0000 </r>
       <r>  -19.8050    1.0000 </r>
       <r>  -19.7665    1.0000 </r>
       <r>  -15.8780    1.0000 </r>
       <r>  -15.8240    1.0000 </r>
       <r>   -7.7164    1.0000 </r>
       <r>   -7.6792    1.0000 </r>
       <r>   -7.2307    1.0000 </r>
       <r>   -6.9826    1.0000 </r>
       <r>   -4.2012    1.0000 </r>
       <r>   -3.7535    1.0000 </r>
       <r>   -3.4429    1.0000 </r>
       <r>   -2.3581    1.0000 </r>
       <r>   -1.2010    1.0000 </r>
       <r>   -0.7818    1.0000 </r>
       <r>   -0.2424    1.0000 </r>
       <r>    0.4588    1.0000 </r>
       <r>    2.2858    1.0000 </r>
       <r>    3.6101    1.0000 </r>
       <r>    3.7815    1.0000 </r>
       <r>    3.8831    1.0000 </r>
       <r>    4.4950    1.0000 </r>
       <r>    5.3449    1.0000 </r>
       <r>    6.3495    1.0000 </r>
       <r>    6.3525    1.0000 </r>
       <r>    6.4491    1.0000 </r>
       <r>    6.9571    1.0000 </r>
       <r>    7.4334    1.0000 </r>
       <r>    8.6274    1.0000 </r>
       <r>    8.9317    1.0000 </r>
       <r>    9.2576    1.0000 </r>
       <r>    9.3604    1.0000 </r>
       <r>    9.4619    1.0000 </r>
       <r>    9.6387    1.0000 </r>
       <r>    9.9493    1.0000 </r>
       <r>   10.0192    1.0000 </r>
       <r>   10.2066    1.0000 </r>
       <r>   10.6718    1.0000 </r>
       <r>   10.9453    1.0000 </r>
       <r>   11.0408    1.0000 </r>
       <r>   11.2021    1.0000 </r>
       <r>   11.2289    1.0000 </r>
       <r>   12.2557    1.0000 </r>
       <r>   13.1666    1.0000 </r>
       <r>   13.4041    1.0000 </r>
       <r>   13.5512    1.0000 </r>
       <r>   13.7010    1.0000 </r>
       <r>   14.1626    0.0000 </r>
       <r>   14.2958    0.0000 </r>
       <r>   14.4378    0.0000 </r>
       <r>   14.6527    0.0000 </r>
       <r>   14.7033    0.0000 </r>
       <r>   14.9503    0.0000 </r>
       <r>   15.0622    0.0000 </r>
       <r>   15.6956    0.0000 </r>
       <r>   16.0681    0.0000 </r>
       <r>   16.5330    0.0000 </r>
       <r>   16.9447    0.0000 </r>
       <r>   17.5292    0.0000 </r>
       <r>   17.8816    0.0000 </r>
       <r>   18.6687    0.0000 </r>
       <r>   19.1849    0.0000 </r>
       <r>   19.2326    0.0000 </r>
       <r>   20.2806    0.0000 </r>
       <r>   20.7262    0.0000 </r>
      </set>
      <set comment="kpoint 3">
       <r> -111.3992    1.0000 </r>
       <r> -111.3984    1.0000 </r>
       <r>  -78.2785    1.0000 </r>
       <r>  -78.2780    1.0000 </r>
       <r>  -78.2744    1.0000 </r>
       <r>  -78.2740    1.0000 </r>
       <r>  -59.6421    1.0000 </r>
       <r>  -59.6407    1.0000 </r>
       <r>  -59.4320    1.0000 </r>
       <r>  -59.4318    1.0000 </r>
       <r>  -48.3427    1.0000 </r>
       <r>  -48.3247    1.0000 </r>
       <r>  -46.4107    1.0000 </r>
       <r>  -46.4087    1.0000 </r>
       <r>  -39.3839    1.0000 </r>
       <r>  -39.3391    1.0000 </r>
       <r>  -37.9645    1.0000 </r>
       <r>  -37.9615    1.0000 </r>
       <r>  -37.9612    1.0000 </r>
       <r>  -37.9582    1.0000 </r>
       <r>  -28.1511    1.0000 </r>
       <r>  -28.1353    1.0000 </r>
       <r>  -27.9843    1.0000 </r>
       <r>  -27.9676    1.0000 </r>
       <r>  -22.3597    1.0000 </r>
       <r>  -22.3411    1.0000 </r>
       <r>  -22.1073    1.0000 </r>
       <r>  -22.0276    1.0000 </r>
       <r>  -21.9979    1.0000 </r>
       <r>  -21.9067    1.0000 </r>
       <r>  -19.9925    1.0000 </r>
       <r>  -19.9140    1.0000 </r>
       <r>  -19.8518    1.0000 </r>
       <r>  -19.7841    1.0000 </r>
       <r>  -15.8698    1.0000 </r>
       <r>  -15.8324    1.0000 </r>
       <r>   -7.7131    1.0000 </r>
       <r>   -7.6873    1.0000 </r>
       <r>   -7.1817    1.0000 </r>
       <r>   -7.0133    1.0000 </r>
       <r>   -4.1161    1.0000 </r>
       <r>   -3.5925    1.0000 </r>
       <r>   -3.5384    1.0000 </r>
       <r>   -2.5775    1.0000 </r>
       <r>   -1.1256    1.0000 </r>
       <r>   -0.8346    1.0000 </r>
       <r>   -0.0965    1.0000 </r>
       <r>    0.3886    1.0000 </r>
       <r>    2.4234    1.0000 </r>
       <r>    3.3393    1.0000 </r>
       <r>    4.0854    1.0000 </r>
       <r>    4.2039    1.0000 </r>
       <r>    4.6345    1.0000 </r>
       <r>    5.4357    1.0000 </r>
       <r>    6.0906    1.0000 </r>
       <r>    6.2035    1.0000 </r>
       <r>    6.3780    1.0000 </r>
       <r>    7.1001    1.0000 </r>
       <r>    7.9647    1.0000 </r>
       <r>    7.9930    1.0000 </r>
       <r>    8.5134    1.0000 </r>
       <r>    9.2687    1.0000 </r>
       <r>    9.2996    1.0000 </r>
       <r>    9.6419    1.0000 </r>
       <r>    9.7151    1.0000 </r>
       <r>   10.0164    1.0000 </r>
       <r>   10.0718    1.0000 </r>
       <r>   10.4465    1.0000 </r>
       <r>   10.4688    1.0000 </r>
       <r>   11.0994    1.0000 </r>
       <r>   11.2391    1.0000 </r>
       <r>   11.5910    1.0000 </r>
       <r>   11.8819    1.0000 </r>
       <r>   12.2911    1.0000 </r>
       <r>   12.3678    1.0000 </r>
       <r>   13.2762    1.0000 </r>
       <r>   13.3464    1.0000 </r>
       <r>   13.4872    1.0000 </r>
       <r>   13.6458    1.0000 </r>
       <r>   14.0372    0.0005 </r>
       <r>   14.2150    0.0000 </r>
       <r>   14.4650    0.0000 </r>
       <r>   14.6536    0.0000 </r>
       <r>   14.9763    0.0000 </r>
       <r>   15.3241    0.0000 </r>
       <r>   15.3963    0.0000 </r>
       <r>   15.7763    0.0000 </r>
       <r>   16.2037    0.0000 </r>
       <r>   16.9026    0.0000 </r>
       <r>   17.1657    0.0000 </r>
       <r>   17.9770    0.0000 </r>
       <r>   18.2020    0.0000 </r>
       <r>   18.7572    0.0000 </r>
       <r>   19.2837    0.0000 </r>
       <r>   19.5383    0.0000 </r>
       <r>   20.1846    0.0000 </r>
      </set>
      <set comment="kpoint 4">
       <r> -111.3989    1.0000 </r>
       <r> -111.3986    1.0000 </r>
       <r>  -78.2783    1.0000 </r>
       <r>  -78.2781    1.0000 </r>
       <r>  -78.2743    1.0000 </r>
       <r>  -78.2741    1.0000 </r>
       <r>  -59.6416    1.0000 </r>
       <r>  -59.6411    1.0000 </r>
       <r>  -59.4320    1.0000 </r>
       <r>  -59.4319    1.0000 </r>
       <r>  -48.3353    1.0000 </r>
       <r>  -48.3289    1.0000 </r>
       <r>  -46.4128    1.0000 </r>
       <r>  -46.4121    1.0000 </r>
       <r>  -39.3696    1.0000 </r>
       <r>  -39.3536    1.0000 </r>
       <r>  -37.9635    1.0000 </r>
       <r>  -37.9623    1.0000 </r>
       <r>  -37.9604    1.0000 </r>
       <r>  -37.9592    1.0000 </r>
       <r>  -28.0971    1.0000 </r>
       <r>  -28.0727    1.0000 </r>
       <r>  -28.0375    1.0000 </r>
       <r>  -28.0127    1.0000 </r>
       <r>  -22.3533    1.0000 </r>
       <r>  -22.3467    1.0000 </r>
       <r>  -22.0727    1.0000 </r>
       <r>  -22.0336    1.0000 </r>
       <r>  -21.9382    1.0000 </r>
       <r>  -21.8921    1.0000 </r>
       <r>  -20.0505    1.0000 </r>
       <r>  -20.0197    1.0000 </r>
       <r>  -19.8321    1.0000 </r>
       <r>  -19.8080    1.0000 </r>
       <r>  -15.8579    1.0000 </r>
       <r>  -15.8446    1.0000 </r>
       <r>   -7.7068    1.0000 </r>
       <r>   -7.6975    1.0000 </r>
       <r>   -7.1198    1.0000 </r>
       <r>   -7.0606    1.0000 </r>
       <r>   -3.9710    1.0000 </r>
       <r>   -3.7820    1.0000 </r>
       <r>   -3.2355    1.0000 </r>
       <r>   -2.8915    1.0000 </r>
       <r>   -1.0230    1.0000 </r>
       <r>   -0.9189    1.0000 </r>
       <r>    0.0887    1.0000 </r>
       <r>    0.2613    1.0000 </r>
       <r>    2.6573    1.0000 </r>
       <r>    2.9820    1.0000 </r>
       <r>    4.4607    1.0000 </r>
       <r>    4.6045    1.0000 </r>
       <r>    4.7638    1.0000 </r>
       <r>    5.2068    1.0000 </r>
       <r>    5.9385    1.0000 </r>
       <r>    6.0337    1.0000 </r>
       <r>    6.6689    1.0000 </r>
       <r>    7.0975    1.0000 </r>
       <r>    7.5666    1.0000 </r>
       <r>    7.8066    1.0000 </r>
       <r>    8.8454    1.0000 </r>
       <r>    9.0813    1.0000 </r>
       <r>    9.3890    1.0000 </r>
       <r>    9.6408    1.0000 </r>
       <r>    9.8472    1.0000 </r>
       <r>   10.1469    1.0000 </r>
       <r>   10.2790    1.0000 </r>
       <r>   10.3850    1.0000 </r>
       <r>   10.6560    1.0000 </r>
       <r>   11.1070    1.0000 </r>
       <r>   11.2332    1.0000 </r>
       <r>   11.3034    1.0000 </r>
       <r>   12.1257    1.0000 </r>
       <r>   12.2801    1.0000 </r>
       <r>   12.5496    1.0000 </r>
       <r>   12.9740    1.0000 </r>
       <r>   13.0102    1.0000 </r>
       <r>   13.2127    1.0000 </r>
       <r>   13.5927    1.0000 </r>
       <r>   14.0561    0.0000 </r>
       <r>   14.0937    0.0000 </r>
       <r>   14.1386    0.0000 </r>
       <r>   14.6411    0.0000 </r>
       <r>   14.9999    0.0000 </r>
       <r>   15.2999    0.0000 </r>
       <r>   15.4038    0.0000 </r>
       <r>   15.5500    0.0000 </r>
       <r>   15.7565    0.0000 </r>
       <r>   17.0971    0.0000 </r>
       <r>   17.1523    0.0000 </r>
       <r>   17.6401    0.0000 </r>
       <r>   17.9629    0.0000 </r>
       <r>   18.2325    0.0000 </r>
       <r>   18.3840    0.0000 </r>
       <r>   19.0413    0.0000 </r>
       <r>   20.2282    0.0000 </r>
      </set>
      <set comment="kpoint 5">
       <r> -111.3995    1.0000 </r>
       <r> -111.3986    1.0000 </r>
       <r>  -78.2785    1.0000 </r>
       <r>  -78.2779    1.0000 </r>
       <r>  -78.2744    1.0000 </r>
       <r>  -78.2740    1.0000 </r>
       <r>  -59.6423    1.0000 </r>
       <r>  -59.6406    1.0000 </r>
       <r>  -59.4320    1.0000 </r>
       <r>  -59.4319    1.0000 </r>
       <r>  -48.3463    1.0000 </r>
       <r>  -48.3232    1.0000 </r>
       <r>  -46.4091    1.0000 </r>
       <r>  -46.4066    1.0000 </r>
       <r>  -39.3906    1.0000 </r>
       <r>  -39.3322    1.0000 </r>
       <r>  -37.9654    1.0000 </r>
       <r>  -37.9614    1.0000 </r>
       <r>  -37.9604    1.0000 </r>
       <r>  -37.9582    1.0000 </r>
       <r>  -28.1951    1.0000 </r>
       <r>  -28.1479    1.0000 </r>
       <r>  -27.9735    1.0000 </r>
       <r>  -27.9344    1.0000 </r>
       <r>  -22.3599    1.0000 </r>
       <r>  -22.3416    1.0000 </r>
       <r>  -22.1011    1.0000 </r>
       <r>  -22.0993    1.0000 </r>
       <r>  -21.9571    1.0000 </r>
       <r>  -21.9505    1.0000 </r>
       <r>  -19.9062    1.0000 </r>
       <r>  -19.9003    1.0000 </r>
       <r>  -19.8155    1.0000 </r>
       <r>  -19.8068    1.0000 </r>
       <r>  -15.8761    1.0000 </r>
       <r>  -15.8260    1.0000 </r>
       <r>   -7.7139    1.0000 </r>
       <r>   -7.6833    1.0000 </r>
       <r>   -7.2123    1.0000 </r>
       <r>   -6.9999    1.0000 </r>
       <r>   -4.1860    1.0000 </r>
       <r>   -3.6641    1.0000 </r>
       <r>   -3.5069    1.0000 </r>
       <r>   -2.4124    1.0000 </r>
       <r>   -1.1757    1.0000 </r>
       <r>   -0.7971    1.0000 </r>
       <r>   -0.1408    1.0000 </r>
       <r>    0.4006    1.0000 </r>
       <r>    2.3983    1.0000 </r>
       <r>    3.4197    1.0000 </r>
       <r>    3.8953    1.0000 </r>
       <r>    4.0700    1.0000 </r>
       <r>    4.5628    1.0000 </r>
       <r>    5.3482    1.0000 </r>
       <r>    6.2085    1.0000 </r>
       <r>    6.2752    1.0000 </r>
       <r>    6.3124    1.0000 </r>
       <r>    7.1637    1.0000 </r>
       <r>    7.6518    1.0000 </r>
       <r>    8.2348    1.0000 </r>
       <r>    8.8284    1.0000 </r>
       <r>    9.0976    1.0000 </r>
       <r>    9.4931    1.0000 </r>
       <r>    9.5249    1.0000 </r>
       <r>    9.5770    1.0000 </r>
       <r>    9.9316    1.0000 </r>
       <r>   10.0433    1.0000 </r>
       <r>   10.3020    1.0000 </r>
       <r>   10.6114    1.0000 </r>
       <r>   10.9402    1.0000 </r>
       <r>   11.1103    1.0000 </r>
       <r>   11.5586    1.0000 </r>
       <r>   11.6453    1.0000 </r>
       <r>   12.2951    1.0000 </r>
       <r>   13.1441    1.0000 </r>
       <r>   13.2078    1.0000 </r>
       <r>   13.3594    1.0000 </r>
       <r>   13.4718    1.0000 </r>
       <r>   13.7271    1.0000 </r>
       <r>   14.0759    0.0000 </r>
       <r>   14.3366    0.0000 </r>
       <r>   14.6230    0.0000 </r>
       <r>   14.8755    0.0000 </r>
       <r>   14.9072    0.0000 </r>
       <r>   15.2203    0.0000 </r>
       <r>   15.6452    0.0000 </r>
       <r>   15.6675    0.0000 </r>
       <r>   16.8053    0.0000 </r>
       <r>   16.8254    0.0000 </r>
       <r>   17.3272    0.0000 </r>
       <r>   17.6494    0.0000 </r>
       <r>   18.2681    0.0000 </r>
       <r>   18.6865    0.0000 </r>
       <r>   19.3582    0.0000 </r>
       <r>   19.6728    0.0000 </r>
       <r>   20.6341    0.0000 </r>
      </set>
      <set comment="kpoint 6">
       <r> -111.3988    1.0000 </r>
       <r> -111.3986    1.0000 </r>
       <r>  -78.2785    1.0000 </r>
       <r>  -78.2779    1.0000 </r>
       <r>  -78.2742    1.0000 </r>
       <r>  -78.2741    1.0000 </r>
       <r>  -59.6420    1.0000 </r>
       <r>  -59.6408    1.0000 </r>
       <r>  -59.4319    1.0000 </r>
       <r>  -59.4319    1.0000 </r>
       <r>  -48.3406    1.0000 </r>
       <r>  -48.3250    1.0000 </r>
       <r>  -46.4121    1.0000 </r>
       <r>  -46.4104    1.0000 </r>
       <r>  -39.3817    1.0000 </r>
       <r>  -39.3413    1.0000 </r>
       <r>  -37.9650    1.0000 </r>
       <r>  -37.9607    1.0000 </r>
       <r>  -37.9603    1.0000 </r>
       <r>  -37.9593    1.0000 </r>
       <r>  -28.1735    1.0000 </r>
       <r>  -28.0910    1.0000 </r>
       <r>  -28.0188    1.0000 </r>
       <r>  -27.9439    1.0000 </r>
       <r>  -22.3532    1.0000 </r>
       <r>  -22.3472    1.0000 </r>
       <r>  -22.0783    1.0000 </r>
       <r>  -22.0215    1.0000 </r>
       <r>  -21.9773    1.0000 </r>
       <r>  -21.9124    1.0000 </r>
       <r>  -19.9904    1.0000 </r>
       <r>  -19.9197    1.0000 </r>
       <r>  -19.8914    1.0000 </r>
       <r>  -19.8274    1.0000 </r>
       <r>  -15.8693    1.0000 </r>
       <r>  -15.8331    1.0000 </r>
       <r>   -7.7100    1.0000 </r>
       <r>   -7.6922    1.0000 </r>
       <r>   -7.1682    1.0000 </r>
       <r>   -7.0338    1.0000 </r>
       <r>   -4.1279    1.0000 </r>
       <r>   -3.6669    1.0000 </r>
       <r>   -3.4328    1.0000 </r>
       <r>   -2.5741    1.0000 </r>
       <r>   -1.1067    1.0000 </r>
       <r>   -0.8432    1.0000 </r>
       <r>    0.0344    1.0000 </r>
       <r>    0.3101    1.0000 </r>
       <r>    2.5854    1.0000 </r>
       <r>    3.1055    1.0000 </r>
       <r>    4.1931    1.0000 </r>
       <r>    4.4072    1.0000 </r>
       <r>    4.7147    1.0000 </r>
       <r>    5.4620    1.0000 </r>
       <r>    5.9413    1.0000 </r>
       <r>    6.0727    1.0000 </r>
       <r>    6.3485    1.0000 </r>
       <r>    7.3214    1.0000 </r>
       <r>    7.5707    1.0000 </r>
       <r>    8.3068    1.0000 </r>
       <r>    8.5524    1.0000 </r>
       <r>    8.9770    1.0000 </r>
       <r>    9.3403    1.0000 </r>
       <r>    9.4546    1.0000 </r>
       <r>    9.7093    1.0000 </r>
       <r>   10.1358    1.0000 </r>
       <r>   10.1921    1.0000 </r>
       <r>   10.3749    1.0000 </r>
       <r>   10.7578    1.0000 </r>
       <r>   11.0320    1.0000 </r>
       <r>   11.1348    1.0000 </r>
       <r>   11.9079    1.0000 </r>
       <r>   12.0100    1.0000 </r>
       <r>   12.2638    1.0000 </r>
       <r>   12.4205    1.0000 </r>
       <r>   12.9019    1.0000 </r>
       <r>   13.1096    1.0000 </r>
       <r>   13.2750    1.0000 </r>
       <r>   13.4470    1.0000 </r>
       <r>   13.9799    0.7846 </r>
       <r>   14.1002    0.0000 </r>
       <r>   14.4424    0.0000 </r>
       <r>   14.7515    0.0000 </r>
       <r>   14.9309    0.0000 </r>
       <r>   15.3069    0.0000 </r>
       <r>   15.5116    0.0000 </r>
       <r>   15.6296    0.0000 </r>
       <r>   16.4832    0.0000 </r>
       <r>   16.9027    0.0000 </r>
       <r>   16.9852    0.0000 </r>
       <r>   17.5445    0.0000 </r>
       <r>   17.9068    0.0000 </r>
       <r>   18.4072    0.0000 </r>
       <r>   19.1571    0.0000 </r>
       <r>   20.1031    0.0000 </r>
       <r>   20.3407    0.0000 </r>
      </set>
      <set comment="kpoint 7">
       <r> -111.3989    1.0000 </r>
       <r> -111.3987    1.0000 </r>
       <r>  -78.2784    1.0000 </r>
       <r>  -78.2780    1.0000 </r>
       <r>  -78.2742    1.0000 </r>
       <r>  -78.2741    1.0000 </r>
       <r>  -59.6416    1.0000 </r>
       <r>  -59.6411    1.0000 </r>
       <r>  -59.4320    1.0000 </r>
       <r>  -59.4318    1.0000 </r>
       <r>  -48.3337    1.0000 </r>
       <r>  -48.3286    1.0000 </r>
       <r>  -46.4144    1.0000 </r>
       <r>  -46.4138    1.0000 </r>
       <r>  -39.3688    1.0000 </r>
       <r>  -39.3544    1.0000 </r>
       <r>  -37.9642    1.0000 </r>
       <r>  -37.9615    1.0000 </r>
       <r>  -37.9606    1.0000 </r>
       <r>  -37.9591    1.0000 </r>
       <r>  -28.1308    1.0000 </r>
       <r>  -28.0725    1.0000 </r>
       <r>  -28.0273    1.0000 </r>
       <r>  -27.9775    1.0000 </r>
       <r>  -22.3534    1.0000 </r>
       <r>  -22.3460    1.0000 </r>
       <r>  -22.0461    1.0000 </r>
       <r>  -22.0103    1.0000 </r>
       <r>  -21.9356    1.0000 </r>
       <r>  -21.8942    1.0000 </r>
       <r>  -20.0509    1.0000 </r>
       <r>  -20.0232    1.0000 </r>
       <r>  -19.8732    1.0000 </r>
       <r>  -19.8502    1.0000 </r>
       <r>  -15.8589    1.0000 </r>
       <r>  -15.8438    1.0000 </r>
       <r>   -7.7041    1.0000 </r>
       <r>   -7.7026    1.0000 </r>
       <r>   -7.1112    1.0000 </r>
       <r>   -7.0789    1.0000 </r>
       <r>   -4.0079    1.0000 </r>
       <r>   -3.8582    1.0000 </r>
       <r>   -3.1314    1.0000 </r>
       <r>   -2.8317    1.0000 </r>
       <r>   -1.0130    1.0000 </r>
       <r>   -0.9180    1.0000 </r>
       <r>    0.1785    1.0000 </r>
       <r>    0.2273    1.0000 </r>
       <r>    2.7635    1.0000 </r>
       <r>    2.8351    1.0000 </r>
       <r>    4.5462    1.0000 </r>
       <r>    4.7259    1.0000 </r>
       <r>    4.8798    1.0000 </r>
       <r>    5.2224    1.0000 </r>
       <r>    5.8689    1.0000 </r>
       <r>    5.9828    1.0000 </r>
       <r>    6.6332    1.0000 </r>
       <r>    6.9535    1.0000 </r>
       <r>    7.7849    1.0000 </r>
       <r>    7.9203    1.0000 </r>
       <r>    8.8814    1.0000 </r>
       <r>    8.9957    1.0000 </r>
       <r>    9.2686    1.0000 </r>
       <r>    9.4777    1.0000 </r>
       <r>    9.7996    1.0000 </r>
       <r>   10.0536    1.0000 </r>
       <r>   10.2486    1.0000 </r>
       <r>   10.6762    1.0000 </r>
       <r>   10.8966    1.0000 </r>
       <r>   10.9605    1.0000 </r>
       <r>   11.1562    1.0000 </r>
       <r>   11.3086    1.0000 </r>
       <r>   12.1430    1.0000 </r>
       <r>   12.2339    1.0000 </r>
       <r>   12.5593    1.0000 </r>
       <r>   12.7389    1.0000 </r>
       <r>   12.7932    1.0000 </r>
       <r>   13.1165    1.0000 </r>
       <r>   13.4752    1.0000 </r>
       <r>   13.8247    1.0000 </r>
       <r>   14.0863    0.0000 </r>
       <r>   14.3896    0.0000 </r>
       <r>   14.4952    0.0000 </r>
       <r>   14.6722    0.0000 </r>
       <r>   15.2752    0.0000 </r>
       <r>   15.4666    0.0000 </r>
       <r>   15.7133    0.0000 </r>
       <r>   16.1491    0.0000 </r>
       <r>   16.9435    0.0000 </r>
       <r>   17.0833    0.0000 </r>
       <r>   17.5147    0.0000 </r>
       <r>   17.6585    0.0000 </r>
       <r>   18.2312    0.0000 </r>
       <r>   18.4473    0.0000 </r>
       <r>   19.0269    0.0000 </r>
       <r>   19.7373    0.0000 </r>
      </set>
      <set comment="kpoint 8">
       <r> -111.3992    1.0000 </r>
       <r> -111.3985    1.0000 </r>
       <r>  -78.2783    1.0000 </r>
       <r>  -78.2781    1.0000 </r>
       <r>  -78.2743    1.0000 </r>
       <r>  -78.2739    1.0000 </r>
       <r>  -59.6416    1.0000 </r>
       <r>  -59.6411    1.0000 </r>
       <r>  -59.4320    1.0000 </r>
       <r>  -59.4318    1.0000 </r>
       <r>  -48.3344    1.0000 </r>
       <r>  -48.3279    1.0000 </r>
       <r>  -46.4144    1.0000 </r>
       <r>  -46.4137    1.0000 </r>
       <r>  -39.3688    1.0000 </r>
       <r>  -39.3544    1.0000 </r>
       <r>  -37.9632    1.0000 </r>
       <r>  -37.9625    1.0000 </r>
       <r>  -37.9616    1.0000 </r>
       <r>  -37.9581    1.0000 </r>
       <r>  -28.1260    1.0000 </r>
       <r>  -28.0772    1.0000 </r>
       <r>  -28.0318    1.0000 </r>
       <r>  -27.9730    1.0000 </r>
       <r>  -22.3594    1.0000 </r>
       <r>  -22.3400    1.0000 </r>
       <r>  -22.0465    1.0000 </r>
       <r>  -22.0099    1.0000 </r>
       <r>  -21.9358    1.0000 </r>
       <r>  -21.8940    1.0000 </r>
       <r>  -20.0510    1.0000 </r>
       <r>  -20.0231    1.0000 </r>
       <r>  -19.8729    1.0000 </r>
       <r>  -19.8504    1.0000 </r>
       <r>  -15.8557    1.0000 </r>
       <r>  -15.8469    1.0000 </r>
       <r>   -7.7113    1.0000 </r>
       <r>   -7.6961    1.0000 </r>
       <r>   -7.1304    1.0000 </r>
       <r>   -7.0552    1.0000 </r>
       <r>   -4.0287    1.0000 </r>
       <r>   -3.8352    1.0000 </r>
       <r>   -3.1437    1.0000 </r>
       <r>   -2.8226    1.0000 </r>
       <r>   -1.0118    1.0000 </r>
       <r>   -0.9189    1.0000 </r>
       <r>    0.0178    1.0000 </r>
       <r>    0.3850    1.0000 </r>
       <r>    2.4905    1.0000 </r>
       <r>    3.1204    1.0000 </r>
       <r>    4.5420    1.0000 </r>
       <r>    4.6459    1.0000 </r>
       <r>    4.8094    1.0000 </r>
       <r>    5.2845    1.0000 </r>
       <r>    5.9506    1.0000 </r>
       <r>    6.0499    1.0000 </r>
       <r>    6.5624    1.0000 </r>
       <r>    7.0977    1.0000 </r>
       <r>    7.5837    1.0000 </r>
       <r>    8.2327    1.0000 </r>
       <r>    8.7517    1.0000 </r>
       <r>    9.0852    1.0000 </r>
       <r>    9.2526    1.0000 </r>
       <r>    9.3454    1.0000 </r>
       <r>    9.7724    1.0000 </r>
       <r>   10.0463    1.0000 </r>
       <r>   10.1942    1.0000 </r>
       <r>   10.6432    1.0000 </r>
       <r>   10.6974    1.0000 </r>
       <r>   11.1753    1.0000 </r>
       <r>   11.3492    1.0000 </r>
       <r>   11.4683    1.0000 </r>
       <r>   11.9471    1.0000 </r>
       <r>   12.0844    1.0000 </r>
       <r>   12.2952    1.0000 </r>
       <r>   12.6557    1.0000 </r>
       <r>   12.9952    1.0000 </r>
       <r>   13.2529    1.0000 </r>
       <r>   13.7119    1.0000 </r>
       <r>   13.8800    1.0000 </r>
       <r>   13.9138    1.0000 </r>
       <r>   14.2779    0.0000 </r>
       <r>   14.3576    0.0000 </r>
       <r>   14.9278    0.0000 </r>
       <r>   15.1719    0.0000 </r>
       <r>   15.3640    0.0000 </r>
       <r>   15.8333    0.0000 </r>
       <r>   16.0786    0.0000 </r>
       <r>   16.9741    0.0000 </r>
       <r>   17.1429    0.0000 </r>
       <r>   17.2479    0.0000 </r>
       <r>   17.7567    0.0000 </r>
       <r>   18.1619    0.0000 </r>
       <r>   18.4813    0.0000 </r>
       <r>   19.4725    0.0000 </r>
       <r>   19.9609    0.0000 </r>
      </set>
      <set comment="kpoint 9">
       <r> -111.3998    1.0000 </r>
       <r> -111.3984    1.0000 </r>
       <r>  -78.2783    1.0000 </r>
       <r>  -78.2781    1.0000 </r>
       <r>  -78.2744    1.0000 </r>
       <r>  -78.2738    1.0000 </r>
       <r>  -59.6420    1.0000 </r>
       <r>  -59.6408    1.0000 </r>
       <r>  -59.4321    1.0000 </r>
       <r>  -59.4318    1.0000 </r>
       <r>  -48.3412    1.0000 </r>
       <r>  -48.3244    1.0000 </r>
       <r>  -46.4121    1.0000 </r>
       <r>  -46.4104    1.0000 </r>
       <r>  -39.3817    1.0000 </r>
       <r>  -39.3413    1.0000 </r>
       <r>  -37.9637    1.0000 </r>
       <r>  -37.9623    1.0000 </r>
       <r>  -37.9620    1.0000 </r>
       <r>  -37.9574    1.0000 </r>
       <r>  -28.1687    1.0000 </r>
       <r>  -28.0955    1.0000 </r>
       <r>  -28.0235    1.0000 </r>
       <r>  -27.9393    1.0000 </r>
       <r>  -22.3639    1.0000 </r>
       <r>  -22.3364    1.0000 </r>
       <r>  -22.0787    1.0000 </r>
       <r>  -22.0217    1.0000 </r>
       <r>  -21.9770    1.0000 </r>
       <r>  -21.9123    1.0000 </r>
       <r>  -19.9905    1.0000 </r>
       <r>  -19.9195    1.0000 </r>
       <r>  -19.8912    1.0000 </r>
       <r>  -19.8277    1.0000 </r>
       <r>  -15.8667    1.0000 </r>
       <r>  -15.8356    1.0000 </r>
       <r>   -7.7162    1.0000 </r>
       <r>   -7.6874    1.0000 </r>
       <r>   -7.1808    1.0000 </r>
       <r>   -7.0112    1.0000 </r>
       <r>   -4.1429    1.0000 </r>
       <r>   -3.6461    1.0000 </r>
       <r>   -3.4460    1.0000 </r>
       <r>   -2.5689    1.0000 </r>
       <r>   -1.1056    1.0000 </r>
       <r>   -0.8437    1.0000 </r>
       <r>   -0.1380    1.0000 </r>
       <r>    0.4747    1.0000 </r>
       <r>    2.3253    1.0000 </r>
       <r>    3.3818    1.0000 </r>
       <r>    4.1734    1.0000 </r>
       <r>    4.2688    1.0000 </r>
       <r>    4.6918    1.0000 </r>
       <r>    5.5857    1.0000 </r>
       <r>    6.0204    1.0000 </r>
       <r>    6.1709    1.0000 </r>
       <r>    6.3587    1.0000 </r>
       <r>    7.2609    1.0000 </r>
       <r>    7.6989    1.0000 </r>
       <r>    8.2299    1.0000 </r>
       <r>    8.8476    1.0000 </r>
       <r>    9.0324    1.0000 </r>
       <r>    9.2821    1.0000 </r>
       <r>    9.2999    1.0000 </r>
       <r>    9.7414    1.0000 </r>
       <r>   10.0380    1.0000 </r>
       <r>   10.1464    1.0000 </r>
       <r>   10.5594    1.0000 </r>
       <r>   10.6364    1.0000 </r>
       <r>   10.9721    1.0000 </r>
       <r>   11.2740    1.0000 </r>
       <r>   11.4292    1.0000 </r>
       <r>   11.5791    1.0000 </r>
       <r>   12.2867    1.0000 </r>
       <r>   12.5927    1.0000 </r>
       <r>   13.1734    1.0000 </r>
       <r>   13.2344    1.0000 </r>
       <r>   13.4772    1.0000 </r>
       <r>   13.6685    1.0000 </r>
       <r>   13.9818    0.7430 </r>
       <r>   14.0925    0.0000 </r>
       <r>   14.2325    0.0000 </r>
       <r>   14.5747    0.0000 </r>
       <r>   14.9302    0.0000 </r>
       <r>   15.1772    0.0000 </r>
       <r>   15.4068    0.0000 </r>
       <r>   15.5833    0.0000 </r>
       <r>   16.5288    0.0000 </r>
       <r>   16.8347    0.0000 </r>
       <r>   16.9562    0.0000 </r>
       <r>   17.3632    0.0000 </r>
       <r>   18.2998    0.0000 </r>
       <r>   18.5575    0.0000 </r>
       <r>   18.6133    0.0000 </r>
       <r>   19.5527    0.0000 </r>
       <r>   20.7197    0.0000 </r>
      </set>
      <set comment="kpoint 10">
[...]
       <r>  -46.4069    1.0000 </r>
       <r>  -46.4039    1.0000 </r>
       <r>  -39.3954    1.0000 </r>
       <r>  -39.3272    1.0000 </r>
       <r>  -37.9642    1.0000 </r>
       <r>  -37.9614    1.0000 </r>
       <r>  -37.9614    1.0000 </r>
       <r>  -37.9581    1.0000 </r>
       <r>  -28.1973    1.0000 </r>
       <r>  -28.1908    1.0000 </r>
       <r>  -27.9473    1.0000 </r>
       <r>  -27.9311    1.0000 </r>
       <r>  -22.3679    1.0000 </r>
       <r>  -22.3346    1.0000 </r>
       <r>  -22.1295    1.0000 </r>
       <r>  -22.1275    1.0000 </r>
       <r>  -21.9623    1.0000 </r>
       <r>  -21.9618    1.0000 </r>
       <r>  -19.8797    1.0000 </r>
       <r>  -19.8760    1.0000 </r>
       <r>  -19.7731    1.0000 </r>
       <r>  -19.7731    1.0000 </r>
       <r>  -15.8869    1.0000 </r>
       <r>  -15.8156    1.0000 </r>
       <r>   -7.6976    1.0000 </r>
       <r>   -7.6898    1.0000 </r>
       <r>   -7.2105    1.0000 </r>
       <r>   -7.0521    1.0000 </r>
       <r>   -4.1706    1.0000 </r>
       <r>   -3.7571    1.0000 </r>
       <r>   -3.4777    1.0000 </r>
       <r>   -2.3223    1.0000 </r>
       <r>   -1.2179    1.0000 </r>
       <r>   -0.7722    1.0000 </r>
       <r>    0.0459    1.0000 </r>
       <r>    0.2608    1.0000 </r>
       <r>    2.7365    1.0000 </r>
       <r>    3.1285    1.0000 </r>
       <r>    4.2770    1.0000 </r>
       <r>    4.4485    1.0000 </r>
       <r>    4.5109    1.0000 </r>
       <r>    4.9279    1.0000 </r>
       <r>    5.5908    1.0000 </r>
       <r>    5.6227    1.0000 </r>
       <r>    6.9598    1.0000 </r>
       <r>    7.3737    1.0000 </r>
       <r>    7.6394    1.0000 </r>
       <r>    7.9771    1.0000 </r>
       <r>    8.0738    1.0000 </r>
       <r>    8.2874    1.0000 </r>
       <r>    8.7766    1.0000 </r>
       <r>    8.8040    1.0000 </r>
       <r>    9.5369    1.0000 </r>
       <r>    9.5670    1.0000 </r>
       <r>    9.9906    1.0000 </r>
       <r>   10.5529    1.0000 </r>
       <r>   11.2062    1.0000 </r>
       <r>   11.3351    1.0000 </r>
       <r>   11.5236    1.0000 </r>
       <r>   11.8949    1.0000 </r>
       <r>   13.0215    1.0000 </r>
       <r>   13.0953    1.0000 </r>
       <r>   13.1322    1.0000 </r>
       <r>   13.7757    1.0000 </r>
       <r>   14.0601    0.0000 </r>
       <r>   14.1094    0.0000 </r>
       <r>   14.2671    0.0000 </r>
       <r>   14.3740    0.0000 </r>
       <r>   14.6874    0.0000 </r>
       <r>   14.6942    0.0000 </r>
       <r>   14.8189    0.0000 </r>
       <r>   15.3109    0.0000 </r>
       <r>   15.4436    0.0000 </r>
       <r>   15.5540    0.0000 </r>
       <r>   15.5607    0.0000 </r>
       <r>   15.8582    0.0000 </r>
       <r>   16.5436    0.0000 </r>
       <r>   16.6174    0.0000 </r>
       <r>   17.6028    0.0000 </r>
       <r>   18.2732    0.0000 </r>
       <r>   19.0078    0.0000 </r>
       <r>   19.1298    0.0000 </r>
       <r>   19.3380    0.0000 </r>
       <r>   19.5361    0.0000 </r>
      </set>
     </set>
    </set>
   </array>
  </eigenvalues>
  <separator name="orbital magnetization" >
   <v name="MAGDIPOLOUT">      0.00000000      0.00000000      0.00000000</v>
  </separator>
  <dos>
   <i name="efermi">     13.99099313 </i>
   <total>
    <array>
     <dimension dim="1">gridpoints</dimension>
     <dimension dim="2">spin</dimension>
     <field>energy</field>
     <field>total</field>
     <field>integrated</field>
     <set>
      <set comment="spin 1">
       <r>  -118.0471     0.0000     0.0000 </r>
       <r>  -117.5597     0.0000     0.0000 </r>
       <r>  -117.0723     0.0000     0.0000 </r>
       <r>  -116.5848     0.0000     0.0000 </r>
       <r>  -116.0974     0.0000     0.0000 </r>
       <r>  -115.6100     0.0000     0.0000 </r>
       <r>  -115.1226     0.0000     0.0000 </r>
       <r>  -114.6352     0.0000     0.0000 </r>
       <r>  -114.1478     0.0000     0.0000 </r>
       <r>  -113.6604     0.0000     0.0000 </r>
       <r>  -113.1730     0.0000     0.0000 </r>
       <r>  -112.6856     0.0000     0.0000 </r>
       <r>  -112.1982     0.0000     0.0000 </r>
       <r>  -111.7108     0.0000     0.0000 </r>
       <r>  -111.2234     0.0000     4.0000 </r>
       <r>  -110.7360     0.0000     4.0000 </r>
       <r>  -110.2486     0.0000     4.0000 </r>
       <r>  -109.7612     0.0000     4.0000 </r>
       <r>  -109.2738     0.0000     4.0000 </r>
       <r>  -108.7864     0.0000     4.0000 </r>
       <r>  -108.2990     0.0000     4.0000 </r>
       <r>  -107.8116     0.0000     4.0000 </r>
       <r>  -107.3242     0.0000     4.0000 </r>
       <r>  -106.8368     0.0000     4.0000 </r>
       <r>  -106.3494     0.0000     4.0000 </r>
       <r>  -105.8620     0.0000     4.0000 </r>
       <r>  -105.3746     0.0000     4.0000 </r>
       <r>  -104.8872     0.0000     4.0000 </r>
       <r>  -104.3997     0.0000     4.0000 </r>
       <r>  -103.9123     0.0000     4.0000 </r>
       <r>  -103.4249     0.0000     4.0000 </r>
       <r>  -102.9375     0.0000     4.0000 </r>
       <r>  -102.4501     0.0000     4.0000 </r>
       <r>  -101.9627     0.0000     4.0000 </r>
       <r>  -101.4753     0.0000     4.0000 </r>
       <r>  -100.9879     0.0000     4.0000 </r>
       <r>  -100.5005     0.0000     4.0000 </r>
       <r>  -100.0131     0.0000     4.0000 </r>
       <r>   -99.5257     0.0000     4.0000 </r>
       <r>   -99.0383     0.0000     4.0000 </r>
       <r>   -98.5509     0.0000     4.0000 </r>
       <r>   -98.0635     0.0000     4.0000 </r>
       <r>   -97.5761     0.0000     4.0000 </r>
       <r>   -97.0887     0.0000     4.0000 </r>
       <r>   -96.6013     0.0000     4.0000 </r>
       <r>   -96.1139     0.0000     4.0000 </r>
       <r>   -95.6265     0.0000     4.0000 </r>
       <r>   -95.1391     0.0000     4.0000 </r>
       <r>   -94.6517     0.0000     4.0000 </r>
       <r>   -94.1643     0.0000     4.0000 </r>
       <r>   -93.6769     0.0000     4.0000 </r>
       <r>   -93.1895     0.0000     4.0000 </r>
       <r>   -92.7021     0.0000     4.0000 </r>
       <r>   -92.2146     0.0000     4.0000 </r>
       <r>   -91.7272     0.0000     4.0000 </r>
       <r>   -91.2398     0.0000     4.0000 </r>
       <r>   -90.7524     0.0000     4.0000 </r>
       <r>   -90.2650     0.0000     4.0000 </r>
       <r>   -89.7776     0.0000     4.0000 </r>
       <r>   -89.2902     0.0000     4.0000 </r>
       <r>   -88.8028     0.0000     4.0000 </r>
       <r>   -88.3154     0.0000     4.0000 </r>
       <r>   -87.8280     0.0000     4.0000 </r>
       <r>   -87.3406     0.0000     4.0000 </r>
       <r>   -86.8532     0.0000     4.0000 </r>
       <r>   -86.3658     0.0000     4.0000 </r>
       <r>   -85.8784     0.0000     4.0000 </r>
       <r>   -85.3910     0.0000     4.0000 </r>
       <r>   -84.9036     0.0000     4.0000 </r>
       <r>   -84.4162     0.0000     4.0000 </r>
       <r>   -83.9288     0.0000     4.0000 </r>
       <r>   -83.4414     0.0000     4.0000 </r>
       <r>   -82.9540     0.0000     4.0000 </r>
       <r>   -82.4666     0.0000     4.0000 </r>
       <r>   -81.9792     0.0000     4.0000 </r>
       <r>   -81.4918     0.0000     4.0000 </r>
       <r>   -81.0044     0.0000     4.0000 </r>
       <r>   -80.5170     0.0000     4.0000 </r>
       <r>   -80.0296     0.0000     4.0000 </r>
       <r>   -79.5421     0.0000     4.0000 </r>
       <r>   -79.0547     0.0000     4.0000 </r>
       <r>   -78.5673     0.0000     4.0000 </r>
       <r>   -78.0799     0.0000    12.0000 </r>
       <r>   -77.5925     0.0000    12.0000 </r>
       <r>   -77.1051     0.0000    12.0000 </r>
       <r>   -76.6177     0.0000    12.0000 </r>
       <r>   -76.1303     0.0000    12.0000 </r>
       <r>   -75.6429     0.0000    12.0000 </r>
       <r>   -75.1555     0.0000    12.0000 </r>
       <r>   -74.6681     0.0000    12.0000 </r>
       <r>   -74.1807     0.0000    12.0000 </r>
       <r>   -73.6933     0.0000    12.0000 </r>
       <r>   -73.2059     0.0000    12.0000 </r>
       <r>   -72.7185     0.0000    12.0000 </r>
       <r>   -72.2311     0.0000    12.0000 </r>
       <r>   -71.7437     0.0000    12.0000 </r>
       <r>   -71.2563     0.0000    12.0000 </r>
       <r>   -70.7689     0.0000    12.0000 </r>
       <r>   -70.2815     0.0000    12.0000 </r>
       <r>   -69.7941     0.0000    12.0000 </r>
       <r>   -69.3067     0.0000    12.0000 </r>
       <r>   -68.8193     0.0000    12.0000 </r>
       <r>   -68.3319     0.0000    12.0000 </r>
       <r>   -67.8445     0.0000    12.0000 </r>
       <r>   -67.3570     0.0000    12.0000 </r>
       <r>   -66.8696     0.0000    12.0000 </r>
       <r>   -66.3822     0.0000    12.0000 </r>
       <r>   -65.8948     0.0000    12.0000 </r>
       <r>   -65.4074     0.0000    12.0000 </r>
       <r>   -64.9200     0.0000    12.0000 </r>
       <r>   -64.4326     0.0000    12.0000 </r>
       <r>   -63.9452     0.0000    12.0000 </r>
       <r>   -63.4578     0.0000    12.0000 </r>
       <r>   -62.9704     0.0000    12.0000 </r>
       <r>   -62.4830     0.0000    12.0000 </r>
       <r>   -61.9956     0.0000    12.0000 </r>
       <r>   -61.5082     0.0000    12.0000 </r>
       <r>   -61.0208     0.0000    12.0000 </r>
       <r>   -60.5334     0.0000    12.0000 </r>
       <r>   -60.0460     0.0000    12.0000 </r>
       <r>   -59.5586     8.2067    16.0000 </r>
       <r>   -59.0712     0.0000    20.0000 </r>
       <r>   -58.5838     0.0000    20.0000 </r>
       <r>   -58.0964     0.0000    20.0000 </r>
       <r>   -57.6090     0.0000    20.0000 </r>
       <r>   -57.1216     0.0000    20.0000 </r>
       <r>   -56.6342     0.0000    20.0000 </r>
       <r>   -56.1468     0.0000    20.0000 </r>
       <r>   -55.6594     0.0000    20.0000 </r>
       <r>   -55.1720     0.0000    20.0000 </r>
       <r>   -54.6845     0.0000    20.0000 </r>
       <r>   -54.1971     0.0000    20.0000 </r>
       <r>   -53.7097     0.0000    20.0000 </r>
       <r>   -53.2223     0.0000    20.0000 </r>
       <r>   -52.7349     0.0000    20.0000 </r>
       <r>   -52.2475     0.0000    20.0000 </r>
       <r>   -51.7601     0.0000    20.0000 </r>
       <r>   -51.2727     0.0000    20.0000 </r>
       <r>   -50.7853     0.0000    20.0000 </r>
       <r>   -50.2979     0.0000    20.0000 </r>
       <r>   -49.8105     0.0000    20.0000 </r>
       <r>   -49.3231     0.0000    20.0000 </r>
       <r>   -48.8357     0.0000    20.0000 </r>
       <r>   -48.3483     1.2378    20.6033 </r>
       <r>   -47.8609     0.0000    24.0000 </r>
       <r>   -47.3735     0.0000    24.0000 </r>
       <r>   -46.8861     0.0000    24.0000 </r>
       <r>   -46.3987     6.8407    27.3342 </r>
       <r>   -45.9113     0.0000    28.0000 </r>
       <r>   -45.4239     0.0000    28.0000 </r>
       <r>   -44.9365     0.0000    28.0000 </r>
       <r>   -44.4491     0.0000    28.0000 </r>
       <r>   -43.9617     0.0000    28.0000 </r>
       <r>   -43.4743     0.0000    28.0000 </r>
       <r>   -42.9869     0.0000    28.0000 </r>
       <r>   -42.4994     0.0000    28.0000 </r>
       <r>   -42.0120     0.0000    28.0000 </r>
       <r>   -41.5246     0.0000    28.0000 </r>
       <r>   -41.0372     0.0000    28.0000 </r>
       <r>   -40.5498     0.0000    28.0000 </r>
       <r>   -40.0624     0.0000    28.0000 </r>
       <r>   -39.5750     0.0000    28.0000 </r>
       <r>   -39.0876     0.0000    32.0000 </r>
       <r>   -38.6002     0.0000    32.0000 </r>
       <r>   -38.1128     0.0000    32.0000 </r>
       <r>   -37.6254     0.0000    40.0000 </r>
       <r>   -37.1380     0.0000    40.0000 </r>
       <r>   -36.6506     0.0000    40.0000 </r>
       <r>   -36.1632     0.0000    40.0000 </r>
       <r>   -35.6758     0.0000    40.0000 </r>
       <r>   -35.1884     0.0000    40.0000 </r>
       <r>   -34.7010     0.0000    40.0000 </r>
       <r>   -34.2136     0.0000    40.0000 </r>
       <r>   -33.7262     0.0000    40.0000 </r>
       <r>   -33.2388     0.0000    40.0000 </r>
       <r>   -32.7514     0.0000    40.0000 </r>
       <r>   -32.2640     0.0000    40.0000 </r>
       <r>   -31.7766     0.0000    40.0000 </r>
       <r>   -31.2892     0.0000    40.0000 </r>
       <r>   -30.8018     0.0000    40.0000 </r>
       <r>   -30.3143     0.0000    40.0000 </r>
       <r>   -29.8269     0.0000    40.0000 </r>
       <r>   -29.3395     0.0000    40.0000 </r>
       <r>   -28.8521     0.0000    40.0000 </r>
       <r>   -28.3647     0.0000    40.0000 </r>
       <r>   -27.8773     7.8715    47.9998 </r>
       <r>   -27.3899     0.0000    48.0000 </r>
       <r>   -26.9025     0.0000    48.0000 </r>
       <r>   -26.4151     0.0000    48.0000 </r>
       <r>   -25.9277     0.0000    48.0000 </r>
       <r>   -25.4403     0.0000    48.0000 </r>
       <r>   -24.9529     0.0000    48.0000 </r>
       <r>   -24.4655     0.0000    48.0000 </r>
       <r>   -23.9781     0.0000    48.0000 </r>
       <r>   -23.4907     0.0000    48.0000 </r>
       <r>   -23.0033     0.0000    48.0000 </r>
       <r>   -22.5159     0.0000    48.0000 </r>
       <r>   -22.0285     4.2856    54.0888 </r>
       <r>   -21.5411     0.0000    60.0000 </r>
       <r>   -21.0537     0.0000    60.0000 </r>
       <r>   -20.5663     0.0000    60.0000 </r>
       <r>   -20.0789     0.1608    60.0784 </r>
       <r>   -19.5915     0.0000    68.0000 </r>
       <r>   -19.1041     0.0000    68.0000 </r>
       <r>   -18.6167     0.0000    68.0000 </r>
       <r>   -18.1293     0.0000    68.0000 </r>
       <r>   -17.6418     0.0000    68.0000 </r>
       <r>   -17.1544     0.0000    68.0000 </r>
       <r>   -16.6670     0.0000    68.0000 </r>
       <r>   -16.1796     0.0000    68.0000 </r>
       <r>   -15.6922     4.1871    72.0000 </r>
       <r>   -15.2048     0.0000    72.0000 </r>
       <r>   -14.7174     0.0000    72.0000 </r>
       <r>   -14.2300     0.0000    72.0000 </r>
       <r>   -13.7426     0.0000    72.0000 </r>
       <r>   -13.2552     0.0000    72.0000 </r>
       <r>   -12.7678     0.0000    72.0000 </r>
       <r>   -12.2804     0.0000    72.0000 </r>
       <r>   -11.7930     0.0000    72.0000 </r>
       <r>   -11.3056     0.0000    72.0000 </r>
       <r>   -10.8182     0.0000    72.0000 </r>
       <r>   -10.3308     0.0000    72.0000 </r>
       <r>    -9.8434     0.0000    72.0000 </r>
       <r>    -9.3560     0.0000    72.0000 </r>
       <r>    -8.8686     0.0000    72.0000 </r>
       <r>    -8.3812     0.0000    72.0000 </r>
       <r>    -7.8938     0.0000    72.0000 </r>
       <r>    -7.4064     0.0000    76.0000 </r>
       <r>    -6.9190     2.9414    80.0000 </r>
       <r>    -6.4316     0.0000    80.0000 </r>
       <r>    -5.9442     0.0000    80.0000 </r>
       <r>    -5.4567     0.0000    80.0000 </r>
       <r>    -4.9693     0.0000    80.0000 </r>
       <r>    -4.4819     0.0000    80.0000 </r>
       <r>    -3.9945     3.5233    82.0489 </r>
       <r>    -3.5071     1.4358    84.2916 </r>
       <r>    -3.0197     0.7315    85.5249 </r>
       <r>    -2.5323     1.5022    87.4822 </r>
       <r>    -2.0449     0.0000    88.0000 </r>
       <r>    -1.5575     0.0000    88.0000 </r>
       <r>    -1.0701     1.7860    88.8705 </r>
       <r>    -0.5827     0.0000    92.0000 </r>
       <r>    -0.0953     0.5984    92.2968 </r>
       <r>     0.3921     1.7781    95.1013 </r>
       <r>     0.8795     0.0000    96.0000 </r>
       <r>     1.3669     0.0000    96.0000 </r>
       <r>     1.8543     0.0000    96.0000 </r>
       <r>     2.3417     0.4790    96.2335 </r>
       <r>     2.8291     1.2468    98.0669 </r>
       <r>     3.3165     0.6001    99.6854 </r>
       <r>     3.8039     0.1142   100.0557 </r>
       <r>     4.2913     1.0477   101.0719 </r>
       <r>     4.7787     2.5478   104.0428 </r>
       <r>     5.2661     1.1521   106.4901 </r>
       <r>     5.7535     1.1266   108.4471 </r>
       <r>     6.2409     1.4258   111.8633 </r>
       <r>     6.7284     1.0553   114.0756 </r>
       <r>     7.2158     1.2556   115.5457 </r>
       <r>     7.7032     1.2870   116.9691 </r>
       <r>     8.1906     1.5100   118.8023 </r>
       <r>     8.6780     1.6753   121.3114 </r>
       <r>     9.1654     3.0391   124.9711 </r>
       <r>     9.6528     2.4159   129.1724 </r>
       <r>    10.1402     2.5496   132.0692 </r>
       <r>    10.6276     2.0581   135.4368 </r>
       <r>    11.1150     3.0409   139.1403 </r>
       <r>    11.6024     2.3625   143.2484 </r>
       <r>    12.0898     2.1552   146.1576 </r>
       <r>    12.5772     2.5358   150.1033 </r>
       <r>    13.0646     2.3600   153.4462 </r>
       <r>    13.5520     2.7359   157.2416 </r>
       <r>    14.0394     2.1538   160.2334 </r>
       <r>    14.5268     2.2805   163.3819 </r>
       <r>    15.0142     3.1095   167.1839 </r>
       <r>    15.5016     2.7531   171.1582 </r>
       <r>    15.9890     0.9543   173.5621 </r>
       <r>    16.4764     1.2721   175.4415 </r>
       <r>    16.9638     2.1219   177.9577 </r>
       <r>    17.4512     1.5682   180.9327 </r>
       <r>    17.9386     1.5963   183.4770 </r>
       <r>    18.4260     1.3512   185.5157 </r>
       <r>    18.9134     0.7741   187.3875 </r>
       <r>    19.4009     0.9667   188.8589 </r>
       <r>    19.8883     0.5118   190.2035 </r>
       <r>    20.3757     0.6835   191.2311 </r>
       <r>    20.8631     0.2900   191.7791 </r>
       <r>    21.3505     0.0986   191.9511 </r>
       <r>    21.8379     0.0000   192.0000 </r>
       <r>    22.3253     0.0000   192.0000 </r>
       <r>    22.8127     0.0000   192.0000 </r>
       <r>    23.3001     0.0000   192.0000 </r>
       <r>    23.7875     0.0000   192.0000 </r>
       <r>    24.2749     0.0000   192.0000 </r>
       <r>    24.7623     0.0000   192.0000 </r>
       <r>    25.2497     0.0000   192.0000 </r>
       <r>    25.7371     0.0000   192.0000 </r>
       <r>    26.2245     0.0000   192.0000 </r>
       <r>    26.7119     0.0000   192.0000 </r>
       <r>    27.1993     0.0000   192.0000 </r>
       <r>    27.6867     0.0000   192.0000 </r>
       <r>    28.1741     0.0000   192.0000 </r>
      </set>
     </set>
    </array>
   </total>
  </dos>
 </calculation>
 <structure name="finalpos" >
  <crystal>
   <varray name="basis" >
    <v>       5.34574788       0.00000000      -3.06823304 </v>
    <v>      -1.79245433       5.03628116      -3.06823304 </v>
    <v>       0.00000000       0.00000000       6.16369000 </v>
   </varray>
   <i name="volume">    165.94311089 </i>
   <varray name="rec_basis" >
    <v>       0.18706456       0.06657783       0.00000000 </v>
    <v>       0.00000000       0.19855921       0.00000000 </v>
    <v>       0.09311917       0.13198299       0.16224048 </v>
   </varray>
  </crystal>
  <varray name="positions" >
   <v>       0.18219000       0.68219000       0.86438000 </v>
   <v>       0.81781000       0.31781000       0.13562000 </v>
   <v>       0.68219000       0.81781000       0.50000000 </v>
   <v>       0.31781000       0.18219000       0.50000000 </v>
   <v>       0.25000000       0.25000000       0.00000000 </v>
   <v>       0.15884000       0.65884000       0.32878000 </v>
   <v>       0.75000000       0.75000000       0.00000000 </v>
   <v>       0.84116000       0.34116000       0.67122000 </v>
   <v>       0.65884000       0.33007000       0.50000000 </v>
   <v>       0.34116000       0.66993000       0.50000000 </v>
   <v>       0.33007000       0.83007000       0.67122000 </v>
   <v>       0.66993000       0.16993000       0.32878000 </v>
   <v>       0.83007000       0.15884000       0.50000000 </v>
   <v>       0.16993000       0.84116000       0.50000000 </v>
   <v>       0.50000000       0.50000000       0.00000000 </v>
   <v>       0.00000000       0.00000000       0.00000000 </v>
  </varray>
 </structure>
</modeling>
