<?xml version="1.0" encoding="ISO-8859-1"?>
<modeling>
 <generator>
  <i name="program" type="string">vasp </i>
  <i name="version" type="string">6.2.0  </i>
  <i name="subversion" type="string">18Jan21 (build Jan 05 2022 15:41:44) complex                          parallel </i>
  <i name="platform" type="string">LinuxIFC </i>
  <i name="date" type="string">2025 05 07 </i>
  <i name="time" type="string">21:31:33 </i>
 </generator>
 <incar>
  <i type="string" name="SYSTEM">routine with relax: pwdword</i>
  <i type="string" name="PREC">Acc</i>
  <i type="int" name="IALGO">    38</i>
  <i type="string" name="ALGO">A</i>
  <i type="logical" name="ADDGRID"> T  </i>
  <i type="int" name="ICHARG">     2</i>
  <i type="int" name="NELM">   100</i>
  <i type="int" name="NELMIN">     6</i>
  <i name="EDIFF">      0.00000000</i>
  <i type="int" name="NSW">     0</i>
  <i type="int" name="ISIF">    -1</i>
  <i name="ENCUT">    600.00000000</i>
  <i type="logical" name="LREAL"> F  </i>
  <i type="int" name="ISMEAR">     0</i>
  <i name="SIGMA">      0.02000000</i>
  <i type="logical" name="LASPH"> T  </i>
  <i type="string" name="METAGGA">R2SCAN</i>
  <i type="logical" name="LMIXTAU"> F  </i>
 </incar>
 <primitive_cell>
  <structure name="primitive_cell" >
   <crystal>
    <varray name="basis" >
     <v>       1.56679400      -2.71376700       0.00000000 </v>
     <v>       1.56679400       2.71376700       0.00000000 </v>
     <v>       0.00000000       0.00000000       3.52334100 </v>
    </varray>
    <i name="volume">     29.96188481 </i>
    <varray name="rec_basis" >
     <v>       0.31912300      -0.18424574       0.00000000 </v>
     <v>       0.31912300       0.18424574       0.00000000 </v>
     <v>       0.00000000       0.00000000       0.28382152 </v>
    </varray>
   </crystal>
   <varray name="positions" >
    <v>       0.33333300       0.66666700       0.50000000 </v>
    <v>       0.00000000       0.00000000       0.00000000 </v>
   </varray>
  </structure>
  <varray name="primitive_index" >
   <v type="int" >        1 </v>
   <v type="int" >        2 </v>
  </varray>
 </primitive_cell>
 <kpoints>
  <generation param="Gamma">
   <v type="int" name="divisions">      13       13       10 </v>
   <v name="usershift">      0.00000000       0.00000000       0.00000000 </v>
   <v name="genvec1">      0.07692308       0.00000000       0.00000000 </v>
   <v name="genvec2">      0.00000000       0.07692308       0.00000000 </v>
   <v name="genvec3">      0.00000000       0.00000000       0.10000000 </v>
   <v name="shift">      0.00000000       0.00000000       0.00000000 </v>
  </generation>
  <varray name="kpointlist" >
   <v>       0.00000000       0.00000000       0.00000000 </v>
   <v>       0.07692308       0.00000000       0.00000000 </v>
   <v>       0.15384615       0.00000000       0.00000000 </v>
   <v>       0.23076923       0.00000000       0.00000000 </v>
   <v>       0.30769231       0.00000000       0.00000000 </v>
   <v>       0.38461538       0.00000000       0.00000000 </v>
   <v>       0.46153846       0.00000000       0.00000000 </v>
   <v>       0.07692308       0.07692308       0.00000000 </v>
   <v>       0.15384615       0.07692308       0.00000000 </v>
   <v>       0.23076923       0.07692308       0.00000000 </v>
   <v>       0.30769231       0.07692308       0.00000000 </v>
   <v>       0.38461538       0.07692308       0.00000000 </v>
   <v>       0.46153846       0.07692308       0.00000000 </v>
   <v>       0.15384615       0.15384615       0.00000000 </v>
   <v>       0.23076923       0.15384615       0.00000000 </v>
   <v>       0.30769231       0.15384615       0.00000000 </v>
   <v>       0.38461538       0.15384615       0.00000000 </v>
   <v>       0.23076923       0.23076923       0.00000000 </v>
   <v>       0.30769231       0.23076923       0.00000000 </v>
   <v>       0.38461538       0.23076923       0.00000000 </v>
   <v>       0.30769231       0.30769231       0.00000000 </v>
   <v>       0.00000000       0.00000000       0.10000000 </v>
   <v>       0.07692308       0.00000000       0.10000000 </v>
   <v>       0.15384615       0.00000000       0.10000000 </v>
   <v>       0.23076923       0.00000000       0.10000000 </v>
   <v>       0.30769231       0.00000000       0.10000000 </v>
   <v>       0.38461538       0.00000000       0.10000000 </v>
   <v>       0.46153846       0.00000000       0.10000000 </v>
   <v>       0.07692308       0.07692308       0.10000000 </v>
   <v>       0.15384615       0.07692308       0.10000000 </v>
   <v>       0.23076923       0.07692308       0.10000000 </v>
   <v>       0.30769231       0.07692308       0.10000000 </v>
   <v>       0.38461538       0.07692308       0.10000000 </v>
   <v>       0.46153846       0.07692308       0.10000000 </v>
   <v>       0.15384615       0.15384615       0.10000000 </v>
   <v>       0.23076923       0.15384615       0.10000000 </v>
   <v>       0.30769231       0.15384615       0.10000000 </v>
   <v>       0.38461538       0.15384615       0.10000000 </v>
   <v>       0.23076923       0.23076923       0.10000000 </v>
   <v>       0.30769231       0.23076923       0.10000000 </v>
   <v>       0.38461538       0.23076923       0.10000000 </v>
   <v>       0.30769231       0.30769231       0.10000000 </v>
   <v>       0.00000000       0.00000000       0.20000000 </v>
   <v>       0.07692308       0.00000000       0.20000000 </v>
   <v>       0.15384615       0.00000000       0.20000000 </v>
   <v>       0.23076923       0.00000000       0.20000000 </v>
   <v>       0.30769231       0.00000000       0.20000000 </v>
   <v>       0.38461538       0.00000000       0.20000000 </v>
   <v>       0.46153846       0.00000000       0.20000000 </v>
   <v>       0.07692308       0.07692308       0.20000000 </v>
   <v>       0.15384615       0.07692308       0.20000000 </v>
   <v>       0.23076923       0.07692308       0.20000000 </v>
   <v>       0.30769231       0.07692308       0.20000000 </v>
   <v>       0.38461538       0.07692308       0.20000000 </v>
   <v>       0.46153846       0.07692308       0.20000000 </v>
   <v>       0.15384615       0.15384615       0.20000000 </v>
   <v>       0.23076923       0.15384615       0.20000000 </v>
   <v>       0.30769231       0.15384615       0.20000000 </v>
   <v>       0.38461538       0.15384615       0.20000000 </v>
   <v>       0.23076923       0.23076923       0.20000000 </v>
   <v>       0.30769231       0.23076923       0.20000000 </v>
   <v>       0.38461538       0.23076923       0.20000000 </v>
   <v>       0.30769231       0.30769231       0.20000000 </v>
   <v>       0.00000000       0.00000000       0.30000000 </v>
   <v>       0.07692308       0.00000000       0.30000000 </v>
   <v>       0.15384615       0.00000000       0.30000000 </v>
   <v>       0.23076923       0.00000000       0.30000000 </v>
   <v>       0.30769231       0.00000000       0.30000000 </v>
   <v>       0.38461538       0.00000000       0.30000000 </v>
   <v>       0.46153846       0.00000000       0.30000000 </v>
   <v>       0.07692308       0.07692308       0.30000000 </v>
   <v>       0.15384615       0.07692308       0.30000000 </v>
   <v>       0.23076923       0.07692308       0.30000000 </v>
   <v>       0.30769231       0.07692308       0.30000000 </v>
   <v>       0.38461538       0.07692308       0.30000000 </v>
   <v>       0.46153846       0.07692308       0.30000000 </v>
   <v>       0.15384615       0.15384615       0.30000000 </v>
   <v>       0.23076923       0.15384615       0.30000000 </v>
   <v>       0.30769231       0.15384615       0.30000000 </v>
   <v>       0.38461538       0.15384615       0.30000000 </v>
   <v>       0.23076923       0.23076923       0.30000000 </v>
   <v>       0.30769231       0.23076923       0.30000000 </v>
   <v>       0.38461538       0.23076923       0.30000000 </v>
   <v>       0.30769231       0.30769231       0.30000000 </v>
   <v>       0.00000000       0.00000000       0.40000000 </v>
   <v>       0.07692308       0.00000000       0.40000000 </v>
   <v>       0.15384615       0.00000000       0.40000000 </v>
   <v>       0.23076923       0.00000000       0.40000000 </v>
   <v>       0.30769231       0.00000000       0.40000000 </v>
   <v>       0.38461538       0.00000000       0.40000000 </v>
   <v>       0.46153846       0.00000000       0.40000000 </v>
   <v>       0.07692308       0.07692308       0.40000000 </v>
   <v>       0.15384615       0.07692308       0.40000000 </v>
   <v>       0.23076923       0.07692308       0.40000000 </v>
   <v>       0.30769231       0.07692308       0.40000000 </v>
   <v>       0.38461538       0.07692308       0.40000000 </v>
   <v>       0.46153846       0.07692308       0.40000000 </v>
   <v>       0.15384615       0.15384615       0.40000000 </v>
   <v>       0.23076923       0.15384615       0.40000000 </v>
   <v>       0.30769231       0.15384615       0.40000000 </v>
   <v>       0.38461538       0.15384615       0.40000000 </v>
   <v>       0.23076923       0.23076923       0.40000000 </v>
   <v>       0.30769231       0.23076923       0.40000000 </v>
   <v>       0.38461538       0.23076923       0.40000000 </v>
   <v>       0.30769231       0.30769231       0.40000000 </v>
   <v>       0.00000000       0.00000000       0.50000000 </v>
   <v>       0.07692308       0.00000000       0.50000000 </v>
   <v>       0.15384615       0.00000000       0.50000000 </v>
   <v>       0.23076923       0.00000000       0.50000000 </v>
   <v>       0.30769231       0.00000000       0.50000000 </v>
   <v>       0.38461538       0.00000000       0.50000000 </v>
   <v>       0.46153846       0.00000000       0.50000000 </v>
   <v>       0.07692308       0.07692308       0.50000000 </v>
   <v>       0.15384615       0.07692308       0.50000000 </v>
   <v>       0.23076923       0.07692308       0.50000000 </v>
   <v>       0.30769231       0.07692308       0.50000000 </v>
   <v>       0.38461538       0.07692308       0.50000000 </v>
   <v>       0.46153846       0.07692308       0.50000000 </v>
   <v>       0.15384615       0.15384615       0.50000000 </v>
   <v>       0.23076923       0.15384615       0.50000000 </v>
   <v>       0.30769231       0.15384615       0.50000000 </v>
   <v>       0.38461538       0.15384615       0.50000000 </v>
   <v>       0.23076923       0.23076923       0.50000000 </v>
   <v>       0.30769231       0.23076923       0.50000000 </v>
   <v>       0.38461538       0.23076923       0.50000000 </v>
   <v>       0.30769231       0.30769231       0.50000000 </v>
  </varray>
  <varray name="weights" >
   <v>       0.00059172 </v>
   <v>       0.00355030 </v>
   <v>       0.00355030 </v>
   <v>       0.00355030 </v>
   <v>       0.00355030 </v>
   <v>       0.00355030 </v>
   <v>       0.00355030 </v>
   <v>       0.00355030 </v>
   <v>       0.00710059 </v>
   <v>       0.00710059 </v>
   <v>       0.00710059 </v>
   <v>       0.00710059 </v>
   <v>       0.00355030 </v>
   <v>       0.00355030 </v>
   <v>       0.00710059 </v>
   <v>       0.00710059 </v>
   <v>       0.00710059 </v>
   <v>       0.00355030 </v>
   <v>       0.00710059 </v>
   <v>       0.00355030 </v>
   <v>       0.00355030 </v>
   <v>       0.00118343 </v>
   <v>       0.00710059 </v>
   <v>       0.00710059 </v>
   <v>       0.00710059 </v>
   <v>       0.00710059 </v>
   <v>       0.00710059 </v>
   <v>       0.00710059 </v>
   <v>       0.00710059 </v>
   <v>       0.01420118 </v>
   <v>       0.01420118 </v>
   <v>       0.01420118 </v>
   <v>       0.01420118 </v>
   <v>       0.00710059 </v>
   <v>       0.00710059 </v>
   <v>       0.01420118 </v>
   <v>       0.01420118 </v>
   <v>       0.01420118 </v>
   <v>       0.00710059 </v>
   <v>       0.01420118 </v>
   <v>       0.00710059 </v>
   <v>       0.00710059 </v>
   <v>       0.00118343 </v>
   <v>       0.00710059 </v>
   <v>       0.00710059 </v>
   <v>       0.00710059 </v>
   <v>       0.00710059 </v>
   <v>       0.00710059 </v>
   <v>       0.00710059 </v>
   <v>       0.00710059 </v>
   <v>       0.01420118 </v>
   <v>       0.01420118 </v>
   <v>       0.01420118 </v>
   <v>       0.01420118 </v>
   <v>       0.00710059 </v>
   <v>       0.00710059 </v>
   <v>       0.01420118 </v>
   <v>       0.01420118 </v>
   <v>       0.01420118 </v>
   <v>       0.00710059 </v>
   <v>       0.01420118 </v>
   <v>       0.00710059 </v>
   <v>       0.00710059 </v>
   <v>       0.00118343 </v>
   <v>       0.00710059 </v>
   <v>       0.00710059 </v>
   <v>       0.00710059 </v>
   <v>       0.00710059 </v>
   <v>       0.00710059 </v>
   <v>       0.00710059 </v>
   <v>       0.00710059 </v>
   <v>       0.01420118 </v>
   <v>       0.01420118 </v>
   <v>       0.01420118 </v>
   <v>       0.01420118 </v>
   <v>       0.00710059 </v>
   <v>       0.00710059 </v>
   <v>       0.01420118 </v>
   <v>       0.01420118 </v>
   <v>       0.01420118 </v>
   <v>       0.00710059 </v>
   <v>       0.01420118 </v>
   <v>       0.00710059 </v>
   <v>       0.00710059 </v>
   <v>       0.00118343 </v>
   <v>       0.00710059 </v>
   <v>       0.00710059 </v>
   <v>       0.00710059 </v>
   <v>       0.00710059 </v>
   <v>       0.00710059 </v>
   <v>       0.00710059 </v>
   <v>       0.00710059 </v>
   <v>       0.01420118 </v>
   <v>       0.01420118 </v>
   <v>       0.01420118 </v>
   <v>       0.01420118 </v>
   <v>       0.00710059 </v>
   <v>       0.00710059 </v>
   <v>       0.01420118 </v>
   <v>       0.01420118 </v>
   <v>       0.01420118 </v>
   <v>       0.00710059 </v>
   <v>       0.01420118 </v>
   <v>       0.00710059 </v>
   <v>       0.00710059 </v>
   <v>       0.00059172 </v>
   <v>       0.00355030 </v>
   <v>       0.00355030 </v>
   <v>       0.00355030 </v>
   <v>       0.00355030 </v>
   <v>       0.00355030 </v>
   <v>       0.00355030 </v>
   <v>       0.00355030 </v>
   <v>       0.00710059 </v>
   <v>       0.00710059 </v>
   <v>       0.00710059 </v>
   <v>       0.00710059 </v>
   <v>       0.00355030 </v>
   <v>       0.00355030 </v>
   <v>       0.00710059 </v>
   <v>       0.00710059 </v>
   <v>       0.00710059 </v>
   <v>       0.00355030 </v>
   <v>       0.00710059 </v>
   <v>       0.00355030 </v>
   <v>       0.00355030 </v>
  </varray>
 </kpoints>
 <parameters>
  <separator name="general" >
   <i type="string" name="SYSTEM">routine with relax: pwdword</i>
   <i type="logical" name="LCOMPAT"> F  </i>
  </separator>
  <separator name="electronic" >
   <i type="string" name="PREC">acc</i>
   <i name="ENMAX">    600.00000000</i>
   <i name="ENAUG">    446.01400000</i>
   <i name="EDIFF">      0.00000000</i>
   <i type="int" name="IALGO">    58</i>
   <i type="int" name="IWAVPR">    10</i>
   <i type="int" name="NBANDS">    18</i>
   <i type="int" name="NBANDSLOW">    -1</i>
   <i type="int" name="NBANDSHIGH">    -1</i>
   <i name="NELECT">     18.00000000</i>
   <i type="int" name="TURBO">     0</i>
   <i type="int" name="IRESTART">     0</i>
   <i type="int" name="NREBOOT">     0</i>
   <i type="int" name="NMIN">     0</i>
   <i name="EREF">      0.00000000</i>
   <separator name="electronic smearing" >
    <i type="int" name="ISMEAR">     0</i>
    <i name="SIGMA">      0.02000000</i>
    <i name="KSPACING">      0.50000000</i>
    <i type="logical" name="KGAMMA"> T  </i>
    <i type="logical" name="KBLOWUP"> T  </i>
   </separator>
   <separator name="electronic projectors" >
    <i type="logical" name="LREAL"> F  </i>
    <v name="ROPT">      0.00000000      0.00000000</v>
    <i type="int" name="LMAXPAW">  -100</i>
    <i type="int" name="LMAXMIX">     2</i>
    <i type="logical" name="NLSPLINE"> F  </i>
   </separator>
   <separator name="electronic startup" >
    <i type="int" name="ISTART">     0</i>
    <i type="int" name="ICHARG">     2</i>
    <i type="int" name="INIWAV">     1</i>
   </separator>
   <separator name="electronic spin" >
    <i type="int" name="ISPIN">     1</i>
    <i type="logical" name="LNONCOLLINEAR"> F  </i>
    <v name="MAGMOM">      1.00000000      1.00000000</v>
    <i name="NUPDOWN">     -1.00000000</i>
    <i type="logical" name="LSORBIT"> F  </i>
    <v name="SAXIS">      0.00000000      0.00000000      1.00000000</v>
    <i type="logical" name="LSPIRAL"> F  </i>
    <v name="QSPIRAL">      0.00000000      0.00000000      0.00000000</v>
    <i type="logical" name="LZEROZ"> F  </i>
   </separator>
   <separator name="electronic exchange-correlation" >
    <i type="logical" name="LASPH"> T  </i>
    <i type="logical" name="LMETAGGA"> F  </i>
   </separator>
   <separator name="electronic convergence" >
    <i type="int" name="NELM">   100</i>
    <i type="int" name="NELMDL">    -5</i>
    <i type="int" name="NELMIN">     6</i>
    <i name="ENINI">    600.00000000</i>
    <separator name="electronic convergence detail" >
     <i type="logical" name="LDIAG"> T  </i>
     <i type="logical" name="LSUBROT"> F  </i>
     <i name="WEIMIN">      0.00000000</i>
     <i name="EBREAK">      0.00000000</i>
     <i name="DEPER">      0.30000000</i>
     <i type="int" name="NRMM">     4</i>
     <i name="TIME">      0.40000000</i>
    </separator>
   </separator>
   <separator name="electronic mixer" >
    <i name="AMIX">      0.40000000</i>
    <i name="BMIX">      1.00000000</i>
    <i name="AMIN">      0.10000000</i>
    <i name="AMIX_MAG">      1.60000000</i>
    <i name="BMIX_MAG">      1.00000000</i>
    <separator name="electronic mixer details" >
     <i type="int" name="IMIX">     4</i>
     <i type="logical" name="MIXFIRST"> F  </i>
     <i type="int" name="MAXMIX">   -45</i>
     <i name="WC">    100.00000000</i>
     <i type="int" name="INIMIX">     1</i>
     <i type="int" name="MIXPRE">     1</i>
     <i type="int" name="MREMOVE">     5</i>
    </separator>
   </separator>
   <separator name="electronic dipolcorrection" >
    <i type="logical" name="LDIPOL"> F  </i>
    <i type="logical" name="LMONO"> F  </i>
    <i type="int" name="IDIPOL">     0</i>
    <i name="EPSILON">      1.00000000</i>
    <v name="DIPOL">   -100.00000000   -100.00000000   -100.00000000</v>
    <i name="EFIELD">      0.00000000</i>
   </separator>
  </separator>
  <separator name="grids" >
   <i type="int" name="NGX">    28</i>
   <i type="int" name="NGY">    28</i>
   <i type="int" name="NGZ">    28</i>
   <i type="int" name="NGXF">    56</i>
   <i type="int" name="NGYF">    56</i>
   <i type="int" name="NGZF">    56</i>
   <i type="logical" name="ADDGRID"> T  </i>
  </separator>
  <separator name="ionic" >
   <i type="int" name="NSW">     0</i>
   <i type="int" name="IBRION">    -1</i>
   <i type="int" name="MDALGO">     0</i>
   <i type="int" name="ISIF">    -1</i>
   <i name="PSTRESS">      0.00000000</i>
   <i name="EDIFFG">      0.00000001</i>
   <i type="int" name="NFREE">     0</i>
   <i name="POTIM">      0.50000000</i>
   <i name="SMASS">     -3.00000000</i>
   <i name="SCALEE">      1.00000000</i>
  </separator>
  <separator name="ionic md" >
   <i name="TEBEG">      0.00010000</i>
   <i name="TEEND">      0.00010000</i>
   <i type="int" name="NBLOCK">     1</i>
   <i type="int" name="KBLOCK">     1</i>
   <i type="int" name="NPACO">   256</i>
   <i name="APACO">     16.00000000</i>
  </separator>
  <separator name="symmetry" >
   <i type="int" name="ISYM">     2</i>
   <i name="SYMPREC">      0.00001000</i>
  </separator>
  <separator name="dos" >
   <i type="int" name="LORBIT">     0</i>
   <v name="RWIGS">     -1.00000000     -1.00000000</v>
   <i type="int" name="NEDOS">   301</i>
   <i name="EMIN">     10.00000000</i>
   <i name="EMAX">    -10.00000000</i>
   <i name="EFERMI">      0.00000000</i>
  </separator>
  <separator name="writing" >
   <i type="int" name="NWRITE">     2</i>
   <i type="logical" name="LWAVE"> T  </i>
   <i type="logical" name="LDOWNSAMPLE"> F  </i>
   <i type="logical" name="LCHARG"> T  </i>
   <i type="logical" name="LPARD"> F  </i>
   <i type="logical" name="LVTOT"> F  </i>
   <i type="logical" name="LVHAR"> F  </i>
   <i type="logical" name="LELF"> F  </i>
   <i type="logical" name="LOPTICS"> F  </i>
   <v name="STM">      0.00000000      0.00000000      0.00000000      0.00000000      0.00000000      0.00000000      0.00000000</v>
  </separator>
  <separator name="performance" >
   <i type="int" name="NPAR">     6</i>
   <i type="int" name="NSIM">     4</i>
   <i type="int" name="NBLK">    -1</i>
   <i type="logical" name="LPLANE"> T  </i>
   <i type="logical" name="LSCALAPACK"> T  </i>
   <i type="logical" name="LSCAAWARE"> F  </i>
   <i type="logical" name="LSCALU"> F  </i>
   <i type="logical" name="LASYNC"> F  </i>
   <i type="logical" name="LORBITALREAL"> F  </i>
  </separator>
  <separator name="miscellaneous" >
   <i type="int" name="IDIOT">     3</i>
   <i type="int" name="PHON_NSTRUCT">    -1</i>
   <i type="logical" name="LMUSIC"> F  </i>
   <v name="POMASS">     95.94000000     28.08500000</v>
   <v name="DARWINR">      0.00000000      0.00000000</v>
   <v name="DARWINV">      1.00000000      1.00000000</v>
   <i type="logical" name="LCORR"> T  </i>
  </separator>
  <i type="logical" name="GGA_COMPAT"> T  </i>
  <i type="logical" name="LBERRY"> F  </i>
  <i type="int" name="ICORELEVEL">     0</i>
  <i type="logical" name="LDAU"> F  </i>
  <i type="int" name="I_CONSTRAINED_M">     0</i>
  <separator name="electronic exchange-correlation" >
   <i type="string" name="GGA">--</i>
   <i type="int" name="VOSKOWN">     0</i>
   <i type="logical" name="LHFCALC"> F  </i>
   <i type="string" name="PRECFOCK"></i>
   <i type="logical" name="LSYMGRAD"> F  </i>
   <i type="logical" name="LHFONE"> F  </i>
   <i type="logical" name="LRHFCALC"> F  </i>
   <i type="logical" name="LTHOMAS"> F  </i>
   <i type="logical" name="LMODELHF"> F  </i>
   <i type="logical" name="LFOCKACE"> F  </i>
   <i name="ENCUT4O">     -1.00000000</i>
   <i type="int" name="EXXOEP">     0</i>
   <i type="int" name="FOURORBIT">     0</i>
   <i name="AEXX">      0.00000000</i>
   <i name="HFALPHA">      0.00000000</i>
   <i name="MCALPHA">      0.00000000</i>
   <i name="ALDAX">      1.00000000</i>
   <i name="AGGAX">      1.00000000</i>
   <i name="ALDAC">      1.00000000</i>
   <i name="AGGAC">      1.00000000</i>
   <i type="int" name="NKREDX">     1</i>
   <i type="int" name="NKREDY">     1</i>
   <i type="int" name="NKREDZ">     1</i>
   <i type="logical" name="SHIFTRED"> F  </i>
   <i type="logical" name="ODDONLY"> F  </i>
   <i type="logical" name="EVENONLY"> F  </i>
   <i type="int" name="LMAXFOCK">     0</i>
   <i type="int" name="NMAXFOCKAE">     0</i>
   <i type="logical" name="LFOCKAEDFT"> F  </i>
   <i name="HFSCREEN">      0.00000000</i>
   <i name="HFSCREENC">      0.00000000</i>
   <i type="int" name="NBANDSGWLOW">     0</i>
  </separator>
  <separator name="vdW DFT" >
   <i type="logical" name="LUSE_VDW"> F  </i>
   <i name="Zab_VDW">     -0.84910000</i>
   <i name="PARAM1">      0.12340000</i>
   <i name="PARAM2">      1.00000000</i>
   <i name="PARAM3">      0.00000000</i>
  </separator>
  <separator name="model GW" >
   <i type="int" name="MODEL_GW">     0</i>
   <i name="MODEL_EPS0">      8.98856544</i>
   <i name="MODEL_ALPHA">      1.00000000</i>
  </separator>
  <separator name="linear response parameters" >
   <i type="logical" name="LEPSILON"> F  </i>
   <i type="logical" name="LRPA"> F  </i>
   <i type="logical" name="LNABLA"> F  </i>
   <i type="logical" name="LVEL"> F  </i>
   <i type="int" name="KINTER">     0</i>
   <i name="CSHIFT">      0.10000000</i>
   <i name="OMEGAMAX">     -1.00000000</i>
   <i name="DEG_THRESHOLD">      0.00200000</i>
   <i name="RTIME">     -0.10000000</i>
   <i name="WPLASMAI">      0.00000000</i>
   <v name="DFIELD">      0.00000000      0.00000000      0.00000000</v>
   <v name="WPLASMA">      0.00000000      0.00000000      0.00000000      0.00000000      0.00000000      0.00000000      0.00000000      0.00000000      0.00000000</v>
  </separator>
  <separator name="orbital magnetization" >
   <i type="logical" name="NUCIND"> F  </i>
   <v name="MAGPOS">      0.00000000      0.00000000      0.00000000</v>
   <i type="logical" name="LNICSALL"> T  </i>
   <i type="logical" name="ORBITALMAG"> F  </i>
   <i type="logical" name="LMAGBLOCH"> F  </i>
   <i type="logical" name="LCHIMAG"> F  </i>
   <i type="logical" name="LGAUGE"> T  </i>
   <i type="int" name="MAGATOM">     0</i>
   <v name="MAGDIPOL">      0.00000000      0.00000000      0.00000000</v>
   <v name="AVECCONST">      0.00000000      0.00000000      0.00000000</v>
  </separator>
  <separator name="response functions" >
   <i type="logical" name="LFINITE_TEMPERATURE"> F  </i>
   <i type="logical" name="LADDER"> F  </i>
   <i type="logical" name="LRPAFORCE"> F  </i>
   <i type="logical" name="LFXC"> F  </i>
   <i type="logical" name="LHARTREE"> T  </i>
   <i type="int" name="IBSE">     0</i>
   <v type="int" name="KPOINT">    -1     0     0     0</v>
   <i type="logical" name="LTCTC"> F  </i>
   <i type="logical" name="LTCTE"> F  </i>
   <i type="logical" name="LTETE"> F  </i>
   <i type="logical" name="LTRIPLET"> F  </i>
   <i type="logical" name="LFXCEPS"> F  </i>
   <i type="logical" name="LFXHEG"> F  </i>
   <i type="int" name="NATURALO">     2</i>
   <i type="logical" name="LHOLEGF"> F  </i>
   <i type="logical" name="L2ORDER"> F  </i>
   <i type="logical" name="LDMP1"> F  </i>
   <i type="logical" name="LMP2LT"> F  </i>
   <i type="logical" name="LSMP2LT"> F  </i>
   <i type="logical" name="LGWLF"> F  </i>
   <i name="ENCUTGW">     -2.00000000</i>
   <i name="ENCUTGWSOFT">     -2.00000000</i>
   <i name="ENCUTLF">     -1.00000000</i>
   <i type="logical" name="LESF_SPLINES"> F  </i>
   <i type="int" name="LMAXMP2">    -1</i>
   <i name="SCISSOR">      0.00000000</i>
   <i type="int" name="NOMEGA">     0</i>
   <i type="int" name="NOMEGAR">     0</i>
   <i type="int" name="NBANDSGW">    -1</i>
   <i type="int" name="NBANDSO">    -1</i>
   <i type="int" name="NBANDSV">    -1</i>
   <i type="int" name="NELM">   100</i>
   <i type="int" name="NELMHF">     1</i>
   <i type="int" name="DIM">     3</i>
   <i type="int" name="IESPILON">     4</i>
   <i type="int" name="ANTIRES">     0</i>
   <i name="OMEGAMAX">    -30.00000000</i>
   <i name="OMEGAMIN">    -30.00000000</i>
   <i name="OMEGATL">   -200.00000000</i>
   <i type="int" name="OMEGAGRID">     0</i>
   <i name="CSHIFT">     -0.10000000</i>
   <i type="logical" name="LSELFENERGY"> F  </i>
   <i type="logical" name="LSPECTRAL"> F  </i>
   <i type="logical" name="LSPECTRALGW"> F  </i>
   <i type="logical" name="LSINGLES"> F  </i>
   <i type="logical" name="LFERMIGW"> F  </i>
   <i type="logical" name="ODDONLYGW"> F  </i>
   <i type="logical" name="EVENONLYGW"> F  </i>
   <i type="int" name="NKREDLFX">     1</i>
   <i type="int" name="NKREDLFY">     1</i>
   <i type="int" name="NKREDLFZ">     1</i>
   <i type="int" name="MAXMEM">  2800</i>
   <i type="int" name="TELESCOPE">     0</i>
   <i type="int" name="NTAUPAR">    -1</i>
   <i type="int" name="NOMEGAPAR">    -1</i>
   <i name="DAMP_NEWTON">      0.80000001</i>
   <i name="LAMBDA">      1.00000000</i>
  </separator>
  <separator name="External order field" >
   <i name="OFIELD_KAPPA">      0.00000000</i>
   <v name="OFIELD_K">      0.00000000      0.00000000      0.00000000</v>
   <i name="OFIELD_Q6_NEAR">      0.00000000</i>
   <i name="OFIELD_Q6_FAR">      0.00000000</i>
   <i name="OFIELD_A">      0.00000000</i>
  </separator>
 </parameters>
 <atominfo>
  <atoms>       2 </atoms>
  <types>       2 </types>
  <array name="atoms" >
   <dimension dim="1">ion</dimension>
   <field type="string">element</field>
   <field type="int">atomtype</field>
   <set>
    <rc><c>Mo</c><c>   1</c></rc>
    <rc><c>Si</c><c>   2</c></rc>
   </set>
  </array>
  <array name="atomtypes" >
   <dimension dim="1">type</dimension>
   <field type="int">atomspertype</field>
   <field type="string">element</field>
   <field>mass</field>
   <field>valence</field>
   <field type="string">pseudopotential</field>
   <set>
    <rc><c>   1</c><c>Mo</c><c>     95.94000000</c><c>     14.00000000</c><c>  PAW_PBE Mo_sv 02Feb2006               </c></rc>
    <rc><c>   1</c><c>Si</c><c>     28.08500000</c><c>      4.00000000</c><c>  PAW_PBE Si 05Jan2001                  </c></rc>
   </set>
  </array>
 </atominfo>
 <structure name="initialpos" >
  <crystal>
   <varray name="basis" >
    <v>       1.56679400      -2.71376700       0.00000000 </v>
    <v>       1.56679400       2.71376700       0.00000000 </v>
    <v>       0.00000000       0.00000000       3.52334100 </v>
   </varray>
   <i name="volume">     29.96188481 </i>
   <varray name="rec_basis" >
    <v>       0.31912300      -0.18424574       0.00000000 </v>
    <v>       0.31912300       0.18424574       0.00000000 </v>
    <v>       0.00000000       0.00000000       0.28382152 </v>
   </varray>
  </crystal>
  <varray name="positions" >
   <v>       0.33333300       0.66666700       0.50000000 </v>
   <v>       0.00000000       0.00000000       0.00000000 </v>
  </varray>
 </structure>
 <calculation>
  <scstep>
   <time name="total">    1.30    1.31</time>
   <energy>
    <i name="alphaZ">     84.13630332 </i>
    <i name="ewald">  -1588.22356896 </i>
    <i name="hartreedc">   -421.31187684 </i>
    <i name="XCdc">     72.11611330 </i>
    <i name="pawpsdc">   1569.42148506 </i>
    <i name="pawaedc">  -1555.19205562 </i>
    <i name="eentropy">     -0.00029546 </i>
    <i name="bandstr">    -25.22580788 </i>
    <i name="atom">   1965.34908032 </i>
    <i name="e_fr_energy">    101.06937723 </i>
    <i name="e_wo_entrp">    101.06967270 </i>
    <i name="e_0_energy">    101.06952496 </i>
   </energy>
  </scstep>
  <scstep>
   <time name="total">    0.87    0.87</time>
   <energy>
    <i name="e_fr_energy">    -40.29269168 </i>
    <i name="e_wo_entrp">    -40.29265466 </i>
    <i name="e_0_energy">    -40.29267317 </i>
   </energy>
  </scstep>
  <scstep>
   <time name="total">    0.85    0.86</time>
   <energy>
    <i name="e_fr_energy">    -42.33058452 </i>
    <i name="e_wo_entrp">    -42.33047219 </i>
    <i name="e_0_energy">    -42.33052835 </i>
   </energy>
  </scstep>
  <scstep>
   <time name="total">    0.80    0.80</time>
   <energy>
    <i name="e_fr_energy">    -42.33805592 </i>
    <i name="e_wo_entrp">    -42.33795071 </i>
    <i name="e_0_energy">    -42.33800332 </i>
   </energy>
  </scstep>
  <scstep>
   <time name="total">    1.00    1.01</time>
   <energy>
    <i name="e_fr_energy">    -42.33812041 </i>
    <i name="e_wo_entrp">    -42.33801525 </i>
    <i name="e_0_energy">    -42.33806783 </i>
   </energy>
  </scstep>
  <scstep>
   <time name="total">    2.14    2.15</time>
   <energy>
    <i name="e_fr_energy">    -33.19220110 </i>
    <i name="e_wo_entrp">    -33.19207924 </i>
    <i name="e_0_energy">    -33.19214017 </i>
   </energy>
  </scstep>
  <scstep>
   <time name="total">    2.12    2.14</time>
   <energy>
    <i name="e_fr_energy">    -35.02226505 </i>
    <i name="e_wo_entrp">    -35.02211428 </i>
    <i name="e_0_energy">    -35.02218967 </i>
   </energy>
  </scstep>
  <scstep>
   <time name="total">    2.11    2.16</time>
   <energy>
    <i name="e_fr_energy">    -35.29181311 </i>
    <i name="e_wo_entrp">    -35.29168202 </i>
    <i name="e_0_energy">    -35.29174756 </i>
   </energy>
  </scstep>
  <scstep>
   <time name="total">    2.11    2.13</time>
   <energy>
    <i name="e_fr_energy">    -35.34379977 </i>
    <i name="e_wo_entrp">    -35.34365984 </i>
    <i name="e_0_energy">    -35.34372980 </i>
   </energy>
  </scstep>
  <scstep>
   <time name="total">    2.11    2.13</time>
   <energy>
    <i name="e_fr_energy">    -35.35712700 </i>
    <i name="e_wo_entrp">    -35.35696402 </i>
    <i name="e_0_energy">    -35.35704551 </i>
   </energy>
  </scstep>
  <scstep>
   <time name="total">    2.27    2.29</time>
   <energy>
    <i name="e_fr_energy">    -35.35977836 </i>
    <i name="e_wo_entrp">    -35.35960334 </i>
    <i name="e_0_energy">    -35.35969085 </i>
   </energy>
  </scstep>
  <scstep>
   <time name="total">    2.14    2.16</time>
   <energy>
    <i name="e_fr_energy">    -35.36074319 </i>
    <i name="e_wo_entrp">    -35.36056447 </i>
    <i name="e_0_energy">    -35.36065383 </i>
   </energy>
  </scstep>
  <scstep>
   <time name="total">    2.18    2.20</time>
   <energy>
    <i name="e_fr_energy">    -35.36098482 </i>
    <i name="e_wo_entrp">    -35.36080435 </i>
    <i name="e_0_energy">    -35.36089459 </i>
   </energy>
  </scstep>
  <scstep>
   <time name="total">    2.14    2.16</time>
   <energy>
    <i name="e_fr_energy">    -35.36104584 </i>
    <i name="e_wo_entrp">    -35.36086462 </i>
    <i name="e_0_energy">    -35.36095523 </i>
   </energy>
  </scstep>
  <scstep>
   <time name="total">    2.19    2.20</time>
   <energy>
    <i name="e_fr_energy">    -35.36105687 </i>
    <i name="e_wo_entrp">    -35.36087524 </i>
    <i name="e_0_energy">    -35.36096605 </i>
   </energy>
  </scstep>
  <scstep>
   <time name="total">    2.12    2.13</time>
   <energy>
    <i name="e_fr_energy">    -35.36105940 </i>
    <i name="e_wo_entrp">    -35.36087752 </i>
    <i name="e_0_energy">    -35.36096846 </i>
   </energy>
  </scstep>
  <scstep>
   <time name="total">    2.12    2.13</time>
   <energy>
    <i name="e_fr_energy">    -35.36106014 </i>
    <i name="e_wo_entrp">    -35.36087815 </i>
    <i name="e_0_energy">    -35.36096915 </i>
   </energy>
  </scstep>
  <scstep>
   <time name="total">    2.14    2.16</time>
   <energy>
    <i name="e_fr_energy">    -35.36106029 </i>
    <i name="e_wo_entrp">    -35.36087826 </i>
    <i name="e_0_energy">    -35.36096928 </i>
   </energy>
  </scstep>
  <scstep>
   <time name="total">    2.14    2.15</time>
   <energy>
    <i name="e_fr_energy">    -35.36106033 </i>
    <i name="e_wo_entrp">    -35.36087827 </i>
    <i name="e_0_energy">    -35.36096930 </i>
   </energy>
  </scstep>
  <scstep>
   <time name="total">    2.13    2.15</time>
   <energy>
    <i name="e_fr_energy">    -35.36106034 </i>
    <i name="e_wo_entrp">    -35.36087828 </i>
    <i name="e_0_energy">    -35.36096931 </i>
   </energy>
  </scstep>
  <scstep>
   <time name="total">    2.13    2.15</time>
   <energy>
    <i name="e_fr_energy">    -35.36106034 </i>
    <i name="e_wo_entrp">    -35.36087829 </i>
    <i name="e_0_energy">    -35.36096931 </i>
   </energy>
  </scstep>
  <scstep>
   <time name="total">    2.35    2.37</time>
   <energy>
    <i name="alphaZ">     84.13630332 </i>
    <i name="ewald">  -1588.22356896 </i>
    <i name="hartreedc">   -395.17163399 </i>
    <i name="XCdc">     73.65858779 </i>
    <i name="pawpsdc">   2400.79555544 </i>
    <i name="pawaedc">  -2389.72739191 </i>
    <i name="eentropy">     -0.00018205 </i>
    <i name="bandstr">   -186.17781028 </i>
    <i name="atom">   1965.34908032 </i>
    <i name="e_fr_energy">    -35.36106034 </i>
    <i name="e_wo_entrp">    -35.36087829 </i>
    <i name="e_0_energy">    -35.36096931 </i>
   </energy>
  </scstep>
  <structure>
   <crystal>
    <varray name="basis" >
     <v>       1.56679400      -2.71376700       0.00000000 </v>
     <v>       1.56679400       2.71376700       0.00000000 </v>
     <v>       0.00000000       0.00000000       3.52334100 </v>
    </varray>
    <i name="volume">     29.96188481 </i>
    <varray name="rec_basis" >
     <v>       0.31912300      -0.18424574       0.00000000 </v>
     <v>       0.31912300       0.18424574       0.00000000 </v>
     <v>       0.00000000       0.00000000       0.28382152 </v>
    </varray>
   </crystal>
   <varray name="positions" >
    <v>       0.33333300       0.66666700       0.50000000 </v>
    <v>       0.00000000       0.00000000       0.00000000 </v>
   </varray>
  </structure>
  <varray name="forces" >
   <v>       0.00000000       0.00000000       0.00000000 </v>
   <v>       0.00000000       0.00000000       0.00000000 </v>
  </varray>
  <varray name="stress" >
   <v>       0.00000000       0.00000000       0.00000000 </v>
   <v>       0.00000000       0.00000000       0.00000000 </v>
   <v>       0.00000000       0.00000000       0.00000000 </v>
  </varray>
  <energy>
   <i name="e_fr_energy">    -35.36106034 </i>
   <i name="e_wo_entrp">    -35.36087829 </i>
   <i name="e_0_energy">    -35.36096931 </i>
  </energy>
  <time name="totalsc">   42.26   42.63</time>
  <eigenvalues>
   <array>
    <dimension dim="1">band</dimension>
    <dimension dim="2">kpoint</dimension>
    <dimension dim="3">spin</dimension>
    <field>eigene</field>
    <field>occ</field>
    <set>
     <set comment="spin 1">
      <set comment="kpoint 1">
       <r>  -51.7958    1.0000 </r>
       <r>  -25.2228    1.0000 </r>
       <r>  -24.9610    1.0000 </r>
       <r>  -24.9610    1.0000 </r>
       <r>   -1.0104    1.0000 </r>
       <r>    7.1948    1.0000 </r>
       <r>    9.3658    1.0000 </r>
       <r>    9.3658    1.0000 </r>
       <r>   11.1337    0.0000 </r>
       <r>   11.6564    0.0000 </r>
       <r>   11.6564    0.0000 </r>
       <r>   18.2883    0.0000 </r>
       <r>   18.2884    0.0000 </r>
       <r>   19.5456    0.0000 </r>
       <r>   21.0825    0.0000 </r>
       <r>   21.7675    0.0000 </r>
       <r>   21.7675    0.0000 </r>
       <r>   26.0578    0.0000 </r>
      </set>
      <set comment="kpoint 2">
       <r>  -51.7929    1.0000 </r>
       <r>  -25.2189    1.0000 </r>
       <r>  -24.9874    1.0000 </r>
       <r>  -24.9670    1.0000 </r>
       <r>   -0.8746    1.0000 </r>
       <r>    7.2752    1.0000 </r>
       <r>    9.1696    1.0000 </r>
       <r>    9.4937    1.0000 </r>
       <r>   10.2862    1.0000 </r>
       <r>   11.6021    0.0000 </r>
       <r>   12.6004    0.0000 </r>
       <r>   17.4686    0.0000 </r>
       <r>   17.8657    0.0000 </r>
       <r>   19.6446    0.0000 </r>
       <r>   21.2775    0.0000 </r>
       <r>   22.3670    0.0000 </r>
       <r>   22.3958    0.0000 </r>
       <r>   25.4657    0.0000 </r>
      </set>
      <set comment="kpoint 3">
       <r>  -51.7849    1.0000 </r>
       <r>  -25.2080    1.0000 </r>
       <r>  -25.0599    1.0000 </r>
       <r>  -24.9838    1.0000 </r>
       <r>   -0.4765    1.0000 </r>
       <r>    7.4283    1.0000 </r>
       <r>    8.7259    1.0000 </r>
       <r>    9.3567    1.0000 </r>
       <r>    9.8668    1.0000 </r>
       <r>   11.4560    0.0000 </r>
       <r>   13.7970    0.0000 </r>
       <r>   15.9804    0.0000 </r>
       <r>   17.0355    0.0000 </r>
       <r>   19.7143    0.0000 </r>
       <r>   21.8519    0.0000 </r>
       <r>   23.4436    0.0000 </r>
       <r>   23.7121    0.0000 </r>
       <r>   24.4034    0.0000 </r>
      </set>
      <set comment="kpoint 4">
       <r>  -51.7736    1.0000 </r>
       <r>  -25.1926    1.0000 </r>
       <r>  -25.1610    1.0000 </r>
       <r>  -25.0073    1.0000 </r>
       <r>    0.1572    1.0000 </r>
       <r>    7.2945    1.0000 </r>
       <r>    8.4245    1.0000 </r>
       <r>    8.5787    1.0000 </r>
       <r>   10.4516    1.0000 </r>
       <r>   11.2599    0.0000 </r>
       <r>   14.6970    0.0000 </r>
       <r>   14.9401    0.0000 </r>
       <r>   16.1817    0.0000 </r>
       <r>   19.5138    0.0000 </r>
       <r>   22.3979    0.0000 </r>
       <r>   23.5332    0.0000 </r>
       <r>   24.5770    0.0000 </r>
       <r>   25.3547    0.0000 </r>
      </set>
      <set comment="kpoint 5">
       <r>  -51.7616    1.0000 </r>
       <r>  -25.2668    1.0000 </r>
       <r>  -25.1761    1.0000 </r>
       <r>  -25.0321    1.0000 </r>
       <r>    0.9813    1.0000 </r>
       <r>    6.6986    1.0000 </r>
       <r>    7.9780    1.0000 </r>
       <r>    8.2945    1.0000 </r>
       <r>   11.0632    0.0000 </r>
       <r>   11.1892    0.0000 </r>
       <r>   14.0890    0.0000 </r>
       <r>   15.3975    0.0000 </r>
       <r>   15.8795    0.0000 </r>
       <r>   19.1637    0.0000 </r>
       <r>   22.1936    0.0000 </r>
       <r>   23.1027    0.0000 </r>
       <r>   25.8766    0.0000 </r>
       <r>   26.9799    0.0000 </r>
      </set>
      <set comment="kpoint 6">
       <r>  -51.7516    1.0000 </r>
       <r>  -25.3533    1.0000 </r>
       <r>  -25.1624    1.0000 </r>
       <r>  -25.0527    1.0000 </r>
       <r>    1.9146    1.0000 </r>
       <r>    5.9170    1.0000 </r>
       <r>    7.5696    1.0000 </r>
       <r>    8.0038    1.0000 </r>
       <r>   10.9079    0.0000 </r>
       <r>   11.9879    0.0000 </r>
       <r>   14.3094    0.0000 </r>
       <r>   14.6879    0.0000 </r>
       <r>   16.4832    0.0000 </r>
       <r>   18.7128    0.0000 </r>
       <r>   21.4446    0.0000 </r>
       <r>   23.1503    0.0000 </r>
       <r>   26.7193    0.0000 </r>
       <r>   27.7890    0.0000 </r>
      </set>
      <set comment="kpoint 7">
       <r>  -51.7460    1.0000 </r>
       <r>  -25.4018    1.0000 </r>
       <r>  -25.1547    1.0000 </r>
       <r>  -25.0642    1.0000 </r>
       <r>    2.7312    1.0000 </r>
       <r>    5.1793    1.0000 </r>
       <r>    7.3630    1.0000 </r>
       <r>    7.7490    1.0000 </r>
       <r>   10.8230    0.0000 </r>
       <r>   12.6722    0.0000 </r>
       <r>   14.0984    0.0000 </r>
       <r>   14.8781    0.0000 </r>
       <r>   16.7458    0.0000 </r>
       <r>   18.2229    0.0000 </r>
       <r>   20.8344    0.0000 </r>
       <r>   23.4030    0.0000 </r>
       <r>   26.9756    0.0000 </r>
       <r>   27.6048    0.0000 </r>
      </set>
      <set comment="kpoint 8">
       <r>  -51.7875    1.0000 </r>
       <r>  -25.2115    1.0000 </r>
       <r>  -25.0357    1.0000 </r>
       <r>  -24.9796    1.0000 </r>
       <r>   -0.6076    1.0000 </r>
       <r>    7.3967    1.0000 </r>
       <r>    8.8524    1.0000 </r>
       <r>    9.5983    1.0000 </r>
       <r>    9.7391    1.0000 </r>
       <r>   11.4843    0.0000 </r>
       <r>   13.4900    0.0000 </r>
       <r>   16.5031    0.0000 </r>
       <r>   17.0489    0.0000 </r>
       <r>   19.9652    0.0000 </r>
       <r>   21.5069    0.0000 </r>
       <r>   23.0366    0.0000 </r>
       <r>   23.4536    0.0000 </r>
       <r>   24.6812    0.0000 </r>
      </set>
      <set comment="kpoint 9">
       <r>  -51.7778    1.0000 </r>
       <r>  -25.1983    1.0000 </r>
       <r>  -25.1195    1.0000 </r>
       <r>  -25.0028    1.0000 </r>
       <r>   -0.0909    1.0000 </r>
       <r>    7.4213    1.0000 </r>
       <r>    8.5026    1.0000 </r>
       <r>    8.8547    1.0000 </r>
       <r>   10.1883    1.0000 </r>
       <r>   11.2701    0.0000 </r>
       <r>   14.6095    0.0000 </r>
       <r>   15.2360    0.0000 </r>
       <r>   16.1457    0.0000 </r>
       <r>   20.0323    0.0000 </r>
       <r>   22.1508    0.0000 </r>
       <r>   23.7744    0.0000 </r>
       <r>   23.8586    0.0000 </r>
       <r>   24.9408    0.0000 </r>
      </set>
      <set comment="kpoint 10">
       <r>  -51.7662    1.0000 </r>
       <r>  -25.2191    1.0000 </r>
       <r>  -25.1824    1.0000 </r>
       <r>  -25.0307    1.0000 </r>
       <r>    0.6409    1.0000 </r>
       <r>    7.0073    1.0000 </r>
       <r>    8.2275    1.0000 </r>
       <r>    8.3965    1.0000 </r>
       <r>   10.7757    0.0000 </r>
       <r>   11.0224    0.0000 </r>
       <r>   14.3101    0.0000 </r>
       <r>   15.3970    0.0000 </r>
       <r>   15.6832    0.0000 </r>
       <r>   19.6845    0.0000 </r>
       <r>   22.5770    0.0000 </r>
       <r>   23.1430    0.0000 </r>
       <r>   24.9270    0.0000 </r>
       <r>   26.5096    0.0000 </r>
      </set>
      <set comment="kpoint 11">
       <r>  -51.7552    1.0000 </r>
       <r>  -25.3117    1.0000 </r>
       <r>  -25.1673    1.0000 </r>
       <r>  -25.0570    1.0000 </r>
       <r>    1.5299    1.0000 </r>
       <r>    6.3237    1.0000 </r>
       <r>    7.7625    1.0000 </r>
       <r>    8.1832    1.0000 </r>
       <r>   10.8000    0.0000 </r>
       <r>   11.4668    0.0000 </r>
       <r>   14.0740    0.0000 </r>
       <r>   14.8136    0.0000 </r>
       <r>   16.5183    0.0000 </r>
       <r>   19.1868    0.0000 </r>
       <r>   22.2450    0.0000 </r>
       <r>   22.9590    0.0000 </r>
       <r>   26.0171    0.0000 </r>
       <r>   27.6898    0.0000 </r>
      </set>
      <set comment="kpoint 12">
       <r>  -51.7474    1.0000 </r>
       <r>  -25.3766    1.0000 </r>
       <r>  -25.1566    1.0000 </r>
       <r>  -25.0755    1.0000 </r>
       <r>    2.4508    1.0000 </r>
       <r>    5.5505    1.0000 </r>
       <r>    7.4778    1.0000 </r>
       <r>    7.8467    1.0000 </r>
       <r>   10.6480    0.0000 </r>
       <r>   12.2079    0.0000 </r>
       <r>   13.9588    0.0000 </r>
       <r>   14.7155    0.0000 </r>
       <r>   16.9951    0.0000 </r>
       <r>   18.6834    0.0000 </r>
       <r>   21.6283    0.0000 </r>
       <r>   23.1592    0.0000 </r>
       <r>   26.4028    0.0000 </r>
       <r>   27.9375    0.0000 </r>
      </set>
      <set comment="kpoint 13">
       <r>  -51.7445    1.0000 </r>
       <r>  -25.3999    1.0000 </r>
       <r>  -25.1527    1.0000 </r>
       <r>  -25.0822    1.0000 </r>
       <r>    2.9655    1.0000 </r>
       <r>    5.0848    1.0000 </r>
       <r>    7.3821    1.0000 </r>
       <r>    7.6960    1.0000 </r>
       <r>   10.5943    0.0316 </r>
       <r>   12.6458    0.0000 </r>
       <r>   13.6827    0.0000 </r>
       <r>   14.9022    0.0000 </r>
       <r>   17.1385    0.0000 </r>
       <r>   18.4359    0.0000 </r>
       <r>   21.3343    0.0000 </r>
       <r>   23.3342    0.0000 </r>
       <r>   26.4125    0.0000 </r>
       <r>   27.8374    0.0000 </r>
      </set>
      <set comment="kpoint 14">
       <r>  -51.7678    1.0000 </r>
       <r>  -25.1964    1.0000 </r>
       <r>  -25.1846    1.0000 </r>
       <r>  -25.0358    1.0000 </r>
       <r>    0.5259    1.0000 </r>
       <r>    7.1322    1.0000 </r>
       <r>    8.3482    1.0000 </r>
       <r>    8.4498    1.0000 </r>
       <r>   10.5738    0.3411 </r>
       <r>   10.9408    0.0000 </r>
       <r>   14.5660    0.0000 </r>
       <r>   15.1332    0.0000 </r>
       <r>   15.6744    0.0000 </r>
       <r>   20.1560    0.0000 </r>
       <r>   22.7839    0.0000 </r>
       <r>   23.1389    0.0000 </r>
       <r>   24.3163    0.0000 </r>
       <r>   26.3381    0.0000 </r>
      </set>
      <set comment="kpoint 15">
       <r>  -51.7572    1.0000 </r>
       <r>  -25.2741    1.0000 </r>
       <r>  -25.1700    1.0000 </r>
       <r>  -25.0737    1.0000 </r>
       <r>    1.3318    1.0000 </r>
       <r>    6.6089    1.0000 </r>
       <r>    7.9399    1.0000 </r>
       <r>    8.3449    1.0000 </r>
       <r>   10.5798    0.2019 </r>
       <r>   10.9888    0.0000 </r>
       <r>   13.9675    0.0000 </r>
       <r>   14.7100    0.0000 </r>
       <r>   16.7445    0.0000 </r>
       <r>   19.7599    0.0000 </r>
       <r>   22.7420    0.0000 </r>
       <r>   23.3388    0.0000 </r>
       <r>   25.0873    0.0000 </r>
       <r>   27.2046    0.0000 </r>
      </set>
      <set comment="kpoint 16">
       <r>  -51.7483    1.0000 </r>
       <r>  -25.3368    1.0000 </r>
       <r>  -25.1579    1.0000 </r>
       <r>  -25.1063    1.0000 </r>
       <r>    2.2469    1.0000 </r>
       <r>    5.9771    1.0000 </r>
       <r>    7.6630    1.0000 </r>
       <r>    7.9614    1.0000 </r>
       <r>   10.2833    1.0000 </r>
       <r>   11.5791    0.0000 </r>
       <r>   13.5072    0.0000 </r>
       <r>   14.7018    0.0000 </r>
       <r>   17.5798    0.0000 </r>
       <r>   19.3486    0.0000 </r>
       <r>   22.7145    0.0000 </r>
       <r>   23.2178    0.0000 </r>
       <r>   25.6058    0.0000 </r>
       <r>   27.7461    0.0000 </r>
      </set>
      <set comment="kpoint 17">
       <r>  -51.7434    1.0000 </r>
       <r>  -25.3717    1.0000 </r>
       <r>  -25.1511    1.0000 </r>
       <r>  -25.1249    1.0000 </r>
       <r>    3.0463    1.0000 </r>
       <r>    5.3503    1.0000 </r>
       <r>    7.5246    1.0000 </r>
       <r>    7.6278    1.0000 </r>
       <r>   10.1178    1.0000 </r>
       <r>   12.1957    0.0000 </r>
       <r>   13.2004    0.0000 </r>
       <r>   14.6461    0.0000 </r>
       <r>   18.0074    0.0000 </r>
       <r>   19.2367    0.0000 </r>
       <r>   22.8537    0.0000 </r>
       <r>   22.9277    0.0000 </r>
       <r>   25.4706    0.0000 </r>
       <r>   27.4269    0.0000 </r>
      </set>
      <set comment="kpoint 18">
       <r>  -51.7487    1.0000 </r>
       <r>  -25.3140    1.0000 </r>
       <r>  -25.1584    1.0000 </r>
       <r>  -25.1260    1.0000 </r>
       <r>    2.1743    1.0000 </r>
       <r>    6.1772    1.0000 </r>
       <r>    7.7639    1.0000 </r>
       <r>    8.0133    1.0000 </r>
       <r>   10.0968    1.0000 </r>
       <r>   11.2843    0.0000 </r>
       <r>   13.3083    0.0000 </r>
       <r>   14.7021    0.0000 </r>
       <r>   17.9013    0.0000 </r>
       <r>   19.6757    0.0000 </r>
       <r>   22.4553    0.0000 </r>
       <r>   24.3945    0.0000 </r>
       <r>   25.2926    0.0000 </r>
       <r>   26.8065    0.0000 </r>
      </set>
      <set comment="kpoint 19">
       <r>  -51.7427    1.0000 </r>
       <r>  -25.3342    1.0000 </r>
       <r>  -25.1709    1.0000 </r>
       <r>  -25.1502    1.0000 </r>
       <r>    3.0386    1.0000 </r>
       <r>    5.7248    1.0000 </r>
       <r>    7.4962    1.0000 </r>
       <r>    7.6901    1.0000 </r>
       <r>    9.7259    1.0000 </r>
       <r>   11.8117    0.0000 </r>
       <r>   12.8728    0.0000 </r>
       <r>   14.4748    0.0000 </r>
       <r>   18.8484    0.0000 </r>
       <r>   19.9834    0.0000 </r>
       <r>   22.3667    0.0000 </r>
       <r>   24.6933    0.0000 </r>
       <r>   24.7858    0.0000 </r>
       <r>   27.0427    0.0000 </r>
      </set>
      <set comment="kpoint 20">
       <r>  -51.7405    1.0000 </r>
       <r>  -25.3393    1.0000 </r>
       <r>  -25.1893    1.0000 </r>
       <r>  -25.1472    1.0000 </r>
       <r>    3.5062    1.0000 </r>
       <r>    5.4310    1.0000 </r>
       <r>    7.2530    1.0000 </r>
       <r>    7.6750    1.0000 </r>
       <r>    9.5851    1.0000 </r>
       <r>   12.1512    0.0000 </r>
       <r>   12.7412    0.0000 </r>
       <r>   14.2059    0.0000 </r>
       <r>   19.2216    0.0000 </r>
       <r>   20.3190    0.0000 </r>
       <r>   22.3953    0.0000 </r>
       <r>   24.1044    0.0000 </r>
       <r>   24.8258    0.0000 </r>
       <r>   26.3962    0.0000 </r>
      </set>
      <set comment="kpoint 21">
       <r>  -51.7395    1.0000 </r>
       <r>  -25.3061    1.0000 </r>
       <r>  -25.2342    1.0000 </r>
       <r>  -25.1458    1.0000 </r>
       <r>    3.6607    1.0000 </r>
       <r>    5.6092    1.0000 </r>
       <r>    6.9752    1.0000 </r>
       <r>    7.7760    1.0000 </r>
       <r>    9.3429    1.0000 </r>
       <r>   12.1506    0.0000 </r>
       <r>   12.6196    0.0000 </r>
       <r>   13.9495    0.0000 </r>
       <r>   19.9643    0.0000 </r>
       <r>   21.0693    0.0000 </r>
       <r>   21.9094    0.0000 </r>
       <r>   23.4621    0.0000 </r>
       <r>   26.0227    0.0000 </r>
       <r>   26.2027    0.0000 </r>
      </set>
      <set comment="kpoint 22">
       <r>  -51.7951    1.0000 </r>
       <r>  -25.2354    1.0000 </r>
       <r>  -24.9602    1.0000 </r>
       <r>  -24.9602    1.0000 </r>
       <r>   -0.8576    1.0000 </r>
       <r>    7.0249    1.0000 </r>
       <r>    9.4092    1.0000 </r>
       <r>    9.4092    1.0000 </r>
       <r>   11.0348    0.0000 </r>
       <r>   11.4758    0.0000 </r>
       <r>   11.4758    0.0000 </r>
       <r>   18.4911    0.0000 </r>
       <r>   18.4911    0.0000 </r>
       <r>   19.6847    0.0000 </r>
       <r>   21.4694    0.0000 </r>
       <r>   21.5551    0.0000 </r>
       <r>   21.5551    0.0000 </r>
       <r>   26.5876    0.0000 </r>
      </set>
      <set comment="kpoint 23">
       <r>  -51.7923    1.0000 </r>
       <r>  -25.2313    1.0000 </r>
       <r>  -24.9865    1.0000 </r>
       <r>  -24.9662    1.0000 </r>
       <r>   -0.7247    1.0000 </r>
       <r>    7.1101    1.0000 </r>
       <r>    9.2084    1.0000 </r>
       <r>    9.5347    1.0000 </r>
       <r>   10.1952    1.0000 </r>
       <r>   11.4161    0.0000 </r>
       <r>   12.3943    0.0000 </r>
       <r>   17.7188    0.0000 </r>
       <r>   18.0967    0.0000 </r>
       <r>   19.7833    0.0000 </r>
       <r>   21.4452    0.0000 </r>
       <r>   22.1181    0.0000 </r>
       <r>   22.2396    0.0000 </r>
       <r>   26.0304    0.0000 </r>
      </set>
      <set comment="kpoint 24">
       <r>  -51.7843    1.0000 </r>
       <r>  -25.2201    1.0000 </r>
       <r>  -25.0589    1.0000 </r>
       <r>  -24.9830    1.0000 </r>
       <r>   -0.3355    1.0000 </r>
       <r>    7.2916    1.0000 </r>
       <r>    8.7125    1.0000 </r>
       <r>    9.3246    1.0000 </r>
       <r>    9.8935    1.0000 </r>
       <r>   11.2654    0.0000 </r>
       <r>   13.4973    0.0000 </r>
       <r>   16.2926    0.0000 </r>
       <r>   17.3266    0.0000 </r>
       <r>   19.8101    0.0000 </r>
       <r>   22.0959    0.0000 </r>
       <r>   22.7726    0.0000 </r>
       <r>   23.3804    0.0000 </r>
       <r>   25.3166    0.0000 </r>
      </set>
      <set comment="kpoint 25">
       <r>  -51.7730    1.0000 </r>
       <r>  -25.2043    1.0000 </r>
       <r>  -25.1596    1.0000 </r>
       <r>  -25.0065    1.0000 </r>
       <r>    0.2827    1.0000 </r>
       <r>    7.2423    1.0000 </r>
       <r>    8.1825    1.0000 </r>
       <r>    8.7486    1.0000 </r>
       <r>   10.3918    1.0000 </r>
       <r>   11.1368    0.0000 </r>
       <r>   14.3894    0.0000 </r>
       <r>   15.1417    0.0000 </r>
       <r>   16.5271    0.0000 </r>
       <r>   19.6999    0.0000 </r>
       <r>   22.1401    0.0000 </r>
       <r>   23.3878    0.0000 </r>
       <r>   24.9459    0.0000 </r>
       <r>   25.3614    0.0000 </r>
      </set>
      <set comment="kpoint 26">
       <r>  -51.7610    1.0000 </r>
       <r>  -25.2654    1.0000 </r>
       <r>  -25.1872    1.0000 </r>
       <r>  -25.0313    1.0000 </r>
       <r>    1.0846    1.0000 </r>
       <r>    6.6520    1.0000 </r>
       <r>    7.7597    1.0000 </r>
       <r>    8.5507    1.0000 </r>
       <r>   10.5874    0.0855 </r>
       <r>   11.4730    0.0000 </r>
       <r>   14.1895    0.0000 </r>
       <r>   15.4429    0.0000 </r>
       <r>   15.7738    0.0000 </r>
       <r>   19.6181    0.0000 </r>
       <r>   21.3914    0.0000 </r>
       <r>   23.6935    0.0000 </r>
       <r>   26.3080    0.0000 </r>
       <r>   26.5928    0.0000 </r>
      </set>
      <set comment="kpoint 27">
       <r>  -51.7511    1.0000 </r>
       <r>  -25.3516    1.0000 </r>
       <r>  -25.1731    1.0000 </r>
       <r>  -25.0518    1.0000 </r>
       <r>    1.9914    1.0000 </r>
       <r>    5.8319    1.0000 </r>
       <r>    7.4270    1.0000 </r>
       <r>    8.3677    1.0000 </r>
       <r>   10.4818    1.0000 </r>
       <r>   12.2280    0.0000 </r>
       <r>   14.2559    0.0000 </r>
       <r>   15.0685    0.0000 </r>
       <r>   15.9723    0.0000 </r>
       <r>   19.2318    0.0000 </r>
       <r>   20.8783    0.0000 </r>
       <r>   23.4852    0.0000 </r>
       <r>   27.0638    0.0000 </r>
       <r>   27.4574    0.0000 </r>
      </set>
      <set comment="kpoint 28">
       <r>  -51.7454    1.0000 </r>
       <r>  -25.3999    1.0000 </r>
       <r>  -25.1652    1.0000 </r>
       <r>  -25.0633    1.0000 </r>
       <r>    2.7892    1.0000 </r>
       <r>    5.0791    1.0000 </r>
       <r>    7.2493    1.0000 </r>
       <r>    8.1869    1.0000 </r>
       <r>   10.4009    1.0000 </r>
       <r>   12.9204    0.0000 </r>
       <r>   14.4703    0.0000 </r>
       <r>   14.5863    0.0000 </r>
       <r>   16.4932    0.0000 </r>
       <r>   18.3212    0.0000 </r>
       <r>   20.9099    0.0000 </r>
       <r>   23.2760    0.0000 </r>
       <r>   27.1528    0.0000 </r>
       <r>   27.2250    0.0000 </r>
      </set>
      <set comment="kpoint 29">
       <r>  -51.7868    1.0000 </r>
       <r>  -25.2237    1.0000 </r>
       <r>  -25.0347    1.0000 </r>
       <r>  -24.9788    1.0000 </r>
       <r>   -0.4636    1.0000 </r>
       <r>    7.2484    1.0000 </r>
       <r>    8.8720    1.0000 </r>
       <r>    9.4896    1.0000 </r>
       <r>    9.8217    1.0000 </r>
       <r>   11.2858    0.0000 </r>
       <r>   13.2259    0.0000 </r>
       <r>   16.8236    0.0000 </r>
       <r>   17.2812    0.0000 </r>
       <r>   20.0929    0.0000 </r>
       <r>   21.7148    0.0000 </r>
       <r>   22.6767    0.0000 </r>
       <r>   22.9852    0.0000 </r>
       <r>   25.5156    0.0000 </r>
      </set>
      <set comment="kpoint 30">
       <r>  -51.7772    1.0000 </r>
       <r>  -25.2102    1.0000 </r>
       <r>  -25.1182    1.0000 </r>
       <r>  -25.0019    1.0000 </r>
       <r>    0.0408    1.0000 </r>
       <r>    7.3481    1.0000 </r>
       <r>    8.3858    1.0000 </r>
       <r>    8.8578    1.0000 </r>
       <r>   10.2378    1.0000 </r>
       <r>   11.0745    0.0000 </r>
       <r>   14.2236    0.0000 </r>
       <r>   15.5903    0.0000 </r>
       <r>   16.4379    0.0000 </r>
       <r>   20.1925    0.0000 </r>
       <r>   22.3082    0.0000 </r>
       <r>   23.0683    0.0000 </r>
       <r>   23.8009    0.0000 </r>
       <r>   25.6185    0.0000 </r>
      </set>
      <set comment="kpoint 31">
       <r>  -51.7656    1.0000 </r>
       <r>  -25.2180    1.0000 </r>
       <r>  -25.1934    1.0000 </r>
       <r>  -25.0298    1.0000 </r>
       <r>    0.7535    1.0000 </r>
       <r>    7.0040    1.0000 </r>
       <r>    7.9468    1.0000 </r>
       <r>    8.5731    1.0000 </r>
       <r>   10.5273    0.9980 </r>
       <r>   11.1218    0.0000 </r>
       <r>   14.4692    0.0000 </r>
       <r>   15.2949    0.0000 </r>
       <r>   15.7522    0.0000 </r>
       <r>   20.0243    0.0000 </r>
       <r>   21.9535    0.0000 </r>
       <r>   23.5609    0.0000 </r>
       <r>   24.9336    0.0000 </r>
       <r>   26.5393    0.0000 </r>
      </set>
      <set comment="kpoint 32">
       <r>  -51.7546    1.0000 </r>
       <r>  -25.3101    1.0000 </r>
       <r>  -25.1781    1.0000 </r>
       <r>  -25.0561    1.0000 </r>
       <r>    1.6170    1.0000 </r>
       <r>    6.2845    1.0000 </r>
       <r>    7.5709    1.0000 </r>
       <r>    8.4549    1.0000 </r>
       <r>   10.3739    1.0000 </r>
       <r>   11.7378    0.0000 </r>
       <r>   14.1966    0.0000 </r>
       <r>   15.1120    0.0000 </r>
       <r>   15.9930    0.0000 </r>
       <r>   19.7195    0.0000 </r>
       <r>   21.3792    0.0000 </r>
       <r>   23.5527    0.0000 </r>
       <r>   26.1960    0.0000 </r>
       <r>   27.4761    0.0000 </r>
      </set>
      <set comment="kpoint 33">
       <r>  -51.7468    1.0000 </r>
       <r>  -25.3749    1.0000 </r>
       <r>  -25.1671    1.0000 </r>
       <r>  -25.0746    1.0000 </r>
       <r>    2.5114    1.0000 </r>
       <r>    5.4758    1.0000 </r>
       <r>    7.3231    1.0000 </r>
       <r>    8.2544    1.0000 </r>
       <r>   10.2160    1.0000 </r>
       <r>   12.4817    0.0000 </r>
       <r>   14.2549    0.0000 </r>
       <r>   14.6609    0.0000 </r>
       <r>   16.5414    0.0000 </r>
       <r>   18.9696    0.0000 </r>
       <r>   21.3519    0.0000 </r>
       <r>   23.2733    0.0000 </r>
       <r>   26.4569    0.0000 </r>
       <r>   27.4687    0.0000 </r>
      </set>
      <set comment="kpoint 34">
       <r>  -51.7440    1.0000 </r>
       <r>  -25.3981    1.0000 </r>
       <r>  -25.1631    1.0000 </r>
       <r>  -25.0813    1.0000 </r>
       <r>    3.0153    1.0000 </r>
       <r>    5.0013    1.0000 </r>
       <r>    7.2376    1.0000 </r>
       <r>    8.1518    1.0000 </r>
       <r>   10.1572    1.0000 </r>
       <r>   12.9422    0.0000 </r>
       <r>   14.0285    0.0000 </r>
       <r>   14.6592    0.0000 </r>
       <r>   16.9211    0.0000 </r>
       <r>   18.3840    0.0000 </r>
       <r>   21.4793    0.0000 </r>
       <r>   23.1098    0.0000 </r>
       <r>   26.3829    0.0000 </r>
       <r>   27.3356    0.0000 </r>
      </set>
      <set comment="kpoint 35">
       <r>  -51.7672    1.0000 </r>
       <r>  -25.1983    1.0000 </r>
       <r>  -25.1927    1.0000 </r>
       <r>  -25.0349    1.0000 </r>
       <r>    0.6415    1.0000 </r>
       <r>    7.1675    1.0000 </r>
       <r>    8.0456    1.0000 </r>
       <r>    8.5343    1.0000 </r>
       <r>   10.5086    1.0000 </r>
       <r>   10.9123    0.0000 </r>
       <r>   14.8175    0.0000 </r>
       <r>   15.1795    0.0000 </r>
       <r>   15.5221    0.0000 </r>
       <r>   20.4545    0.0000 </r>
       <r>   22.4713    0.0000 </r>
       <r>   23.3827    0.0000 </r>
       <r>   23.9687    0.0000 </r>
       <r>   26.6124    0.0000 </r>
      </set>
      <set comment="kpoint 36">
       <r>  -51.7566    1.0000 </r>
       <r>  -25.2727    1.0000 </r>
       <r>  -25.1809    1.0000 </r>
       <r>  -25.0728    1.0000 </r>
       <r>    1.4240    1.0000 </r>
       <r>    6.6610    1.0000 </r>
       <r>    7.6834    1.0000 </r>
       <r>    8.4456    1.0000 </r>
       <r>   10.2188    1.0000 </r>
       <r>   11.3055    0.0000 </r>
       <r>   14.2739    0.0000 </r>
       <r>   14.8786    0.0000 </r>
       <r>   16.1980    0.0000 </r>
       <r>   20.2402    0.0000 </r>
       <r>   22.0684    0.0000 </r>
       <r>   23.7303    0.0000 </r>
       <r>   24.9806    0.0000 </r>
       <r>   26.8775    0.0000 </r>
      </set>
      <set comment="kpoint 37">
       <r>  -51.7478    1.0000 </r>
       <r>  -25.3352    1.0000 </r>
       <r>  -25.1685    1.0000 </r>
       <r>  -25.1053    1.0000 </r>
       <r>    2.3094    1.0000 </r>
       <r>    5.9834    1.0000 </r>
       <r>    7.4074    1.0000 </r>
       <r>    8.2574    1.0000 </r>
       <r>    9.9142    1.0000 </r>
       <r>   11.8885    0.0000 </r>
       <r>   13.8783    0.0000 </r>
       <r>   14.6938    0.0000 </r>
       <r>   16.9775    0.0000 </r>
       <r>   19.7928    0.0000 </r>
       <r>   21.9245    0.0000 </r>
       <r>   23.6376    0.0000 </r>
       <r>   25.5913    0.0000 </r>
       <r>   27.0365    0.0000 </r>
      </set>
      <set comment="kpoint 38">
       <r>  -51.7428    1.0000 </r>
       <r>  -25.3699    1.0000 </r>
       <r>  -25.1615    1.0000 </r>
       <r>  -25.1238    1.0000 </r>
       <r>    3.0813    1.0000 </r>
       <r>    5.3259    1.0000 </r>
       <r>    7.2587    1.0000 </r>
       <r>    8.0743    1.0000 </r>
       <r>    9.7334    1.0000 </r>
       <r>   12.5469    0.0000 </r>
       <r>   13.5299    0.0000 </r>
       <r>   14.5491    0.0000 </r>
       <r>   17.5923    0.0000 </r>
       <r>   19.2543    0.0000 </r>
       <r>   22.3833    0.0000 </r>
       <r>   23.1206    0.0000 </r>
       <r>   25.3249    0.0000 </r>
       <r>   27.0672    0.0000 </r>
      </set>
      <set comment="kpoint 39">
       <r>  -51.7481    1.0000 </r>
       <r>  -25.3124    1.0000 </r>
       <r>  -25.1690    1.0000 </r>
       <r>  -25.1250    1.0000 </r>
       <r>    2.2377    1.0000 </r>
       <r>    6.2593    1.0000 </r>
       <r>    7.4295    1.0000 </r>
       <r>    8.1933    1.0000 </r>
       <r>    9.8266    1.0000 </r>
       <r>   11.6006    0.0000 </r>
       <r>   13.7119    0.0000 </r>
       <r>   14.6997    0.0000 </r>
       <r>   17.2271    0.0000 </r>
       <r>   20.2555    0.0000 </r>
       <r>   21.8398    0.0000 </r>
       <r>   24.4631    0.0000 </r>
       <r>   25.1571    0.0000 </r>
       <r>   26.2581    0.0000 </r>
      </set>
      <set comment="kpoint 40">
       <r>  -51.7421    1.0000 </r>
       <r>  -25.3326    1.0000 </r>
       <r>  -25.1698    1.0000 </r>
       <r>  -25.1605    1.0000 </r>
       <r>    3.0652    1.0000 </r>
       <r>    5.7991    1.0000 </r>
       <r>    7.1971    1.0000 </r>
       <r>    7.8942    1.0000 </r>
       <r>    9.5412    1.0000 </r>
       <r>   12.1083    0.0000 </r>
       <r>   13.2545    0.0000 </r>
       <r>   14.4353    0.0000 </r>
       <r>   18.2148    0.0000 </r>
       <r>   20.3224    0.0000 </r>
       <r>   21.7525    0.0000 </r>
       <r>   24.4515    0.0000 </r>
       <r>   24.6960    0.0000 </r>
       <r>   26.5788    0.0000 </r>
      </set>
      <set comment="kpoint 41">
       <r>  -51.7400    1.0000 </r>
       <r>  -25.3377    1.0000 </r>
       <r>  -25.1881    1.0000 </r>
       <r>  -25.1574    1.0000 </r>
       <r>    3.5064    1.0000 </r>
       <r>    5.4996    1.0000 </r>
       <r>    7.0812    1.0000 </r>
       <r>    7.7913    1.0000 </r>
       <r>    9.4296    1.0000 </r>
       <r>   12.5252    0.0000 </r>
       <r>   13.0126    0.0000 </r>
       <r>   14.1792    0.0000 </r>
       <r>   18.7514    0.0000 </r>
       <r>   20.1814    0.0000 </r>
       <r>   22.0690    0.0000 </r>
       <r>   23.7314    0.0000 </r>
       <r>   24.6904    0.0000 </r>
       <r>   26.6774    0.0000 </r>
      </set>
      <set comment="kpoint 42">
       <r>  -51.7389    1.0000 </r>
       <r>  -25.3045    1.0000 </r>
       <r>  -25.2329    1.0000 </r>
       <r>  -25.1560    1.0000 </r>
       <r>    3.6437    1.0000 </r>
       <r>    5.7751    1.0000 </r>
       <r>    6.7938    1.0000 </r>
       <r>    7.6946    1.0000 </r>
       <r>    9.3564    1.0000 </r>
       <r>   12.4458    0.0000 </r>
       <r>   12.9381    0.0000 </r>
       <r>   13.9426    0.0000 </r>
       <r>   19.3757    0.0000 </r>
       <r>   21.0432    0.0000 </r>
       <r>   21.4897    0.0000 </r>
       <r>   23.1087    0.0000 </r>
       <r>   25.3718    0.0000 </r>
       <r>   26.6815    0.0000 </r>
      </set>
      <set comment="kpoint 43">
       <r>  -51.7935    1.0000 </r>
       <r>  -25.2681    1.0000 </r>
       <r>  -24.9581    1.0000 </r>
       <r>  -24.9581    1.0000 </r>
       <r>   -0.4160    1.0000 </r>
       <r>    6.4651    1.0000 </r>
       <r>    9.5283    1.0000 </r>
       <r>    9.5283    1.0000 </r>
       <r>   10.9509    0.0000 </r>
       <r>   11.0606    0.0000 </r>
       <r>   11.0606    0.0000 </r>
       <r>   18.6256    0.0000 </r>
       <r>   18.6256    0.0000 </r>
       <r>   20.0051    0.0000 </r>
       <r>   21.6717    0.0000 </r>
       <r>   21.6717    0.0000 </r>
       <r>   22.3244    0.0000 </r>
       <r>   27.5374    0.0000 </r>
      </set>
      <set comment="kpoint 44">
       <r>  -51.7906    1.0000 </r>
       <r>  -25.2637    1.0000 </r>
       <r>  -24.9842    1.0000 </r>
       <r>  -24.9641    1.0000 </r>
       <r>   -0.2924    1.0000 </r>
       <r>    6.5547    1.0000 </r>
       <r>    9.3214    1.0000 </r>
       <r>    9.6464    1.0000 </r>
       <r>   10.1034    1.0000 </r>
       <r>   10.9922    0.0000 </r>
       <r>   11.9561    0.0000 </r>
       <r>   18.0057    0.0000 </r>
       <r>   18.4128    0.0000 </r>
       <r>   20.2682    0.0000 </r>
       <r>   21.4623    0.0000 </r>
       <r>   22.0492    0.0000 </r>
       <r>   22.6612    0.0000 </r>
       <r>   26.9494    0.0000 </r>
      </set>
      <set comment="kpoint 45">
       <r>  -51.7827    1.0000 </r>
       <r>  -25.2517    1.0000 </r>
       <r>  -25.0561    1.0000 </r>
       <r>  -24.9808    1.0000 </r>
       <r>    0.0680    1.0000 </r>
       <r>    6.7667    1.0000 </r>
       <r>    8.7603    1.0000 </r>
       <r>    9.3858    1.0000 </r>
       <r>    9.9510    1.0000 </r>
       <r>   10.8584    0.0000 </r>
       <r>   12.8434    0.0000 </r>
       <r>   16.8470    0.0000 </r>
       <r>   17.9257    0.0000 </r>
       <r>   20.0373    0.0000 </r>
       <r>   22.1812    0.0000 </r>
       <r>   22.8083    0.0000 </r>
       <r>   23.0083    0.0000 </r>
       <r>   26.2936    0.0000 </r>
      </set>
      <set comment="kpoint 46">
       <r>  -51.7715    1.0000 </r>
       <r>  -25.2347    1.0000 </r>
       <r>  -25.1561    1.0000 </r>
       <r>  -25.0043    1.0000 </r>
       <r>    0.6360    1.0000 </r>
       <r>    6.8605    1.0000 </r>
       <r>    8.0985    1.0000 </r>
       <r>    8.9592    1.0000 </r>
       <r>   10.1316    1.0000 </r>
       <r>   11.0101    0.0000 </r>
       <r>   13.5041    0.0000 </r>
       <r>   15.8316    0.0000 </r>
       <r>   17.3359    0.0000 </r>
       <r>   19.6275    0.0000 </r>
       <r>   22.2978    0.0000 </r>
       <r>   23.4656    0.0000 </r>
       <r>   24.2944    0.0000 </r>
       <r>   26.1985    0.0000 </r>
      </set>
      <set comment="kpoint 47">
       <r>  -51.7595    1.0000 </r>
       <r>  -25.2616    1.0000 </r>
       <r>  -25.2159    1.0000 </r>
       <r>  -25.0290    1.0000 </r>
       <r>    1.3641    1.0000 </r>
       <r>    6.4411    1.0000 </r>
       <r>    7.6745    1.0000 </r>
       <r>    8.8668    1.0000 </r>
       <r>    9.9809    1.0000 </r>
       <r>   11.6693    0.0000 </r>
       <r>   13.7319    0.0000 </r>
       <r>   15.4419    0.0000 </r>
       <r>   16.7054    0.0000 </r>
       <r>   19.3945    0.0000 </r>
       <r>   21.4819    0.0000 </r>
       <r>   23.9194    0.0000 </r>
       <r>   25.5663    0.0000 </r>
       <r>   27.1464    0.0000 </r>
      </set>
      <set comment="kpoint 48">
       <r>  -51.7496    1.0000 </r>
       <r>  -25.3472    1.0000 </r>
       <r>  -25.2010    1.0000 </r>
       <r>  -25.0495    1.0000 </r>
       <r>    2.1757    1.0000 </r>
       <r>    5.6848    1.0000 </r>
       <r>    7.4178    1.0000 </r>
       <r>    8.9193    1.0000 </r>
       <r>    9.7987    1.0000 </r>
       <r>   12.4837    0.0000 </r>
       <r>   13.7470    0.0000 </r>
       <r>   15.6915    0.0000 </r>
       <r>   16.0651    0.0000 </r>
       <r>   19.0232    0.0000 </r>
       <r>   20.7294    0.0000 </r>
       <r>   23.7034    0.0000 </r>
       <r>   25.9872    0.0000 </r>
       <r>   28.3403    0.0000 </r>
      </set>
      <set comment="kpoint 49">
       <r>  -51.7440    1.0000 </r>
       <r>  -25.3952    1.0000 </r>
       <r>  -25.1925    1.0000 </r>
       <r>  -25.0610    1.0000 </r>
       <r>    2.8760    1.0000 </r>
       <r>    4.9960    1.0000 </r>
       <r>    7.2755    1.0000 </r>
       <r>    8.9266    1.0000 </r>
       <r>    9.6932    1.0000 </r>
       <r>   13.1420    0.0000 </r>
       <r>   13.8044    0.0000 </r>
       <r>   15.5418    0.0000 </r>
       <r>   16.3178    0.0000 </r>
       <r>   18.0840    0.0000 </r>
       <r>   20.6307    0.0000 </r>
       <r>   23.4044    0.0000 </r>
       <r>   25.7779    0.0000 </r>
       <r>   28.2199    0.0000 </r>
      </set>
      <set comment="kpoint 50">
       <r>  -51.7852    1.0000 </r>
       <r>  -25.2555    1.0000 </r>
       <r>  -25.0321    1.0000 </r>
       <r>  -24.9766    1.0000 </r>
       <r>   -0.0504    1.0000 </r>
       <r>    6.7101    1.0000 </r>
       <r>    8.9539    1.0000 </r>
       <r>    9.4679    1.0000 </r>
       <r>    9.9493    1.0000 </r>
       <r>   10.8431    0.0000 </r>
       <r>   12.6440    0.0000 </r>
       <r>   17.3015    0.0000 </r>
       <r>   17.7932    0.0000 </r>
       <r>   20.4978    0.0000 </r>
       <r>   21.7812    0.0000 </r>
       <r>   22.4694    0.0000 </r>
       <r>   22.9092    0.0000 </r>
       <r>   26.5867    0.0000 </r>
      </set>
      <set comment="kpoint 51">
       <r>  -51.7756    1.0000 </r>
       <r>  -25.2410    1.0000 </r>
       <r>  -25.1150    1.0000 </r>
       <r>  -24.9997    1.0000 </r>
       <r>    0.4144    1.0000 </r>
       <r>    6.9050    1.0000 </r>
       <r>    8.3297    1.0000 </r>
       <r>    8.9878    1.0000 </r>
       <r>   10.2084    1.0000 </r>
       <r>   10.7665    0.0000 </r>
       <r>   13.4158    0.0000 </r>
       <r>   16.2730    0.0000 </r>
       <r>   17.0870    0.0000 </r>
       <r>   20.3628    0.0000 </r>
       <r>   22.6673    0.0000 </r>
       <r>   22.8194    0.0000 </r>
       <r>   23.3924    0.0000 </r>
       <r>   26.2950    0.0000 </r>
      </set>
      <set comment="kpoint 52">
       <r>  -51.7641    1.0000 </r>
       <r>  -25.2249    1.0000 </r>
       <r>  -25.2123    1.0000 </r>
       <r>  -25.0275    1.0000 </r>
       <r>    1.0646    1.0000 </r>
       <r>    6.7914    1.0000 </r>
       <r>    7.7762    1.0000 </r>
       <r>    8.7697    1.0000 </r>
       <r>   10.0138    1.0000 </r>
       <r>   11.3105    0.0000 </r>
       <r>   13.9100    0.0000 </r>
       <r>   15.5284    0.0000 </r>
       <r>   16.5267    0.0000 </r>
       <r>   19.9965    0.0000 </r>
       <r>   22.1367    0.0000 </r>
       <r>   23.5721    0.0000 </r>
       <r>   24.7148    0.0000 </r>
       <r>   26.1787    0.0000 </r>
      </set>
      <set comment="kpoint 53">
       <r>  -51.7531    1.0000 </r>
       <r>  -25.3059    1.0000 </r>
       <r>  -25.2063    1.0000 </r>
       <r>  -25.0537    1.0000 </r>
       <r>    1.8419    1.0000 </r>
       <r>    6.1567    1.0000 </r>
       <r>    7.4963    1.0000 </r>
       <r>    8.7837    1.0000 </r>
       <r>    9.7504    1.0000 </r>
       <r>   12.0719    0.0000 </r>
       <r>   13.9491    0.0000 </r>
       <r>   15.5500    0.0000 </r>
       <r>   16.0107    0.0000 </r>
       <r>   19.6100    0.0000 </r>
       <r>   21.3111    0.0000 </r>
       <r>   23.6626    0.0000 </r>
       <r>   25.6379    0.0000 </r>
       <r>   26.8449    0.0000 </r>
      </set>
      <set comment="kpoint 54">
       <r>  -51.7453    1.0000 </r>
       <r>  -25.3703    1.0000 </r>
       <r>  -25.1946    1.0000 </r>
       <r>  -25.0721    1.0000 </r>
       <r>    2.6327    1.0000 </r>
       <r>    5.3892    1.0000 </r>
       <r>    7.3259    1.0000 </r>
       <r>    8.8229    1.0000 </r>
       <r>    9.5561    1.0000 </r>
       <r>   12.8183    0.0000 </r>
       <r>   13.9571    0.0000 </r>
       <r>   15.3805    0.0000 </r>
       <r>   16.1708    0.0000 </r>
       <r>   18.7792    0.0000 </r>
       <r>   20.9805    0.0000 </r>
       <r>   23.4361    0.0000 </r>
       <r>   25.4777    0.0000 </r>
       <r>   28.0408    0.0000 </r>
      </set>
      <set comment="kpoint 55">
       <r>  -51.7425    1.0000 </r>
       <r>  -25.3934    1.0000 </r>
       <r>  -25.1903    1.0000 </r>
       <r>  -25.0788    1.0000 </r>
       <r>    3.0671    1.0000 </r>
       <r>    4.9601    1.0000 </r>
       <r>    7.2633    1.0000 </r>
       <r>    8.8325    1.0000 </r>
       <r>    9.4761    1.0000 </r>
       <r>   13.2173    0.0000 </r>
       <r>   13.9788    0.0000 </r>
       <r>   15.0751    0.0000 </r>
       <r>   16.6966    0.0000 </r>
       <r>   18.0384    0.0000 </r>
       <r>   21.0113    0.0000 </r>
       <r>   23.2887    0.0000 </r>
       <r>   25.3401    0.0000 </r>
       <r>   28.1190    0.0000 </r>
      </set>
      <set comment="kpoint 56">
       <r>  -51.7657    1.0000 </r>
       <r>  -25.2262    1.0000 </r>
       <r>  -25.1909    1.0000 </r>
       <r>  -25.0325    1.0000 </r>
       <r>    0.9630    1.0000 </r>
       <r>    6.9997    1.0000 </r>
       <r>    7.7613    1.0000 </r>
       <r>    8.6889    1.0000 </r>
       <r>   10.0159    1.0000 </r>
       <r>   11.1512    0.0000 </r>
       <r>   14.1090    0.0000 </r>
       <r>   15.6542    0.0000 </r>
       <r>   16.1579    0.0000 </r>
       <r>   20.6324    0.0000 </r>
       <r>   22.8192    0.0000 </r>
       <r>   23.1495    0.0000 </r>
       <r>   23.7189    0.0000 </r>
       <r>   25.9499    0.0000 </r>
      </set>
      <set comment="kpoint 57">
       <r>  -51.7551    1.0000 </r>
       <r>  -25.2688    1.0000 </r>
       <r>  -25.2093    1.0000 </r>
       <r>  -25.0703    1.0000 </r>
       <r>    1.6689    1.0000 </r>
       <r>    6.6988    1.0000 </r>
       <r>    7.3772    1.0000 </r>
       <r>    8.5585    1.0000 </r>
       <r>    9.6617    1.0000 </r>
       <r>   11.8042    0.0000 </r>
       <r>   14.3896    0.0000 </r>
       <r>   15.2570    0.0000 </r>
       <r>   15.8206    0.0000 </r>
       <r>   20.3814    0.0000 </r>
       <r>   22.0931    0.0000 </r>
       <r>   23.4582    0.0000 </r>
       <r>   24.9026    0.0000 </r>
       <r>   25.5665    0.0000 </r>
      </set>
      <set comment="kpoint 58">
       <r>  -51.7463    1.0000 </r>
       <r>  -25.3308    1.0000 </r>
       <r>  -25.1960    1.0000 </r>
       <r>  -25.1026    1.0000 </r>
       <r>    2.4541    1.0000 </r>
       <r>    5.9883    1.0000 </r>
       <r>    7.2909    1.0000 </r>
       <r>    8.4312    1.0000 </r>
       <r>    9.4572    1.0000 </r>
       <r>   12.4497    0.0000 </r>
       <r>   14.2337    0.0000 </r>
       <r>   14.9592    0.0000 </r>
       <r>   16.2512    0.0000 </r>
       <r>   19.7457    0.0000 </r>
       <r>   21.4830    0.0000 </r>
       <r>   23.5189    0.0000 </r>
       <r>   24.9423    0.0000 </r>
       <r>   26.6557    0.0000 </r>
      </set>
      <set comment="kpoint 59">
       <r>  -51.7414    1.0000 </r>
       <r>  -25.3654    1.0000 </r>
       <r>  -25.1885    1.0000 </r>
       <r>  -25.1211    1.0000 </r>
       <r>    3.1187    1.0000 </r>
       <r>    5.3437    1.0000 </r>
       <r>    7.2583    1.0000 </r>
       <r>    8.3317    1.0000 </r>
       <r>    9.3498    1.0000 </r>
       <r>   13.0407    0.0000 </r>
       <r>   14.1689    0.0000 </r>
       <r>   14.4985    0.0000 </r>
       <r>   16.9861    0.0000 </r>
       <r>   18.8069    0.0000 </r>
       <r>   21.4776    0.0000 </r>
       <r>   23.4418    0.0000 </r>
       <r>   24.6131    0.0000 </r>
       <r>   27.6057    0.0000 </r>
      </set>
      <set comment="kpoint 60">
       <r>  -51.7467    1.0000 </r>
       <r>  -25.3082    1.0000 </r>
       <r>  -25.1966    1.0000 </r>
       <r>  -25.1222    1.0000 </r>
       <r>    2.3907    1.0000 </r>
       <r>    6.4577    1.0000 </r>
       <r>    7.0592    1.0000 </r>
       <r>    8.2236    1.0000 </r>
       <r>    9.4504    1.0000 </r>
       <r>   12.2971    0.0000 </r>
       <r>   14.3910    0.0000 </r>
       <r>   14.7128    0.0000 </r>
       <r>   16.3303    0.0000 </r>
       <r>   20.4567    0.0000 </r>
       <r>   21.2832    0.0000 </r>
       <r>   24.0433    0.0000 </r>
       <r>   24.6444    0.0000 </r>
       <r>   25.6885    0.0000 </r>
      </set>
      <set comment="kpoint 61">
       <r>  -51.7407    1.0000 </r>
       <r>  -25.3283    1.0000 </r>
       <r>  -25.1875    1.0000 </r>
       <r>  -25.1667    1.0000 </r>
       <r>    3.1049    1.0000 </r>
       <r>    5.9514    1.0000 </r>
       <r>    7.0358    1.0000 </r>
       <r>    7.8291    1.0000 </r>
       <r>    9.4069    1.0000 </r>
       <r>   12.7912    0.0000 </r>
       <r>   14.0804    0.0000 </r>
       <r>   14.3222    0.0000 </r>
       <r>   17.2486    0.0000 </r>
       <r>   19.8679    0.0000 </r>
       <r>   21.0665    0.0000 </r>
       <r>   23.9548    0.0000 </r>
       <r>   24.4559    0.0000 </r>
       <r>   26.5401    0.0000 </r>
      </set>
      <set comment="kpoint 62">
       <r>  -51.7385    1.0000 </r>
       <r>  -25.3334    1.0000 </r>
       <r>  -25.1854    1.0000 </r>
       <r>  -25.1837    1.0000 </r>
       <r>    3.4690    1.0000 </r>
       <r>    5.6394    1.0000 </r>
       <r>    7.0887    1.0000 </r>
       <r>    7.6402    1.0000 </r>
       <r>    9.3936    1.0000 </r>
       <r>   13.1914    0.0000 </r>
       <r>   13.7941    0.0000 </r>
       <r>   14.1150    0.0000 </r>
       <r>   17.8952    0.0000 </r>
       <r>   19.2180    0.0000 </r>
       <r>   21.2616    0.0000 </r>
       <r>   23.6741    0.0000 </r>
       <r>   24.4232    0.0000 </r>
       <r>   27.0336    0.0000 </r>
      </set>
      <set comment="kpoint 63">
       <r>  -51.7375    1.0000 </r>
       <r>  -25.3004    1.0000 </r>
       <r>  -25.2296    1.0000 </r>
       <r>  -25.1826    1.0000 </r>
       <r>    3.5833    1.0000 </r>
       <r>    6.0680    1.0000 </r>
       <r>    6.6453    1.0000 </r>
       <r>    7.4538    1.0000 </r>
       <r>    9.4444    1.0000 </r>
[...]
       <r>    6.8602    1.0000 </r>
       <r>    8.8706    1.0000 </r>
       <r>    9.3931    1.0000 </r>
       <r>   12.3278    0.0000 </r>
       <r>   13.5064    0.0000 </r>
       <r>   15.9993    0.0000 </r>
       <r>   17.6151    0.0000 </r>
       <r>   18.1431    0.0000 </r>
       <r>   20.3186    0.0000 </r>
       <r>   21.4598    0.0000 </r>
       <r>   26.0939    0.0000 </r>
       <r>   28.4198    0.0000 </r>
      </set>
      <set comment="kpoint 122">
       <r>  -51.7376    1.0000 </r>
       <r>  -25.3535    1.0000 </r>
       <r>  -25.2587    1.0000 </r>
       <r>  -25.1139    1.0000 </r>
       <r>    2.9071    1.0000 </r>
       <r>    6.3685    1.0000 </r>
       <r>    6.5201    1.0000 </r>
       <r>    8.8050    1.0000 </r>
       <r>    9.9079    1.0000 </r>
       <r>   12.4263    0.0000 </r>
       <r>   14.2680    0.0000 </r>
       <r>   16.2294    0.0000 </r>
       <r>   16.9079    0.0000 </r>
       <r>   17.1013    0.0000 </r>
       <r>   19.5850    0.0000 </r>
       <r>   21.4894    0.0000 </r>
       <r>   27.6974    0.0000 </r>
       <r>   28.3413    0.0000 </r>
      </set>
      <set comment="kpoint 123">
       <r>  -51.7428    1.0000 </r>
       <r>  -25.2971    1.0000 </r>
       <r>  -25.2683    1.0000 </r>
       <r>  -25.1149    1.0000 </r>
       <r>    2.6724    1.0000 </r>
       <r>    6.5836    1.0000 </r>
       <r>    6.7888    1.0000 </r>
       <r>    8.9352    1.0000 </r>
       <r>    9.1262    1.0000 </r>
       <r>   12.3148    0.0000 </r>
       <r>   13.5892    0.0000 </r>
       <r>   15.9651    0.0000 </r>
       <r>   17.5622    0.0000 </r>
       <r>   18.4281    0.0000 </r>
       <r>   19.9615    0.0000 </r>
       <r>   22.3986    0.0000 </r>
       <r>   24.8720    0.0000 </r>
       <r>   28.9265    0.0000 </r>
      </set>
      <set comment="kpoint 124">
       <r>  -51.7369    1.0000 </r>
       <r>  -25.3170    1.0000 </r>
       <r>  -25.2575    1.0000 </r>
       <r>  -25.1588    1.0000 </r>
       <r>    3.0274    1.0000 </r>
       <r>    6.0788    1.0000 </r>
       <r>    6.7699    1.0000 </r>
       <r>    8.9120    1.0000 </r>
       <r>    9.5328    1.0000 </r>
       <r>   12.4263    0.0000 </r>
       <r>   14.6692    0.0000 </r>
       <r>   16.0890    0.0000 </r>
       <r>   17.0294    0.0000 </r>
       <r>   17.0617    0.0000 </r>
       <r>   18.8593    0.0000 </r>
       <r>   23.0092    0.0000 </r>
       <r>   25.7432    0.0000 </r>
       <r>   29.1549    0.0000 </r>
      </set>
      <set comment="kpoint 125">
       <r>  -51.7348    1.0000 </r>
       <r>  -25.3220    1.0000 </r>
       <r>  -25.2536    1.0000 </r>
       <r>  -25.1768    1.0000 </r>
       <r>    3.2014    1.0000 </r>
       <r>    5.7777    1.0000 </r>
       <r>    6.8097    1.0000 </r>
       <r>    8.9080    1.0000 </r>
       <r>    9.7750    1.0000 </r>
       <r>   12.4648    0.0000 </r>
       <r>   15.3153    0.0000 </r>
       <r>   16.1791    0.0000 </r>
       <r>   16.3387    0.0000 </r>
       <r>   16.8388    0.0000 </r>
       <r>   18.3424    0.0000 </r>
       <r>   23.1129    0.0000 </r>
       <r>   27.1551    0.0000 </r>
       <r>   27.8482    0.0000 </r>
      </set>
      <set comment="kpoint 126">
       <r>  -51.7337    1.0000 </r>
       <r>  -25.2895    1.0000 </r>
       <r>  -25.2518    1.0000 </r>
       <r>  -25.2208    1.0000 </r>
       <r>    3.3528    1.0000 </r>
       <r>    5.5161    1.0000 </r>
       <r>    6.9402    1.0000 </r>
       <r>    8.9501    1.0000 </r>
       <r>    9.7072    1.0000 </r>
       <r>   12.4759    0.0000 </r>
       <r>   15.8343    0.0000 </r>
       <r>   16.1169    0.0000 </r>
       <r>   16.3033    0.0000 </r>
       <r>   16.7906    0.0000 </r>
       <r>   17.5855    0.0000 </r>
       <r>   24.6489    0.0000 </r>
       <r>   25.6886    0.0000 </r>
       <r>   27.4632    0.0000 </r>
      </set>
     </set>
    </set>
   </array>
  </eigenvalues>
  <separator name="orbital magnetization" >
   <v name="MAGDIPOLOUT">      0.00000000      0.00000000      0.00000000</v>
  </separator>
  <dos>
   <i name="efermi">     10.56799137 </i>
   <total>
    <array>
     <dimension dim="1">gridpoints</dimension>
     <dimension dim="2">spin</dimension>
     <field>energy</field>
     <field>total</field>
     <field>integrated</field>
     <set>
      <set comment="spin 1">
       <r>   -55.8809     0.0000     0.0000 </r>
       <r>   -55.5813     0.0000     0.0000 </r>
       <r>   -55.2817     0.0000     0.0000 </r>
       <r>   -54.9821     0.0000     0.0000 </r>
       <r>   -54.6826     0.0000     0.0000 </r>
       <r>   -54.3830     0.0000     0.0000 </r>
       <r>   -54.0834     0.0000     0.0000 </r>
       <r>   -53.7839     0.0000     0.0000 </r>
       <r>   -53.4843     0.0000     0.0000 </r>
       <r>   -53.1847     0.0000     0.0000 </r>
       <r>   -52.8851     0.0000     0.0000 </r>
       <r>   -52.5856     0.0000     0.0000 </r>
       <r>   -52.2860     0.0000     0.0000 </r>
       <r>   -51.9864     0.0000     0.0000 </r>
       <r>   -51.6868     6.6759     1.9999 </r>
       <r>   -51.3873     0.0000     2.0000 </r>
       <r>   -51.0877     0.0000     2.0000 </r>
       <r>   -50.7881     0.0000     2.0000 </r>
       <r>   -50.4885     0.0000     2.0000 </r>
       <r>   -50.1890     0.0000     2.0000 </r>
       <r>   -49.8894     0.0000     2.0000 </r>
       <r>   -49.5898     0.0000     2.0000 </r>
       <r>   -49.2903     0.0000     2.0000 </r>
       <r>   -48.9907     0.0000     2.0000 </r>
       <r>   -48.6911     0.0000     2.0000 </r>
       <r>   -48.3915     0.0000     2.0000 </r>
       <r>   -48.0920     0.0000     2.0000 </r>
       <r>   -47.7924     0.0000     2.0000 </r>
       <r>   -47.4928     0.0000     2.0000 </r>
       <r>   -47.1932     0.0000     2.0000 </r>
       <r>   -46.8937     0.0000     2.0000 </r>
       <r>   -46.5941     0.0000     2.0000 </r>
       <r>   -46.2945     0.0000     2.0000 </r>
       <r>   -45.9949     0.0000     2.0000 </r>
       <r>   -45.6954     0.0000     2.0000 </r>
       <r>   -45.3958     0.0000     2.0000 </r>
       <r>   -45.0962     0.0000     2.0000 </r>
       <r>   -44.7966     0.0000     2.0000 </r>
       <r>   -44.4971     0.0000     2.0000 </r>
       <r>   -44.1975     0.0000     2.0000 </r>
       <r>   -43.8979     0.0000     2.0000 </r>
       <r>   -43.5984     0.0000     2.0000 </r>
       <r>   -43.2988     0.0000     2.0000 </r>
       <r>   -42.9992     0.0000     2.0000 </r>
       <r>   -42.6996     0.0000     2.0000 </r>
       <r>   -42.4001     0.0000     2.0000 </r>
       <r>   -42.1005     0.0000     2.0000 </r>
       <r>   -41.8009     0.0000     2.0000 </r>
       <r>   -41.5013     0.0000     2.0000 </r>
       <r>   -41.2018     0.0000     2.0000 </r>
       <r>   -40.9022     0.0000     2.0000 </r>
       <r>   -40.6026     0.0000     2.0000 </r>
       <r>   -40.3030     0.0000     2.0000 </r>
       <r>   -40.0035     0.0000     2.0000 </r>
       <r>   -39.7039     0.0000     2.0000 </r>
       <r>   -39.4043     0.0000     2.0000 </r>
       <r>   -39.1048     0.0000     2.0000 </r>
       <r>   -38.8052     0.0000     2.0000 </r>
       <r>   -38.5056     0.0000     2.0000 </r>
       <r>   -38.2060     0.0000     2.0000 </r>
       <r>   -37.9065     0.0000     2.0000 </r>
       <r>   -37.6069     0.0000     2.0000 </r>
       <r>   -37.3073     0.0000     2.0000 </r>
       <r>   -37.0077     0.0000     2.0000 </r>
       <r>   -36.7082     0.0000     2.0000 </r>
       <r>   -36.4086     0.0000     2.0000 </r>
       <r>   -36.1090     0.0000     2.0000 </r>
       <r>   -35.8094     0.0000     2.0000 </r>
       <r>   -35.5099     0.0000     2.0000 </r>
       <r>   -35.2103     0.0000     2.0000 </r>
       <r>   -34.9107     0.0000     2.0000 </r>
       <r>   -34.6112     0.0000     2.0000 </r>
       <r>   -34.3116     0.0000     2.0000 </r>
       <r>   -34.0120     0.0000     2.0000 </r>
       <r>   -33.7124     0.0000     2.0000 </r>
       <r>   -33.4129     0.0000     2.0000 </r>
       <r>   -33.1133     0.0000     2.0000 </r>
       <r>   -32.8137     0.0000     2.0000 </r>
       <r>   -32.5141     0.0000     2.0000 </r>
       <r>   -32.2146     0.0000     2.0000 </r>
       <r>   -31.9150     0.0000     2.0000 </r>
       <r>   -31.6154     0.0000     2.0000 </r>
       <r>   -31.3158     0.0000     2.0000 </r>
       <r>   -31.0163     0.0000     2.0000 </r>
       <r>   -30.7167     0.0000     2.0000 </r>
       <r>   -30.4171     0.0000     2.0000 </r>
       <r>   -30.1175     0.0000     2.0000 </r>
       <r>   -29.8180     0.0000     2.0000 </r>
       <r>   -29.5184     0.0000     2.0000 </r>
       <r>   -29.2188     0.0000     2.0000 </r>
       <r>   -28.9193     0.0000     2.0000 </r>
       <r>   -28.6197     0.0000     2.0000 </r>
       <r>   -28.3201     0.0000     2.0000 </r>
       <r>   -28.0205     0.0000     2.0000 </r>
       <r>   -27.7210     0.0000     2.0000 </r>
       <r>   -27.4214     0.0000     2.0000 </r>
       <r>   -27.1218     0.0000     2.0000 </r>
       <r>   -26.8222     0.0000     2.0000 </r>
       <r>   -26.5227     0.0000     2.0000 </r>
       <r>   -26.2231     0.0000     2.0000 </r>
       <r>   -25.9235     0.0000     2.0000 </r>
       <r>   -25.6239     0.0000     2.0000 </r>
       <r>   -25.3244     2.6009     2.7792 </r>
       <r>   -25.0248     7.1000     7.3341 </r>
       <r>   -24.7252     0.0000     8.0000 </r>
       <r>   -24.4257     0.0000     8.0000 </r>
       <r>   -24.1261     0.0000     8.0000 </r>
       <r>   -23.8265     0.0000     8.0000 </r>
       <r>   -23.5269     0.0000     8.0000 </r>
       <r>   -23.2274     0.0000     8.0000 </r>
       <r>   -22.9278     0.0000     8.0000 </r>
       <r>   -22.6282     0.0000     8.0000 </r>
       <r>   -22.3286     0.0000     8.0000 </r>
       <r>   -22.0291     0.0000     8.0000 </r>
       <r>   -21.7295     0.0000     8.0000 </r>
       <r>   -21.4299     0.0000     8.0000 </r>
       <r>   -21.1303     0.0000     8.0000 </r>
       <r>   -20.8308     0.0000     8.0000 </r>
       <r>   -20.5312     0.0000     8.0000 </r>
       <r>   -20.2316     0.0000     8.0000 </r>
       <r>   -19.9321     0.0000     8.0000 </r>
       <r>   -19.6325     0.0000     8.0000 </r>
       <r>   -19.3329     0.0000     8.0000 </r>
       <r>   -19.0333     0.0000     8.0000 </r>
       <r>   -18.7338     0.0000     8.0000 </r>
       <r>   -18.4342     0.0000     8.0000 </r>
       <r>   -18.1346     0.0000     8.0000 </r>
       <r>   -17.8350     0.0000     8.0000 </r>
       <r>   -17.5355     0.0000     8.0000 </r>
       <r>   -17.2359     0.0000     8.0000 </r>
       <r>   -16.9363     0.0000     8.0000 </r>
       <r>   -16.6367     0.0000     8.0000 </r>
       <r>   -16.3372     0.0000     8.0000 </r>
       <r>   -16.0376     0.0000     8.0000 </r>
       <r>   -15.7380     0.0000     8.0000 </r>
       <r>   -15.4385     0.0000     8.0000 </r>
       <r>   -15.1389     0.0000     8.0000 </r>
       <r>   -14.8393     0.0000     8.0000 </r>
       <r>   -14.5397     0.0000     8.0000 </r>
       <r>   -14.2402     0.0000     8.0000 </r>
       <r>   -13.9406     0.0000     8.0000 </r>
       <r>   -13.6410     0.0000     8.0000 </r>
       <r>   -13.3414     0.0000     8.0000 </r>
       <r>   -13.0419     0.0000     8.0000 </r>
       <r>   -12.7423     0.0000     8.0000 </r>
       <r>   -12.4427     0.0000     8.0000 </r>
       <r>   -12.1431     0.0000     8.0000 </r>
       <r>   -11.8436     0.0000     8.0000 </r>
       <r>   -11.5440     0.0000     8.0000 </r>
       <r>   -11.2444     0.0000     8.0000 </r>
       <r>   -10.9448     0.0000     8.0000 </r>
       <r>   -10.6453     0.0000     8.0000 </r>
       <r>   -10.3457     0.0000     8.0000 </r>
       <r>   -10.0461     0.0000     8.0000 </r>
       <r>    -9.7466     0.0000     8.0000 </r>
       <r>    -9.4470     0.0000     8.0000 </r>
       <r>    -9.1474     0.0000     8.0000 </r>
       <r>    -8.8478     0.0000     8.0000 </r>
       <r>    -8.5483     0.0000     8.0000 </r>
       <r>    -8.2487     0.0000     8.0000 </r>
       <r>    -7.9491     0.0000     8.0000 </r>
       <r>    -7.6495     0.0000     8.0000 </r>
       <r>    -7.3500     0.0000     8.0000 </r>
       <r>    -7.0504     0.0000     8.0000 </r>
       <r>    -6.7508     0.0000     8.0000 </r>
       <r>    -6.4512     0.0000     8.0000 </r>
       <r>    -6.1517     0.0000     8.0000 </r>
       <r>    -5.8521     0.0000     8.0000 </r>
       <r>    -5.5525     0.0000     8.0000 </r>
       <r>    -5.2530     0.0000     8.0000 </r>
       <r>    -4.9534     0.0000     8.0000 </r>
       <r>    -4.6538     0.0000     8.0000 </r>
       <r>    -4.3542     0.0000     8.0000 </r>
       <r>    -4.0547     0.0000     8.0000 </r>
       <r>    -3.7551     0.0000     8.0000 </r>
       <r>    -3.4555     0.0000     8.0000 </r>
       <r>    -3.1559     0.0000     8.0000 </r>
       <r>    -2.8564     0.0000     8.0000 </r>
       <r>    -2.5568     0.0000     8.0000 </r>
       <r>    -2.2572     0.0000     8.0000 </r>
       <r>    -1.9576     0.0000     8.0000 </r>
       <r>    -1.6581     0.0000     8.0000 </r>
       <r>    -1.3585     0.0000     8.0000 </r>
       <r>    -1.0589     0.0000     8.0000 </r>
       <r>    -0.7594     0.0319     8.0108 </r>
       <r>    -0.4598     0.0734     8.0468 </r>
       <r>    -0.1602     0.0474     8.0840 </r>
       <r>     0.1394     0.1447     8.1558 </r>
       <r>     0.4389     0.1857     8.2201 </r>
       <r>     0.7385     0.2033     8.3035 </r>
       <r>     1.0381     0.1750     8.3802 </r>
       <r>     1.3377     0.1236     8.4879 </r>
       <r>     1.6372     0.3899     8.6683 </r>
       <r>     1.9368     0.3306     8.8280 </r>
       <r>     2.2364     0.2867     8.9924 </r>
       <r>     2.5360     0.3612     9.2277 </r>
       <r>     2.8355     0.2891     9.4972 </r>
       <r>     3.1351     0.9345     9.8539 </r>
       <r>     3.4347     0.1188     9.9149 </r>
       <r>     3.7343     0.1185    10.0000 </r>
       <r>     4.0338     0.0008    10.0002 </r>
       <r>     4.3334     0.0237    10.0083 </r>
       <r>     4.6330     0.0330    10.0182 </r>
       <r>     4.9325     0.0081    10.0415 </r>
       <r>     5.2321     0.1060    10.1560 </r>
       <r>     5.5317     0.4261    10.3868 </r>
       <r>     5.8313     0.5962    10.6958 </r>
       <r>     6.1308     0.9461    11.1911 </r>
       <r>     6.4304     0.3449    11.4796 </r>
       <r>     6.7300     0.4216    11.7322 </r>
       <r>     7.0296     0.7968    12.0931 </r>
       <r>     7.3291     1.2352    12.6529 </r>
       <r>     7.6287     0.8184    13.1967 </r>
       <r>     7.9283     0.5637    13.5961 </r>
       <r>     8.2279     0.6028    13.9202 </r>
       <r>     8.5274     0.9469    14.4423 </r>
       <r>     8.8270     1.0530    14.9711 </r>
       <r>     9.1266     0.5499    15.5162 </r>
       <r>     9.4261     1.2623    16.1699 </r>
       <r>     9.7257     0.9105    16.9284 </r>
       <r>    10.0253     0.7772    17.4305 </r>
       <r>    10.3249     0.7000    17.7860 </r>
       <r>    10.6244     0.5074    18.0408 </r>
       <r>    10.9240     0.5110    18.2383 </r>
       <r>    11.2236     0.3911    18.4533 </r>
       <r>    11.5232     0.3783    18.6802 </r>
       <r>    11.8227     0.4333    18.9487 </r>
       <r>    12.1223     0.4826    19.1836 </r>
       <r>    12.4219     0.8062    19.5575 </r>
       <r>    12.7215     0.6082    20.0094 </r>
       <r>    13.0210     0.7586    20.3811 </r>
       <r>    13.3206     0.7178    20.7097 </r>
       <r>    13.6202     0.8225    21.0819 </r>
       <r>    13.9197     0.4210    21.3025 </r>
       <r>    14.2193     0.6797    21.6924 </r>
       <r>    14.5189     0.6581    22.0693 </r>
       <r>    14.8185     0.7415    22.3712 </r>
       <r>    15.1180     0.3057    22.5247 </r>
       <r>    15.4176     0.3241    22.7504 </r>
       <r>    15.7172     0.4496    23.0009 </r>
       <r>    16.0168     1.3325    23.5566 </r>
       <r>    16.3163     1.1878    24.0884 </r>
       <r>    16.6159     0.8762    24.4779 </r>
       <r>    16.9155     0.3395    24.7218 </r>
       <r>    17.2151     0.6192    25.1251 </r>
       <r>    17.5146     0.3597    25.3598 </r>
       <r>    17.8142     0.4131    25.6196 </r>
       <r>    18.1138     0.4543    25.8852 </r>
       <r>    18.4133     0.6951    26.2603 </r>
       <r>    18.7129     0.2267    26.4111 </r>
       <r>    19.0125     0.3336    26.6893 </r>
       <r>    19.3121     0.6807    26.9282 </r>
       <r>    19.6116     0.4991    27.1649 </r>
       <r>    19.9112     0.4979    27.4947 </r>
       <r>    20.2108     0.7840    27.8810 </r>
       <r>    20.5104     0.4970    28.2353 </r>
       <r>    20.8099     0.1999    28.3474 </r>
       <r>    21.1095     0.5163    28.6233 </r>
       <r>    21.4091     0.8316    28.9320 </r>
       <r>    21.7087     0.1817    29.1870 </r>
       <r>    22.0082     0.4387    29.4687 </r>
       <r>    22.3078     0.5331    29.9112 </r>
       <r>    22.6074     0.7925    30.2611 </r>
       <r>    22.9070     0.5520    30.5748 </r>
       <r>    23.2065     0.8425    30.9364 </r>
       <r>    23.5061     0.9727    31.4725 </r>
       <r>    23.8057     0.6915    31.9492 </r>
       <r>    24.1052     0.4834    32.1495 </r>
       <r>    24.4048     0.3371    32.2832 </r>
       <r>    24.7044     0.6815    32.7107 </r>
       <r>    25.0040     0.8162    33.2197 </r>
       <r>    25.3035     0.1278    33.3045 </r>
       <r>    25.6031     0.5734    33.5801 </r>
       <r>    25.9027     0.2982    33.8763 </r>
       <r>    26.2023     0.3580    34.1013 </r>
       <r>    26.5018     0.6522    34.4841 </r>
       <r>    26.8014     0.4156    34.7565 </r>
       <r>    27.1010     0.6672    35.0969 </r>
       <r>    27.4006     0.2442    35.2897 </r>
       <r>    27.7001     0.4889    35.5713 </r>
       <r>    27.9997     0.0950    35.6379 </r>
       <r>    28.2993     0.0949    35.7515 </r>
       <r>    28.5988     0.1989    35.8537 </r>
       <r>    28.8984     0.0480    35.9079 </r>
       <r>    29.1980     0.0711    35.9361 </r>
       <r>    29.4976     0.0474    35.9574 </r>
       <r>    29.7971     0.0474    35.9858 </r>
       <r>    30.0967     0.0000    36.0000 </r>
       <r>    30.3963     0.0000    36.0000 </r>
       <r>    30.6959     0.0000    36.0000 </r>
       <r>    30.9954     0.0000    36.0000 </r>
       <r>    31.2950     0.0000    36.0000 </r>
       <r>    31.5946     0.0000    36.0000 </r>
       <r>    31.8942     0.0000    36.0000 </r>
       <r>    32.1937     0.0000    36.0000 </r>
       <r>    32.4933     0.0000    36.0000 </r>
       <r>    32.7929     0.0000    36.0000 </r>
       <r>    33.0924     0.0000    36.0000 </r>
       <r>    33.3920     0.0000    36.0000 </r>
       <r>    33.6916     0.0000    36.0000 </r>
       <r>    33.9912     0.0000    36.0000 </r>
      </set>
     </set>
    </array>
   </total>
  </dos>
 </calculation>
 <structure name="finalpos" >
  <crystal>
   <varray name="basis" >
    <v>       1.56679400      -2.71376700       0.00000000 </v>
    <v>       1.56679400       2.71376700       0.00000000 </v>
    <v>       0.00000000       0.00000000       3.52334100 </v>
   </varray>
   <i name="volume">     29.96188481 </i>
   <varray name="rec_basis" >
    <v>       0.31912300      -0.18424574       0.00000000 </v>
    <v>       0.31912300       0.18424574       0.00000000 </v>
    <v>       0.00000000       0.00000000       0.28382152 </v>
   </varray>
  </crystal>
  <varray name="positions" >
   <v>       0.33333300       0.66666700       0.50000000 </v>
   <v>       0.00000000       0.00000000       0.00000000 </v>
  </varray>
 </structure>
</modeling>
