 vasp.6.2.0 18Jan21 (build Jan 05 2022 15:41:44) complex                        
  
 executed on             LinuxIFC date 2025.05.07  20:28:33
 running on   24 total cores
 distrk:  each k-point on   12 cores,    2 groups
 distr:  one band on NCORE=   2 cores,    6 groups


--------------------------------------------------------------------------------------------------------


 INCAR:
   SYSTEM = routine with relax: pwdword
   ICHARG = 2
   NPAR = 6
   KPAR = 2
   NCORE = 2
   ADDGRID = T
   PREC = Acc
   ENCUT = 600
   METAGGA = R2SCAN
   LASPH = .TRUE.
   LMIXTAU = .FALSE.
   ALGO = A
   EDIFF = 1E-9
   NELM = 100
   NELMIN = 6
   IALGO = 38
   LREAL = F
   NSW = 0
   ISIF = -1
   ISMEAR = 0
   SIGMA = 0.02

 POTCAR:    PAW_PBE B 06Sep2000                   
 POTCAR:    PAW_PBE Mo_sv 02Feb2006               
 POTCAR:    PAW_PBE Si 05Jan2001                  
 -----------------------------------------------------------------------------
|                                                                             |
|           W    W    AA    RRRRR   N    N  II  N    N   GGGG   !!!           |
|           W    W   A  A   R    R  NN   N  II  NN   N  G    G  !!!           |
|           W    W  A    A  R    R  N N  N  II  N N  N  G       !!!           |
|           W WW W  AAAAAA  RRRRR   N  N N  II  N  N N  G  GGG   !            |
|           WW  WW  A    A  R   R   N   NN  II  N   NN  G    G                |
|           W    W  A    A  R    R  N    N  II  N    N   GGGG   !!!           |
|                                                                             |
|     For optimal performance we recommend to set                             |
|       NCORE = 2 up to number-of-cores-per-socket                            |
|     NCORE specifies how many cores store one orbital (NPAR=cpu/NCORE).      |
|     This setting can greatly improve the performance of VASP for DFT.       |
|     The default, NCORE=1 might be grossly inefficient on modern             |
|     multi-core architectures or massively parallel machines. Do your        |
|     own testing! More info at https://www.vasp.at/wiki/index.php/NCORE      |
|     Unfortunately you need to use the default for GW and RPA                |
|     calculations (for HF NCORE is supported but not extensively tested      |
|     yet).                                                                   |
|                                                                             |
 -----------------------------------------------------------------------------

 POTCAR:    PAW_PBE B 06Sep2000                   
   VRHFIN =B: s2p1                                                                                  
   LEXCH  = PE                                                                                      
   EATOM  =    71.1703 eV,    5.2309 Ry                                                             
                                                                                                    
   TITEL  = PAW_PBE B 06Sep2000                                                                     
   LULTRA =        F    use ultrasoft PP ?                                                          
   IUNSCR =        1    unscreen: 0-lin 1-nonlin 2-no                                               
   RPACOR =    1.200    partial core radius                                                         
   POMASS =   10.811; ZVAL   =    3.000    mass and valenz                                          
   RCORE  =    1.700    outmost cutoff radius                                                       
   RWIGS  =    1.710; RWIGS  =    0.905    wigner-seitz radius (au A)                               
   ENMAX  =  318.614; ENMIN  =  238.960 eV                                                          
   ICORE  =        2    local potential                                                             
   LCOR   =        T    correct aug charges                                                         
   LPAW   =        T    paw PP                                                                      
   EAUG   =  535.514                                                                                
   DEXC   =    0.000                                                                                
   RMAX   =    1.732    core radius for proj-oper                                                   
   RAUG   =    1.300    factor for augmentation sphere                                              
   RDEP   =    1.757    radius for radial grids                                                     
   RDEPT  =    1.436    core radius for aug-charge                                                  
                                                                                                    
   Atomic configuration                                                                             
    4 entries                                                                                       
     n  l   j            E        occ.                                                              
     1  0  0.50      -180.5896   2.0000                                                             
     2  0  0.50        -9.4431   2.0000                                                             
     2  1  0.50        -3.6068   1.0000                                                             
     3  2  1.50        -4.0817   0.0000                                                             
   Description                                                                                      
     l       E           TYP  RCUT    TYP  RCUT                                                     
     0     -9.4430752     23  1.500                                                                 
     0      0.8675899     23  1.500                                                                 
     1     -3.6067955     23  1.700                                                                 
     1      6.1086146     23  1.700                                                                 
     2     -4.0817478      7  1.700                                                                 
  local pseudopotential read in
  partial core-charges read in
  partial kinetic energy density read in
  atomic valenz-charges read in
  non local Contribution for L=           0  read in
    real space projection operators read in
  non local Contribution for L=           0  read in
    real space projection operators read in
  non local Contribution for L=           1  read in
    real space projection operators read in
  non local Contribution for L=           1  read in
    real space projection operators read in
    PAW grid and wavefunctions read in
 
   number of l-projection  operators is LMAX  =           4
   number of lm-projection operators is LMMAX =           8
 
 POTCAR:    PAW_PBE Mo_sv 02Feb2006               
   VRHFIN =Mo: 4p5s4d                                                                               
   LEXCH  = PE                                                                                      
   EATOM  =  1862.2866 eV,  136.8742 Ry                                                             
                                                                                                    
   TITEL  = PAW_PBE Mo_sv 02Feb2006                                                                 
   LULTRA =        F    use ultrasoft PP ?                                                          
   IUNSCR =        1    unscreen: 0-lin 1-nonlin 2-no                                               
   RPACOR =    2.200    partial core radius                                                         
   POMASS =   95.940; ZVAL   =   14.000    mass and valenz                                          
   RCORE  =    2.500    outmost cutoff radius                                                       
   RWIGS  =    2.750; RWIGS  =    1.455    wigner-seitz radius (au A)                               
   ENMAX  =  242.676; ENMIN  =  182.007 eV                                                          
   ICORE  =        3    local potential                                                             
   LCOR   =        T    correct aug charges                                                         
   LPAW   =        T    paw PP                                                                      
   EAUG   =  446.014                                                                                
   DEXC   =    0.000                                                                                
   RMAX   =    2.563    core radius for proj-oper                                                   
   RAUG   =    1.300    factor for augmentation sphere                                              
   RDEP   =    2.641    radius for radial grids                                                     
   RDEPT  =    2.031    core radius for aug-charge                                                  
                                                                                                    
   Atomic configuration                                                                             
   11 entries                                                                                       
     n  l   j            E        occ.                                                              
     1  0  0.50    -19819.0341   2.0000                                                             
     2  0  0.50     -2799.0127   2.0000                                                             
     2  1  1.50     -2502.0276   6.0000                                                             
     3  0  0.50      -476.4449   2.0000                                                             
     3  1  1.50      -379.1496   6.0000                                                             
     3  2  2.50      -220.9367  10.0000                                                             
     4  0  0.50       -64.3378   2.0000                                                             
     5  0  0.50        -4.0862   1.0000                                                             
     4  1  1.50       -38.4773   6.0000                                                             
     4  2  2.50        -3.7535   5.0000                                                             
     4  3  2.50        -1.3606   0.0000                                                             
   Description                                                                                      
     l       E           TYP  RCUT    TYP  RCUT                                                     
     0    -64.3377829     23  2.100                                                                 
     0     -4.0861640     23  2.400                                                                 
     1    -38.4772993     23  2.100                                                                 
     1     13.6058260     23  2.100                                                                 
     2     -3.7534941     23  2.400                                                                 
     2     -5.1140767     23  2.400                                                                 
     3     -4.0817478     23  2.500                                                                 
  local pseudopotential read in
  partial core-charges read in
  partial kinetic energy density read in
  atomic valenz-charges read in
  non local Contribution for L=           0  read in
    real space projection operators read in
  non local Contribution for L=           0  read in
    real space projection operators read in
  non local Contribution for L=           1  read in
    real space projection operators read in
  non local Contribution for L=           1  read in
    real space projection operators read in
  non local Contribution for L=           2  read in
    real space projection operators read in
  non local Contribution for L=           2  read in
    real space projection operators read in
    PAW grid and wavefunctions read in
 
   number of l-projection  operators is LMAX  =           6
   number of lm-projection operators is LMMAX =          18
 
 POTCAR:    PAW_PBE Si 05Jan2001                  
   VRHFIN =Si: s2p2                                                                                 
   LEXCH  = PE                                                                                      
   EATOM  =   103.0669 eV,    7.5752 Ry                                                             
                                                                                                    
   TITEL  = PAW_PBE Si 05Jan2001                                                                    
   LULTRA =        F    use ultrasoft PP ?                                                          
   IUNSCR =        1    unscreen: 0-lin 1-nonlin 2-no                                               
   RPACOR =    1.500    partial core radius                                                         
   POMASS =   28.085; ZVAL   =    4.000    mass and valenz                                          
   RCORE  =    1.900    outmost cutoff radius                                                       
   RWIGS  =    2.480; RWIGS  =    1.312    wigner-seitz radius (au A)                               
   ENMAX  =  245.345; ENMIN  =  184.009 eV                                                          
   ICORE  =        2    local potential                                                             
   LCOR   =        T    correct aug charges                                                         
   LPAW   =        T    paw PP                                                                      
   EAUG   =  322.069                                                                                
   DEXC   =    0.000                                                                                
   RMAX   =    1.950    core radius for proj-oper                                                   
   RAUG   =    1.300    factor for augmentation sphere                                              
   RDEP   =    1.993    radius for radial grids                                                     
   RDEPT  =    1.837    core radius for aug-charge                                                  
                                                                                                    
   Atomic configuration                                                                             
    6 entries                                                                                       
     n  l   j            E        occ.                                                              
     1  0  0.50     -1785.8828   2.0000                                                             
     2  0  0.50      -139.4969   2.0000                                                             
     2  1  1.50       -95.5546   6.0000                                                             
     3  0  0.50       -10.8127   2.0000                                                             
     3  1  0.50        -4.0811   2.0000                                                             
     3  2  1.50        -4.0817   0.0000                                                             
   Description                                                                                      
     l       E           TYP  RCUT    TYP  RCUT                                                     
     0    -10.8127223     23  1.900                                                                 
     0     -7.6451159     23  1.900                                                                 
     1     -4.0811372     23  1.900                                                                 
     1      2.4879257     23  1.900                                                                 
     2     -4.0817478      7  1.900                                                                 
  local pseudopotential read in
  partial core-charges read in
  partial kinetic energy density read in
  atomic valenz-charges read in
  non local Contribution for L=           0  read in
    real space projection operators read in
  non local Contribution for L=           0  read in
    real space projection operators read in
  non local Contribution for L=           1  read in
    real space projection operators read in
  non local Contribution for L=           1  read in
    real space projection operators read in
    PAW grid and wavefunctions read in
 
   number of l-projection  operators is LMAX  =           4
   number of lm-projection operators is LMMAX =           8
 
  PAW_PBE B 06Sep2000                   :
 energy of atom  1       EATOM=  -71.1703
 kinetic energy error for atom=    0.0007 (will be added to EATOM!!)
  PAW_PBE Mo_sv 02Feb2006               :
 energy of atom  2       EATOM=-1862.2866
 kinetic energy error for atom=    0.0041 (will be added to EATOM!!)
  PAW_PBE Si 05Jan2001                  :
 energy of atom  3       EATOM= -103.0669
 kinetic energy error for atom=    0.0003 (will be added to EATOM!!)
 
 
 POSCAR: EA221
  positions in direct lattice
  No initial velocities read in

 METAGGA = R2SCA    LMAXTAU =  6    LMIXTAU =  F

 exchange correlation table for  LEXCH =        8
   RHO(1)=    0.500       N(1)  =     2000
   RHO(2)=  100.500       N(2)  =     4000
 


--------------------------------------------------------------------------------------------------------


 ion  position               nearest neighbor table
   1  0.034  0.534  0.200-  11 1.71  16 2.23  12 2.48
   2  0.966  0.466  0.800-  10 1.71  15 2.23  12 2.48
   3  0.534  0.334  0.500-  10 1.71  13 2.23   9 2.48
   4  0.466  0.666  0.500-  11 1.71  14 2.23   9 2.48
   5  0.334  0.834  0.800-  11 1.71  15 2.23  12 2.48
   6  0.666  0.166  0.200-  10 1.71  16 2.23  12 2.48
   7  0.834  0.034  0.500-  10 1.71  14 2.23   9 2.48
   8  0.166  0.966  0.500-  11 1.71  13 2.23   9 2.48
   9  0.500  0.000  0.500-   3 2.48   4 2.48   7 2.48   8 2.48  15 2.54  16 2.54  10 2.63  11 2.63
                            13 2.66  14 2.66
  10  0.750  0.250  0.500-   2 1.71   6 1.71   3 1.71   7 1.71   9 2.63  12 2.63
  11  0.250  0.750  0.500-   1 1.71   5 1.71   4 1.71   8 1.71   9 2.63  12 2.63
  12  0.000  0.500  0.500-   5 2.48   6 2.48   1 2.48   2 2.48  13 2.54  14 2.54  10 2.63  11 2.63
                            15 2.66  16 2.66
  13  0.244  0.256  0.500-   8 2.23   3 2.23  12 2.54   9 2.66
  14  0.756  0.744  0.500-   7 2.23   4 2.23  12 2.54   9 2.66
  15  0.256  0.756  0.011-   2 2.23   5 2.23   9 2.54  12 2.66
  16  0.744  0.244  0.989-   1 2.23   6 2.23   9 2.54  12 2.66
 
  LATTYP: Found a body centered tetragonal cell.
 ALAT       =     7.3571347587
 C/A-ratio  =     1.4300866015
  
  Lattice vectors:
  
 A1 = (   6.3833099424,   0.0000000000,  -3.7405743252)
 A2 = (  -2.0962701873,   6.0292866180,  -3.7405743252)
 A3 = (   0.0000000000,   0.0000000000,   7.3985500000)


Analysis of symmetry for initial positions (statically):
=====================================================================
 Subroutine PRICEL returns:
 Original cell was already a primitive cell.
 

 Routine SETGRP: Setting up the symmetry group for a 
 body centered tetragonal supercell.


 Subroutine GETGRP returns: Found 16 space group operations
 (whereof  8 operations were pure point group operations)
 out of a pool of 16 trial point group operations.


The static configuration has the point symmetry C_4h.
 The point group associated with its full space group is D_4h.


Analysis of symmetry for dynamics (positions and initial velocities):
=====================================================================
 Subroutine PRICEL returns:
 Original cell was already a primitive cell.
 

 Routine SETGRP: Setting up the symmetry group for a 
 body centered tetragonal supercell.


 Subroutine GETGRP returns: Found 16 space group operations
 (whereof  8 operations were pure point group operations)
 out of a pool of 16 trial point group operations.


The dynamic configuration has the point symmetry C_4h.
 The point group associated with its full space group is D_4h.


 Subroutine INISYM returns: Found 16 space group operations
 (whereof  8 operations are pure point group operations),
 and found     1 'primitive' translations


----------------------------------------------------------------------------------------

                                     Primitive cell                                     

  volume of cell :     284.7466

  direct lattice vectors                    reciprocal lattice vectors
     6.383309942  0.000000000 -3.740574325     0.156658538  0.054467243  0.000000000
    -2.096270187  6.029286618 -3.740574325     0.000000000  0.165857101  0.000000000
     0.000000000  0.000000000  7.398550000     0.079203750  0.111392041  0.135161620

  length of vectors
     7.398550000  7.398550000  7.398550000     0.165857101  0.165857101  0.192224047

  position of ions in fractional coordinates (direct lattice)
     0.034180000  0.534180000  0.200490000
     0.965820000  0.465820000  0.799510000
     0.534180000  0.333690000  0.500000000
     0.465820000  0.666310000  0.500000000
     0.333690000  0.833690000  0.799510000
     0.666310000  0.166310000  0.200490000
     0.833690000  0.034180000  0.500000000
     0.166310000  0.965820000  0.500000000
     0.500000000  0.000000000  0.500000000
     0.750000000  0.250000000  0.500000000
     0.250000000  0.750000000  0.500000000
     0.000000000  0.500000000  0.500000000
     0.244470000  0.255530000  0.500000000
     0.755530000  0.744470000  0.500000000
     0.255530000  0.755530000  0.011060000
     0.744470000  0.244470000  0.988940000

  ion indices of the primitive-cell ions
   primitive index   ion index
                 1           1
                 2           2
                 3           3
                 4           4
                 5           5
                 6           6
                 7           7
                 8           8
                 9           9
                10          10
                11          11
                12          12
                13          13
                14          14
                15          15
                16          16

----------------------------------------------------------------------------------------

 
 
 KPOINTS: EA                                      

Automatic generation of k-mesh.
 Grid dimensions read from file:
 generate k-points for:    6    6    7

 Generating k-lattice:

  Cartesian coordinates                     Fractional coordinates (reciprocal lattice)
     0.026109756  0.009077874  0.000000000     0.166666667  0.000000000  0.000000000
     0.000000000  0.027642850  0.000000000     0.000000000  0.166666667  0.000000000
     0.011314821  0.015913149  0.019308803     0.000000000  0.000000000  0.142857143

  Length of vectors
     0.027642850  0.027642850  0.027460578

  Shift w.r.t. Gamma in fractional coordinates (k-lattice)
     0.000000000  0.000000000  0.000000000

 -----------------------------------------------------------------------------
|                                                                             |
|           W    W    AA    RRRRR   N    N  II  N    N   GGGG   !!!           |
|           W    W   A  A   R    R  NN   N  II  NN   N  G    G  !!!           |
|           W    W  A    A  R    R  N N  N  II  N N  N  G       !!!           |
|           W WW W  AAAAAA  RRRRR   N  N N  II  N  N N  G  GGG   !            |
|           WW  WW  A    A  R   R   N   NN  II  N   NN  G    G                |
|           W    W  A    A  R    R  N    N  II  N    N   GGGG   !!!           |
|                                                                             |
|     Your reciprocal lattice and k-lattice belong to different lattice       |
|     classes:                                                                |
|                                                                             |
|        The reciprocal lattice is body-centered tetragonal,                  |
|        whereas your k-lattice is base-centered monoclinic.                  |
|                                                                             |
|     Results are often still useful ...                                      |
|                                                                             |
 -----------------------------------------------------------------------------

 WARNING: IBZKPT: internal override: KBLOWUP is changed to .FALSE.
      ... skipping the blow-up phase ...

 
 Subroutine IBZKPT returns following result:
 ===========================================
 
 Found     76 irreducible k-points:
 
 Following reciprocal coordinates:
            Coordinates               Weight
  0.000000  0.000000  0.000000      1.000000
  0.166667  0.000000  0.000000      4.000000
  0.333333 -0.000000  0.000000      4.000000
  0.500000  0.000000  0.000000      2.000000
  0.166667  0.166667  0.000000      2.000000
  0.333333  0.166667  0.000000      4.000000
  0.500000  0.166667  0.000000      4.000000
 -0.333333  0.166667  0.000000      4.000000
 -0.166667  0.166667  0.000000      2.000000
  0.333333  0.333333  0.000000      2.000000
  0.500000  0.333333  0.000000      4.000000
 -0.333333  0.333333  0.000000      2.000000
  0.500000  0.500000  0.000000      1.000000
 -0.000000  0.000000  0.142857      2.000000
  0.166667  0.000000  0.142857      4.000000
  0.333333 -0.000000  0.142857      4.000000
  0.500000 -0.000000  0.142857      4.000000
 -0.333333  0.000000  0.142857      4.000000
 -0.166667  0.000000  0.142857      4.000000
  0.166667  0.166667  0.142857      2.000000
  0.333333  0.166667  0.142857      4.000000
  0.500000  0.166667  0.142857      4.000000
 -0.333333  0.166667  0.142857      4.000000
 -0.166667  0.166667  0.142857      4.000000
  0.333333  0.333333  0.142857      2.000000
  0.500000  0.333333  0.142857      4.000000
 -0.333333  0.333333  0.142857      4.000000
 -0.166667  0.333333  0.142857      4.000000
  0.500000  0.500000  0.142857      2.000000
 -0.333333  0.500000  0.142857      4.000000
 -0.166667  0.500000  0.142857      4.000000
 -0.333333 -0.333333  0.142857      2.000000
 -0.166667 -0.333333  0.142857      4.000000
 -0.166667 -0.166667  0.142857      2.000000
  0.000000  0.000000  0.285714      2.000000
  0.166667  0.000000  0.285714      4.000000
  0.333333  0.000000  0.285714      4.000000
  0.500000 -0.000000  0.285714      4.000000
 -0.333333  0.000000  0.285714      4.000000
 -0.166667  0.000000  0.285714      4.000000
  0.166667  0.166667  0.285714      2.000000
  0.333333  0.166667  0.285714      4.000000
  0.500000  0.166667  0.285714      4.000000
 -0.333333  0.166667  0.285714      4.000000
 -0.166667  0.166667  0.285714      4.000000
  0.333333  0.333333  0.285714      2.000000
  0.500000  0.333333  0.285714      4.000000
 -0.333333  0.333333  0.285714      4.000000
 -0.166667  0.333333  0.285714      4.000000
  0.500000  0.500000  0.285714      2.000000
 -0.333333  0.500000  0.285714      4.000000
 -0.166667  0.500000  0.285714      4.000000
 -0.333333 -0.333333  0.285714      2.000000
 -0.166667 -0.333333  0.285714      4.000000
 -0.166667 -0.166667  0.285714      2.000000
  0.000000  0.000000  0.428571      2.000000
  0.166667  0.000000  0.428571      4.000000
  0.333333 -0.000000  0.428571      4.000000
  0.500000 -0.000000  0.428571      4.000000
 -0.333333  0.000000  0.428571      4.000000
 -0.166667  0.000000  0.428571      4.000000
  0.166667  0.166667  0.428571      2.000000
  0.333333  0.166667  0.428571      4.000000
  0.500000  0.166667  0.428571      4.000000
 -0.333333  0.166667  0.428571      4.000000
 -0.166667  0.166667  0.428571      4.000000
  0.333333  0.333333  0.428571      2.000000
  0.500000  0.333333  0.428571      4.000000
 -0.333333  0.333333  0.428571      4.000000
 -0.166667  0.333333  0.428571      4.000000
  0.500000  0.500000  0.428571      2.000000
 -0.333333  0.500000  0.428571      4.000000
 -0.166667  0.500000  0.428571      4.000000
 -0.333333 -0.333333  0.428571      2.000000
 -0.166667 -0.333333  0.428571      4.000000
 -0.166667 -0.166667  0.428571      2.000000
 
 Following cartesian coordinates:
            Coordinates               Weight
  0.000000  0.000000  0.000000      1.000000
  0.026110  0.009078  0.000000      4.000000
  0.052220  0.018156  0.000000      4.000000
  0.078329  0.027234  0.000000      2.000000
  0.026110  0.036721  0.000000      2.000000
  0.052220  0.045799  0.000000      4.000000
  0.078329  0.054876  0.000000      4.000000
 -0.052220  0.009487  0.000000      4.000000
 -0.026110  0.018565  0.000000      2.000000
  0.052220  0.073441  0.000000      2.000000
  0.078329  0.082519  0.000000      4.000000
 -0.052220  0.037130  0.000000      2.000000
  0.078329  0.110162  0.000000      1.000000
  0.011315  0.015913  0.019309      2.000000
  0.037425  0.024991  0.019309      4.000000
  0.063534  0.034069  0.019309      4.000000
  0.089644  0.043147  0.019309      4.000000
 -0.040905 -0.002243  0.019309      4.000000
 -0.014795  0.006835  0.019309      4.000000
  0.037425  0.052634  0.019309      2.000000
  0.063534  0.061712  0.019309      4.000000
  0.089644  0.070790  0.019309      4.000000
 -0.040905  0.025400  0.019309      4.000000
 -0.014795  0.034478  0.019309      4.000000
  0.063534  0.089355  0.019309      2.000000
  0.089644  0.098432  0.019309      4.000000
 -0.040905  0.053043  0.019309      4.000000
 -0.014795  0.062121  0.019309      4.000000
  0.089644  0.126075  0.019309      2.000000
 -0.040905  0.080686  0.019309      4.000000
 -0.014795  0.089764  0.019309      4.000000
 -0.040905 -0.057528  0.019309      2.000000
 -0.014795 -0.048450  0.019309      4.000000
 -0.014795 -0.020808  0.019309      2.000000
  0.022630  0.031826  0.038618      2.000000
  0.048739  0.040904  0.038618      4.000000
  0.074849  0.049982  0.038618      4.000000
  0.100959  0.059060  0.038618      4.000000
 -0.029590  0.013671  0.038618      4.000000
 -0.003480  0.022748  0.038618      4.000000
  0.048739  0.068547  0.038618      2.000000
  0.074849  0.077625  0.038618      4.000000
  0.100959  0.086703  0.038618      4.000000
 -0.029590  0.041313  0.038618      4.000000
 -0.003480  0.050391  0.038618      4.000000
  0.074849  0.105268  0.038618      2.000000
  0.100959  0.114346  0.038618      4.000000
 -0.029590  0.068956  0.038618      4.000000
 -0.003480  0.078034  0.038618      4.000000
  0.100959  0.141988  0.038618      2.000000
 -0.029590  0.096599  0.038618      4.000000
 -0.003480  0.105677  0.038618      4.000000
 -0.029590 -0.041615  0.038618      2.000000
 -0.003480 -0.032537  0.038618      4.000000
 -0.003480 -0.004894  0.038618      2.000000
  0.033944  0.047739  0.057926      2.000000
  0.060054  0.056817  0.057926      4.000000
  0.086164  0.065895  0.057926      4.000000
  0.112274  0.074973  0.057926      4.000000
 -0.018275  0.029584  0.057926      4.000000
  0.007835  0.038662  0.057926      4.000000
  0.060054  0.084460  0.057926      2.000000
  0.086164  0.093538  0.057926      4.000000
  0.112274  0.102616  0.057926      4.000000
 -0.018275  0.057227  0.057926      4.000000
  0.007835  0.066304  0.057926      4.000000
  0.086164  0.121181  0.057926      2.000000
  0.112274  0.130259  0.057926      4.000000
 -0.018275  0.084869  0.057926      4.000000
  0.007835  0.093947  0.057926      4.000000
  0.112274  0.157902  0.057926      2.000000
 -0.018275  0.112512  0.057926      4.000000
  0.007835  0.121590  0.057926      4.000000
 -0.018275 -0.025702  0.057926      2.000000
  0.007835 -0.016624  0.057926      4.000000
  0.007835  0.011019  0.057926      2.000000
 


--------------------------------------------------------------------------------------------------------




 Dimension of arrays:
   k-points           NKPTS =     76   k-points in BZ     NKDIM =     76   number of bands    NBANDS=     60
   number of dos      NEDOS =    301   number of ions     NIONS =     16
   non local maximal  LDIM  =      6   non local SUM 2l+1 LMDIM =     18
   total plane-waves  NPLWV = 216000
   max r-space proj   IRMAX =      1   max aug-charges    IRDMAX= 265556
   dimension x,y,z NGX =    60 NGY =   60 NGZ =   60
   dimension x,y,z NGXF=   120 NGYF=  120 NGZF=  120
   support grid    NGXF=   240 NGYF=  240 NGZF=  240
   ions per type =               8   4   4
   NGX,Y,Z   is equivalent  to a cutoff of  13.48, 13.48, 13.48 a.u.
   NGXF,Y,Z  is equivalent  to a cutoff of  26.96, 26.96, 26.96 a.u.

 SYSTEM =  routine with relax: pwdword             
 POSCAR =  EA221                                   

 Startparameter for this run:
   NWRITE =      2    write-flag & timer
   PREC   = acc       normal or accurate (medium, high low for compatibility)
   ISTART =      0    job   : 0-new  1-cont  2-samecut
   ICHARG =      2    charge: 1-file 2-atom 10-const
   ISPIN  =      1    spin polarized calculation?
   LNONCOLLINEAR =      F non collinear calculations
   LSORBIT =      F    spin-orbit coupling
   INIWAV =      1    electr: 0-lowe 1-rand  2-diag
   LASPH  =      T    aspherical Exc in radial PAW
   METAGGA=      F    non-selfconsistent MetaGGA calc.

 Electronic Relaxation 1
   ENCUT  =  600.0 eV  44.10 Ry    6.64 a.u.  14.78 14.78 14.78*2*pi/ulx,y,z
   ENINI  =  600.0     initial cutoff
   ENAUG  =  535.5 eV  augmentation charge cutoff
   NELM   =    100;   NELMIN=  6; NELMDL= -5     # of ELM steps 
   EDIFF  = 0.1E-08   stopping-criterion for ELM
   LREAL  =      F    real-space projection
   NLSPLINE    = F    spline interpolate recip. space projectors
   LCOMPAT=      F    compatible to vasp.4.4
   GGA_COMPAT  = T    GGA compatible to vasp.4.4-vasp.4.6
   LMAXPAW     = -100 max onsite density
   LMAXMIX     =    2 max onsite mixed and CHGCAR
   VOSKOWN=      0    Vosko Wilk Nusair interpolation
   ROPT   =    0.00000   0.00000   0.00000
 Ionic relaxation
   EDIFFG = 0.1E-07   stopping-criterion for IOM
   NSW    =      0    number of steps for IOM
   NBLOCK =      1;   KBLOCK =      1    inner block; outer block 
   IBRION =     -1    ionic relax: 0-MD 1-quasi-New 2-CG
   NFREE  =      0    steps in history (QN), initial steepest desc. (CG)
   ISIF   =     -1    stress and relaxation
   IWAVPR =     10    prediction:  0-non 1-charg 2-wave 3-comb
   ISYM   =      2    0-nonsym 1-usesym 2-fastsym
   LCORR  =      T    Harris-Foulkes like correction to forces

   POTIM  = 0.5000    time-step for ionic-motion
   TEIN   =    0.0    initial temperature
   TEBEG  =    0.0;   TEEND  =   0.0 temperature during run
   SMASS  =  -3.00    Nose mass-parameter (am)
   estimated Nose-frequenzy (Omega)   =  0.10E-29 period in steps = 0.13E+47 mass=  -0.125E-26a.u.
   SCALEE = 1.0000    scale energy and forces
   NPACO  =    256;   APACO  = 16.0  distance and # of slots for P.C.
   PSTRESS=    0.0 pullay stress

  Mass of Ions in am
   POMASS =  10.81 95.94 28.09
  Ionic Valenz
   ZVAL   =   3.00 14.00  4.00
  Atomic Wigner-Seitz radii
   RWIGS  =  -1.00 -1.00 -1.00
  virtual crystal weights 
   VCA    =   1.00  1.00  1.00
   NELECT =      96.0000    total number of electrons
   NUPDOWN=      -1.0000    fix difference up-down

 DOS related values:
   EMIN   =  10.00;   EMAX   =-10.00  energy-range for DOS
   EFERMI =   0.00
   ISMEAR =     0;   SIGMA  =   0.02  broadening in eV -4-tet -1-fermi 0-gaus

 Electronic relaxation 2 (details)
   IALGO  =     58    algorithm
   LDIAG  =      T    sub-space diagonalisation (order eigenvalues)
   LSUBROT=      F    optimize rotation matrix (better conditioning)
   TURBO    =      0    0=normal 1=particle mesh
   IRESTART =      0    0=no restart 2=restart with 2 vectors
   NREBOOT  =      0    no. of reboots
   NMIN     =      0    reboot dimension
   EREF     =   0.00    reference energy to select bands
   IMIX   =      4    mixing-type and parameters
     AMIX     =   0.40;   BMIX     =  1.00
     AMIX_MAG =   1.60;   BMIX_MAG =  1.00
     AMIN     =   0.10
     WC   =   100.;   INIMIX=   1;  MIXPRE=   1;  MAXMIX= -45

 Intra band minimization:
   WEIMIN = 0.0000     energy-eigenvalue tresh-hold
   EBREAK =  0.42E-11  absolut break condition
   DEPER  =   0.30     relativ break condition  

   TIME   =   0.40     timestep for ELM

  volume/ion in A,a.u.               =      17.80       120.10
  Fermi-wavevector in a.u.,A,eV,Ry     =   1.139408  2.153168 17.663757  1.298250
  Thomas-Fermi vector in A             =   2.276111
 
 Write flags
   LWAVE        =      T    write WAVECAR
   LDOWNSAMPLE  =      F    k-point downsampling of WAVECAR
   LCHARG       =      T    write CHGCAR
   LVTOT        =      F    write LOCPOT, total local potential
   LVHAR        =      F    write LOCPOT, Hartree potential only
   LELF         =      F    write electronic localiz. function (ELF)
   LORBIT       =      0    0 simple, 1 ext, 2 COOP (PROOUT), +10 PAW based schemes


 Dipole corrections
   LMONO  =      F    monopole corrections only (constant potential shift)
   LDIPOL =      F    correct potential (dipole corrections)
   IDIPOL =      0    1-x, 2-y, 3-z, 4-all directions 
   EPSILON=  1.0000000 bulk dielectric constant

 Exchange correlation treatment:
   GGA     =    --    GGA type
   LEXCH   =     8    internal setting for exchange type
   VOSKOWN=      0    Vosko Wilk Nusair interpolation
   LHFCALC =     F    Hartree Fock is set to
   LHFONE  =     F    Hartree Fock one center treatment
   AEXX    =    0.0000 exact exchange contribution

 Linear response parameters
   LEPSILON=     F    determine dielectric tensor
   LRPA    =     F    only Hartree local field effects (RPA)
   LNABLA  =     F    use nabla operator in PAW spheres
   LVEL    =     F    velocity operator in full k-point grid
   LINTERFAST=   F  fast interpolation
   KINTER  =     0    interpolate to denser k-point grid
   CSHIFT  =0.1000    complex shift for real part using Kramers Kronig
   OMEGAMAX=  -1.0    maximum frequency
   DEG_THRESHOLD= 0.2000000E-02 threshold for treating states as degnerate
   RTIME   =   -0.100 relaxation time in fs
  (WPLASMAI=    0.000 imaginary part of plasma frequency in eV, 0.658/RTIME)
   DFIELD  = 0.0000000 0.0000000 0.0000000 field for delta impulse in time
 
 Orbital magnetization related:
   ORBITALMAG=     F  switch on orbital magnetization
   LCHIMAG   =     F  perturbation theory with respect to B field
   DQ        =  0.001000  dq finite difference perturbation B field
   LLRAUG    =     F  two centre corrections for induced B field



--------------------------------------------------------------------------------------------------------


 Static calculation
 charge density and potential will be updated during run
 non-spin polarized calculation
 Conjugate gradient for all bands (Freysoldt, et al. PRB 79, 241103 (2009))
 preconditioned conjugated gradient                                        
 perform sub-space diagonalisation
    before iterative eigenvector-optimisation
 modified Broyden-mixing scheme, WC =      100.0
 initial mixing is a Kerker type mixing with AMIX =  0.4000 and BMIX =      1.0000
 Hartree-type preconditioning will be used
 using additional bands           12
 reciprocal scheme for non local part
 use partial core corrections
 no Harris-corrections to forces 
 use gradient corrections 
 use of overlap-Matrix (Vanderbilt PP)
 Gauss-broadening in eV      SIGMA  =   0.02


--------------------------------------------------------------------------------------------------------


  energy-cutoff  :      600.00
  volume of cell :      284.75
      direct lattice vectors                 reciprocal lattice vectors
     6.383309942  0.000000000 -3.740574325     0.156658538  0.054467243  0.000000000
    -2.096270187  6.029286618 -3.740574325     0.000000000  0.165857101  0.000000000
     0.000000000  0.000000000  7.398550000     0.079203750  0.111392041  0.135161620

  length of vectors
     7.398550000  7.398550000  7.398550000     0.165857101  0.165857101  0.192224047


 
 k-points in units of 2pi/SCALE and weight: EA                                      
   0.00000000  0.00000000  0.00000000       0.004
   0.02610976  0.00907787  0.00000000       0.016
   0.05221951  0.01815575  0.00000000       0.016
   0.07832927  0.02723362  0.00000000       0.008
   0.02610976  0.03672072  0.00000000       0.008
   0.05221951  0.04579860  0.00000000       0.016
   0.07832927  0.05487647  0.00000000       0.016
  -0.05221951  0.00948710  0.00000000       0.016
  -0.02610976  0.01856498  0.00000000       0.008
   0.05221951  0.07344145  0.00000000       0.008
   0.07832927  0.08251932  0.00000000       0.016
  -0.05221951  0.03712995  0.00000000       0.008
   0.07832927  0.11016217  0.00000000       0.004
   0.01131482  0.01591315  0.01930880       0.008
   0.03742458  0.02499102  0.01930880       0.016
   0.06353433  0.03406890  0.01930880       0.016
   0.08964409  0.04314677  0.01930880       0.016
  -0.04090469 -0.00224260  0.01930880       0.016
  -0.01479493  0.00683527  0.01930880       0.016
   0.03742458  0.05263387  0.01930880       0.008
   0.06353433  0.06171175  0.01930880       0.016
   0.08964409  0.07078962  0.01930880       0.016
  -0.04090469  0.02540025  0.01930880       0.016
  -0.01479493  0.03447813  0.01930880       0.016
   0.06353433  0.08935460  0.01930880       0.008
   0.08964409  0.09843247  0.01930880       0.016
  -0.04090469  0.05304310  0.01930880       0.016
  -0.01479493  0.06212098  0.01930880       0.016
   0.08964409  0.12607532  0.01930880       0.008
  -0.04090469  0.08068595  0.01930880       0.016
  -0.01479493  0.08976383  0.01930880       0.016
  -0.04090469 -0.05752830  0.01930880       0.008
  -0.01479493 -0.04845043  0.01930880       0.016
  -0.01479493 -0.02080758  0.01930880       0.008
   0.02262964  0.03182630  0.03861761       0.008
   0.04873940  0.04090417  0.03861761       0.016
   0.07484916  0.04998205  0.03861761       0.016
   0.10095891  0.05905992  0.03861761       0.016
  -0.02958987  0.01367055  0.03861761       0.016
  -0.00348011  0.02274842  0.03861761       0.016
   0.04873940  0.06854702  0.03861761       0.008
   0.07484916  0.07762490  0.03861761       0.016
   0.10095891  0.08670277  0.03861761       0.016
  -0.02958987  0.04131340  0.03861761       0.016
  -0.00348011  0.05039127  0.03861761       0.016
   0.07484916  0.10526775  0.03861761       0.008
   0.10095891  0.11434562  0.03861761       0.016
  -0.02958987  0.06895625  0.03861761       0.016
  -0.00348011  0.07803412  0.03861761       0.016
   0.10095891  0.14198847  0.03861761       0.008
  -0.02958987  0.09659910  0.03861761       0.016
  -0.00348011  0.10567697  0.03861761       0.016
  -0.02958987 -0.04161515  0.03861761       0.008
  -0.00348011 -0.03253728  0.03861761       0.016
  -0.00348011 -0.00489443  0.03861761       0.008
   0.03394446  0.04773945  0.05792641       0.008
   0.06005422  0.05681732  0.05792641       0.016
   0.08616398  0.06589519  0.05792641       0.016
   0.11227373  0.07497307  0.05792641       0.016
  -0.01827505  0.02958370  0.05792641       0.016
   0.00783471  0.03866157  0.05792641       0.016
   0.06005422  0.08446017  0.05792641       0.008
   0.08616398  0.09353804  0.05792641       0.016
   0.11227373  0.10261592  0.05792641       0.016
  -0.01827505  0.05722655  0.05792641       0.016
   0.00783471  0.06630442  0.05792641       0.016
   0.08616398  0.12118089  0.05792641       0.008
   0.11227373  0.13025877  0.05792641       0.016
  -0.01827505  0.08486940  0.05792641       0.016
   0.00783471  0.09394727  0.05792641       0.016
   0.11227373  0.15790162  0.05792641       0.008
  -0.01827505  0.11251225  0.05792641       0.016
   0.00783471  0.12159012  0.05792641       0.016
  -0.01827505 -0.02570200  0.05792641       0.008
   0.00783471 -0.01662413  0.05792641       0.016
   0.00783471  0.01101872  0.05792641       0.008
 
 k-points in reciprocal lattice and weights: EA                                      
   0.00000000  0.00000000  0.00000000       0.004
   0.16666667  0.00000000  0.00000000       0.016
   0.33333333 -0.00000000  0.00000000       0.016
   0.50000000  0.00000000  0.00000000       0.008
   0.16666667  0.16666667  0.00000000       0.008
   0.33333333  0.16666667  0.00000000       0.016
   0.50000000  0.16666667  0.00000000       0.016
  -0.33333333  0.16666667  0.00000000       0.016
  -0.16666667  0.16666667  0.00000000       0.008
   0.33333333  0.33333333  0.00000000       0.008
   0.50000000  0.33333333  0.00000000       0.016
  -0.33333333  0.33333333  0.00000000       0.008
   0.50000000  0.50000000  0.00000000       0.004
  -0.00000000  0.00000000  0.14285714       0.008
   0.16666667  0.00000000  0.14285714       0.016
   0.33333333 -0.00000000  0.14285714       0.016
   0.50000000 -0.00000000  0.14285714       0.016
  -0.33333333  0.00000000  0.14285714       0.016
  -0.16666667  0.00000000  0.14285714       0.016
   0.16666667  0.16666667  0.14285714       0.008
   0.33333333  0.16666667  0.14285714       0.016
   0.50000000  0.16666667  0.14285714       0.016
  -0.33333333  0.16666667  0.14285714       0.016
  -0.16666667  0.16666667  0.14285714       0.016
   0.33333333  0.33333333  0.14285714       0.008
   0.50000000  0.33333333  0.14285714       0.016
  -0.33333333  0.33333333  0.14285714       0.016
  -0.16666667  0.33333333  0.14285714       0.016
   0.50000000  0.50000000  0.14285714       0.008
  -0.33333333  0.50000000  0.14285714       0.016
  -0.16666667  0.50000000  0.14285714       0.016
  -0.33333333 -0.33333333  0.14285714       0.008
  -0.16666667 -0.33333333  0.14285714       0.016
  -0.16666667 -0.16666667  0.14285714       0.008
   0.00000000  0.00000000  0.28571429       0.008
   0.16666667  0.00000000  0.28571429       0.016
   0.33333333  0.00000000  0.28571429       0.016
   0.50000000 -0.00000000  0.28571429       0.016
  -0.33333333  0.00000000  0.28571429       0.016
  -0.16666667  0.00000000  0.28571429       0.016
   0.16666667  0.16666667  0.28571429       0.008
   0.33333333  0.16666667  0.28571429       0.016
   0.50000000  0.16666667  0.28571429       0.016
  -0.33333333  0.16666667  0.28571429       0.016
  -0.16666667  0.16666667  0.28571429       0.016
   0.33333333  0.33333333  0.28571429       0.008
   0.50000000  0.33333333  0.28571429       0.016
  -0.33333333  0.33333333  0.28571429       0.016
  -0.16666667  0.33333333  0.28571429       0.016
   0.50000000  0.50000000  0.28571429       0.008
  -0.33333333  0.50000000  0.28571429       0.016
  -0.16666667  0.50000000  0.28571429       0.016
  -0.33333333 -0.33333333  0.28571429       0.008
  -0.16666667 -0.33333333  0.28571429       0.016
  -0.16666667 -0.16666667  0.28571429       0.008
   0.00000000  0.00000000  0.42857143       0.008
   0.16666667  0.00000000  0.42857143       0.016
   0.33333333 -0.00000000  0.42857143       0.016
   0.50000000 -0.00000000  0.42857143       0.016
  -0.33333333  0.00000000  0.42857143       0.016
  -0.16666667  0.00000000  0.42857143       0.016
   0.16666667  0.16666667  0.42857143       0.008
   0.33333333  0.16666667  0.42857143       0.016
   0.50000000  0.16666667  0.42857143       0.016
  -0.33333333  0.16666667  0.42857143       0.016
  -0.16666667  0.16666667  0.42857143       0.016
   0.33333333  0.33333333  0.42857143       0.008
   0.50000000  0.33333333  0.42857143       0.016
  -0.33333333  0.33333333  0.42857143       0.016
  -0.16666667  0.33333333  0.42857143       0.016
   0.50000000  0.50000000  0.42857143       0.008
  -0.33333333  0.50000000  0.42857143       0.016
  -0.16666667  0.50000000  0.42857143       0.016
  -0.33333333 -0.33333333  0.42857143       0.008
  -0.16666667 -0.33333333  0.42857143       0.016
  -0.16666667 -0.16666667  0.42857143       0.008
 
 position of ions in fractional coordinates (direct lattice) 
   0.03418000  0.53418000  0.20049000
   0.96582000  0.46582000  0.79951000
   0.53418000  0.33369000  0.50000000
   0.46582000  0.66631000  0.50000000
   0.33369000  0.83369000  0.79951000
   0.66631000  0.16631000  0.20049000
   0.83369000  0.03418000  0.50000000
   0.16631000  0.96582000  0.50000000
   0.50000000  0.00000000  0.50000000
   0.75000000  0.25000000  0.50000000
   0.25000000  0.75000000  0.50000000
   0.00000000  0.50000000  0.50000000
   0.24447000  0.25553000  0.50000000
   0.75553000  0.74447000  0.50000000
   0.25553000  0.75553000  0.01106000
   0.74447000  0.24447000  0.98894000
 
 position of ions in cartesian coordinates  (Angst):
  -0.90160407  3.22072433 -0.64265753
   5.18864383  2.80856229  0.56005888
   2.71033211  2.01191265  0.45294276
   1.57670765  4.01737397 -0.53554141
   0.38240720  5.02655596  1.54854305
   3.90463255  1.00273066 -1.63114171
   5.25005115  0.20608102  0.45294276
  -0.96301140  5.82320560 -0.53554141
   3.19165497  0.00000000  1.82898784
   4.26341491  1.50732165 -0.04129933
   0.02362485  4.52196496 -0.04129933
  -1.04813509  3.01464331  1.82898784
   1.02486786  1.54066361  1.82898784
   3.26217189  4.48862301 -1.91158649
   0.04733217  4.55530692 -3.70011711
   4.23970758  1.47397970  3.61751846
 


--------------------------------------------------------------------------------------------------------


 k-point   1 :   0.0000 0.0000 0.0000  plane waves:    9481
 k-point   2 :   0.1667 0.0000 0.0000  plane waves:    9512
 k-point   3 :   0.3333-0.0000 0.0000  plane waves:    9505
 k-point   4 :   0.5000 0.0000 0.0000  plane waves:    9496
 k-point   5 :   0.1667 0.1667 0.0000  plane waves:    9497
 k-point   6 :   0.3333 0.1667 0.0000  plane waves:    9507
 k-point   7 :   0.5000 0.1667 0.0000  plane waves:    9503
 k-point   8 :  -0.3333 0.1667 0.0000  plane waves:    9490
 k-point   9 :  -0.1667 0.1667 0.0000  plane waves:    9517
 k-point  10 :   0.3333 0.3333 0.0000  plane waves:    9508
 k-point  11 :   0.5000 0.3333 0.0000  plane waves:    9497
 k-point  12 :  -0.3333 0.3333 0.0000  plane waves:    9469
 k-point  13 :   0.5000 0.5000 0.0000  plane waves:    9500
 k-point  14 :  -0.0000 0.0000 0.1429  plane waves:    9533
 k-point  15 :   0.1667 0.0000 0.1429  plane waves:    9485
 k-point  16 :   0.3333-0.0000 0.1429  plane waves:    9506
 k-point  17 :   0.5000-0.0000 0.1429  plane waves:    9509
 k-point  18 :  -0.3333 0.0000 0.1429  plane waves:    9497
 k-point  19 :  -0.1667 0.0000 0.1429  plane waves:    9510
 k-point  20 :   0.1667 0.1667 0.1429  plane waves:    9482
 k-point  21 :   0.3333 0.1667 0.1429  plane waves:    9501
 k-point  22 :   0.5000 0.1667 0.1429  plane waves:    9485
 k-point  23 :  -0.3333 0.1667 0.1429  plane waves:    9491
 k-point  24 :  -0.1667 0.1667 0.1429  plane waves:    9491
 k-point  25 :   0.3333 0.3333 0.1429  plane waves:    9518
 k-point  26 :   0.5000 0.3333 0.1429  plane waves:    9495
 k-point  27 :  -0.3333 0.3333 0.1429  plane waves:    9486
 k-point  28 :  -0.1667 0.3333 0.1429  plane waves:    9503
 k-point  29 :   0.5000 0.5000 0.1429  plane waves:    9498
 k-point  30 :  -0.3333 0.5000 0.1429  plane waves:    9513
 k-point  31 :  -0.1667 0.5000 0.1429  plane waves:    9500
 k-point  32 :  -0.3333-0.3333 0.1429  plane waves:    9508
 k-point  33 :  -0.1667-0.3333 0.1429  plane waves:    9499
 k-point  34 :  -0.1667-0.1667 0.1429  plane waves:    9520
 k-point  35 :   0.0000 0.0000 0.2857  plane waves:    9479
 k-point  36 :   0.1667 0.0000 0.2857  plane waves:    9493
 k-point  37 :   0.3333 0.0000 0.2857  plane waves:    9510
 k-point  38 :   0.5000-0.0000 0.2857  plane waves:    9499
 k-point  39 :  -0.3333 0.0000 0.2857  plane waves:    9509
 k-point  40 :  -0.1667 0.0000 0.2857  plane waves:    9493
 k-point  41 :   0.1667 0.1667 0.2857  plane waves:    9516
 k-point  42 :   0.3333 0.1667 0.2857  plane waves:    9496
 k-point  43 :   0.5000 0.1667 0.2857  plane waves:    9506
 k-point  44 :  -0.3333 0.1667 0.2857  plane waves:    9498
 k-point  45 :  -0.1667 0.1667 0.2857  plane waves:    9501
 k-point  46 :   0.3333 0.3333 0.2857  plane waves:    9503
 k-point  47 :   0.5000 0.3333 0.2857  plane waves:    9519
 k-point  48 :  -0.3333 0.3333 0.2857  plane waves:    9513
 k-point  49 :  -0.1667 0.3333 0.2857  plane waves:    9518
 k-point  50 :   0.5000 0.5000 0.2857  plane waves:    9528
 k-point  51 :  -0.3333 0.5000 0.2857  plane waves:    9504
 k-point  52 :  -0.1667 0.5000 0.2857  plane waves:    9499
 k-point  53 :  -0.3333-0.3333 0.2857  plane waves:    9502
 k-point  54 :  -0.1667-0.3333 0.2857  plane waves:    9502
 k-point  55 :  -0.1667-0.1667 0.2857  plane waves:    9513
 k-point  56 :   0.0000 0.0000 0.4286  plane waves:    9500
 k-point  57 :   0.1667 0.0000 0.4286  plane waves:    9504
 k-point  58 :   0.3333-0.0000 0.4286  plane waves:    9509
 k-point  59 :   0.5000-0.0000 0.4286  plane waves:    9514
 k-point  60 :  -0.3333 0.0000 0.4286  plane waves:    9511
 k-point  61 :  -0.1667 0.0000 0.4286  plane waves:    9488
 k-point  62 :   0.1667 0.1667 0.4286  plane waves:    9497
 k-point  63 :   0.3333 0.1667 0.4286  plane waves:    9515
 k-point  64 :   0.5000 0.1667 0.4286  plane waves:    9508
 k-point  65 :  -0.3333 0.1667 0.4286  plane waves:    9506
 k-point  66 :  -0.1667 0.1667 0.4286  plane waves:    9503
 k-point  67 :   0.3333 0.3333 0.4286  plane waves:    9517
 k-point  68 :   0.5000 0.3333 0.4286  plane waves:    9500
 k-point  69 :  -0.3333 0.3333 0.4286  plane waves:    9506
 k-point  70 :  -0.1667 0.3333 0.4286  plane waves:    9507
 k-point  71 :   0.5000 0.5000 0.4286  plane waves:    9522
 k-point  72 :  -0.3333 0.5000 0.4286  plane waves:    9502
 k-point  73 :  -0.1667 0.5000 0.4286  plane waves:    9507
 k-point  74 :  -0.3333-0.3333 0.4286  plane waves:    9493
 k-point  75 :  -0.1667-0.3333 0.4286  plane waves:    9510
 k-point  76 :  -0.1667-0.1667 0.4286  plane waves:    9488

 maximum and minimum number of plane-waves per node :      4774     4728

 maximum number of plane-waves:      9533
 maximum index in each direction: 
   IXMAX=   15   IYMAX=   15   IZMAX=   14
   IXMIN=  -15   IYMIN=  -15   IZMIN=  -15


 parallel 3D FFT for wavefunctions:
    minimum data exchange during FFTs selected (reduces bandwidth)
 parallel 3D FFT for charge:
    minimum data exchange during FFTs selected (reduces bandwidth)


 total amount of memory used by VASP MPI-rank0   408084. kBytes
=======================================================================

   base      :      30000. kBytes
   nonl-proj :     158028. kBytes
   fftplans  :      24334. kBytes
   grid      :      18307. kBytes
   one-center:        124. kBytes
   wavefun   :     177291. kBytes
 
     INWAV:  cpu time    0.0001: real time    0.0001
 Broyden mixing: mesh for mixing (old mesh)
   NGX = 29   NGY = 29   NGZ = 29
  (NGX  =120   NGY  =120   NGZ  =120)
  gives a total of  24389 points

 initial charge density was supplied:
 charge density of overlapping atoms calculated
 number of electron      96.0000000 magnetization 
 keeping initial charge density in first step


--------------------------------------------------------------------------------------------------------


 Maximum index for augmentation-charges        21627 (set IRDMAX)


--------------------------------------------------------------------------------------------------------


 First call to EWALD:  gamma=   0.269
 Maximum number of real-space cells 3x 3x 3
 Maximum number of reciprocal cells 3x 3x 3

    FEWALD:  cpu time    0.0141: real time    0.0143


--------------------------------------- Iteration      1(   1)  ---------------------------------------


    POTLOK:  cpu time    0.2432: real time    0.2456
    SETDIJ:  cpu time    0.6570: real time    0.6620
    TRIAL :  cpu time   34.8687: real time   35.2227
    CORREC:  cpu time    0.0014: real time    0.0014
    --------------------------------------------
      LOOP:  cpu time   35.8766: real time   36.2441

 eigenvalue-minimisations  : 10056
 total energy-change (2. order) : 0.7217826E+03  (-0.5851750E+04)
 number of electron      96.0000000 magnetization 
 augmentation part       96.0000000 magnetization 

 Free energy of the ion-electron system (eV)
  ---------------------------------------------------
  alpha Z        PSCENC =       250.71546970
  Ewald energy   TEWEN  =     -4351.93086864
  -Hartree energ DENC   =     -3609.16794616
  -exchange      EXHF   =         0.00000000
  -V(xc)+E(xc)   XCENC  =       350.54815472
  PAW double counting   =      6611.66570361    -6558.23787492
  entropy T*S    EENTRO =        -0.00137261
  eigenvalues    EBANDS =      -402.56176216
  atomic energy  EATOM  =      8430.75312730
  ---------------------------------------------------
  free energy    TOTEN  =       721.78263084 eV

  energy without entropy =      721.78400345  energy(sigma->0) =      721.78331715


--------------------------------------------------------------------------------------------------------




--------------------------------------- Iteration      1(   2)  ---------------------------------------


    TRIAL :  cpu time   36.7186: real time   37.0964
    CORREC:  cpu time    0.0012: real time    0.0012
    --------------------------------------------
      LOOP:  cpu time   36.7226: real time   37.1011

 eigenvalue-minimisations  : 10644
 total energy-change (2. order) :-0.8836836E+03  (-0.8504381E+03)
 number of electron      96.0000000 magnetization 
 augmentation part       96.0000000 magnetization 

 Free energy of the ion-electron system (eV)
  ---------------------------------------------------
  alpha Z        PSCENC =       250.71546970
  Ewald energy   TEWEN  =     -4351.93086864
  -Hartree energ DENC   =     -3609.16794616
  -exchange      EXHF   =         0.00000000
  -V(xc)+E(xc)   XCENC  =       350.54815472
  PAW double counting   =      6611.66570361    -6558.23787492
  entropy T*S    EENTRO =        -0.00110284
  eigenvalues    EBANDS =     -1286.24568144
  atomic energy  EATOM  =      8430.75312730
  ---------------------------------------------------
  free energy    TOTEN  =      -161.90101867 eV

  energy without entropy =     -161.89991583  energy(sigma->0) =     -161.90046725


--------------------------------------------------------------------------------------------------------




--------------------------------------- Iteration      1(   3)  ---------------------------------------


    TRIAL :  cpu time   40.2899: real time   40.7011
    CORREC:  cpu time    0.0013: real time    0.0013
    --------------------------------------------
      LOOP:  cpu time   40.2929: real time   40.7055

 eigenvalue-minimisations  : 11940
 total energy-change (2. order) :-0.4256874E+02  (-0.4044062E+02)
 number of electron      96.0000000 magnetization 
 augmentation part       96.0000000 magnetization 

 Free energy of the ion-electron system (eV)
  ---------------------------------------------------
  alpha Z        PSCENC =       250.71546970
  Ewald energy   TEWEN  =     -4351.93086864
  -Hartree energ DENC   =     -3609.16794616
  -exchange      EXHF   =         0.00000000
  -V(xc)+E(xc)   XCENC  =       350.54815472
  PAW double counting   =      6611.66570361    -6558.23787492
  entropy T*S    EENTRO =        -0.00120939
  eigenvalues    EBANDS =     -1328.81431015
  atomic energy  EATOM  =      8430.75312730
  ---------------------------------------------------
  free energy    TOTEN  =      -204.46975394 eV

  energy without entropy =     -204.46854455  energy(sigma->0) =     -204.46914924


--------------------------------------------------------------------------------------------------------




--------------------------------------- Iteration      1(   4)  ---------------------------------------


    TRIAL :  cpu time   39.3764: real time   39.7808
    CORREC:  cpu time    0.0013: real time    0.0013
    --------------------------------------------
      LOOP:  cpu time   39.3788: real time   39.7850

 eigenvalue-minimisations  : 11424
 total energy-change (2. order) :-0.1096144E+01  (-0.1083137E+01)
 number of electron      96.0000000 magnetization 
 augmentation part       96.0000000 magnetization 

 Free energy of the ion-electron system (eV)
  ---------------------------------------------------
  alpha Z        PSCENC =       250.71546970
  Ewald energy   TEWEN  =     -4351.93086864
  -Hartree energ DENC   =     -3609.16794616
  -exchange      EXHF   =         0.00000000
  -V(xc)+E(xc)   XCENC  =       350.54815472
  PAW double counting   =      6611.66570361    -6558.23787492
  entropy T*S    EENTRO =        -0.00120954
  eigenvalues    EBANDS =     -1329.91045364
  atomic energy  EATOM  =      8430.75312730
  ---------------------------------------------------
  free energy    TOTEN  =      -205.56589758 eV

  energy without entropy =     -205.56468803  energy(sigma->0) =     -205.56529281


--------------------------------------------------------------------------------------------------------




--------------------------------------- Iteration      1(   5)  ---------------------------------------


    TRIAL :  cpu time   40.6594: real time   41.0743
    CORREC:  cpu time    0.0013: real time    0.0013
    CHARGE:  cpu time    2.2804: real time    2.3044
    --------------------------------------------
      LOOP:  cpu time   42.9432: real time   43.3828

 eigenvalue-minimisations  : 12312
 total energy-change (2. order) :-0.3303427E-01  (-0.3300827E-01)
 number of electron      96.0000001 magnetization 
 augmentation part        8.3170304 magnetization 

 Free energy of the ion-electron system (eV)
  ---------------------------------------------------
  alpha Z        PSCENC =       250.71546970
  Ewald energy   TEWEN  =     -4351.93086864
  -Hartree energ DENC   =     -3609.16794616
  -exchange      EXHF   =         0.00000000
  -V(xc)+E(xc)   XCENC  =       350.54815472
  PAW double counting   =      6611.66570361    -6558.23787492
  entropy T*S    EENTRO =        -0.00122614
  eigenvalues    EBANDS =     -1329.94347131
  atomic energy  EATOM  =      8430.75312730
  ---------------------------------------------------
  free energy    TOTEN  =      -205.59893185 eV

  energy without entropy =     -205.59770571  energy(sigma->0) =     -205.59831878


--------------------------------------------------------------------------------------------------------




--------------------------------------- Iteration      1(   6)  ---------------------------------------


    POTLOK:  cpu time    0.2810: real time    0.2828
    SETDIJ:  cpu time    0.6643: real time    0.6697
    TRIAL :  cpu time   29.6081: real time   29.9468
    CORREC:  cpu time   11.1395: real time   11.2368
    CHARGE:  cpu time    2.5048: real time    2.5293
    --------------------------------------------
      LOOP:  cpu time   44.2118: real time   44.6802

 eigenvalue-minimisations  :     0
 total energy-change (2. order) : 0.8090580E+02  (-0.3305776E+02)
 number of electron      96.0000000 magnetization 
 augmentation part        8.8208599 magnetization 

 Free energy of the ion-electron system (eV)
  ---------------------------------------------------
  alpha Z        PSCENC =       250.71546970
  Ewald energy   TEWEN  =     -4351.93086864
  -Hartree energ DENC   =     -3782.11207394
  -exchange      EXHF   =         0.00000000
  -V(xc)+E(xc)   XCENC  =       365.75881047
  PAW double counting   =     13610.25129921   -13578.06345311
  entropy T*S    EENTRO =        -0.00209743
  eigenvalues    EBANDS =     -1070.06421180
  atomic energy  EATOM  =      8430.75312730
  ---------------------------------------------------
  free energy    TOTEN  =      -124.69312695 eV

  energy without entropy =     -124.69102952  energy(sigma->0) =     -124.69207824


--------------------------------------------------------------------------------------------------------




--------------------------------------- Iteration      1(   7)  ---------------------------------------


    POTLOK:  cpu time    0.2256: real time    0.2271
    SETDIJ:  cpu time    0.7396: real time    0.7448
    TRIAL :  cpu time   32.4315: real time   32.7267
    CORREC:  cpu time   10.2956: real time   10.3922
    CHARGE:  cpu time    3.1822: real time    3.2117
    --------------------------------------------
      LOOP:  cpu time   46.8942: real time   47.3235

 eigenvalue-minimisations  :     0
 total energy-change (2. order) :-0.3276666E+02  (-0.4030641E+01)
 number of electron      96.0000001 magnetization 
 augmentation part        8.5791742 magnetization 

 Free energy of the ion-electron system (eV)
  ---------------------------------------------------
  alpha Z        PSCENC =       250.71546970
  Ewald energy   TEWEN  =     -4351.93086864
  -Hartree energ DENC   =     -3769.59438681
  -exchange      EXHF   =         0.00000000
  -V(xc)+E(xc)   XCENC  =       365.73736333
  PAW double counting   =     13731.28203220   -13693.68181129
  entropy T*S    EENTRO =        -0.00195311
  eigenvalues    EBANDS =     -1120.73861511
  atomic energy  EATOM  =      8430.75312730
  ---------------------------------------------------
  free energy    TOTEN  =      -157.45978675 eV

  energy without entropy =     -157.45783364  energy(sigma->0) =     -157.45881019


--------------------------------------------------------------------------------------------------------




--------------------------------------- Iteration      1(   8)  ---------------------------------------


    POTLOK:  cpu time    0.2211: real time    0.2229
    SETDIJ:  cpu time    0.8445: real time    0.8506
    TRIAL :  cpu time   32.3598: real time   32.6453
    CORREC:  cpu time   10.1621: real time   10.2484
    CHARGE:  cpu time    2.4512: real time    2.4742
    --------------------------------------------
      LOOP:  cpu time   46.0397: real time   46.4434

 eigenvalue-minimisations  :     0
 total energy-change (2. order) :-0.4057826E+01  (-0.1198216E+01)
 number of electron      96.0000001 magnetization 
 augmentation part        8.6932186 magnetization 

 Free energy of the ion-electron system (eV)
  ---------------------------------------------------
  alpha Z        PSCENC =       250.71546970
  Ewald energy   TEWEN  =     -4351.93086864
  -Hartree energ DENC   =     -3674.24675778
  -exchange      EXHF   =         0.00000000
  -V(xc)+E(xc)   XCENC  =       362.86895775
  PAW double counting   =     13235.32216482   -13198.05564590
  entropy T*S    EENTRO =        -0.00252228
  eigenvalues    EBANDS =     -1216.94210651
  atomic energy  EATOM  =      8430.75312730
  ---------------------------------------------------
  free energy    TOTEN  =      -161.51761237 eV

  energy without entropy =     -161.51509008  energy(sigma->0) =     -161.51635123


--------------------------------------------------------------------------------------------------------




--------------------------------------- Iteration      1(   9)  ---------------------------------------


    POTLOK:  cpu time    0.2171: real time    0.2186
    SETDIJ:  cpu time    0.6726: real time    0.6784
    TRIAL :  cpu time   31.8138: real time   32.0958
    CORREC:  cpu time   10.5893: real time   10.6784
    CHARGE:  cpu time    2.5311: real time    2.5563
    --------------------------------------------
      LOOP:  cpu time   45.8763: real time   46.2808

 eigenvalue-minimisations  :     0
 total energy-change (2. order) :-0.1205995E+01  (-0.5784289E+00)
 number of electron      96.0000001 magnetization 
 augmentation part        8.8121516 magnetization 

 Free energy of the ion-electron system (eV)
  ---------------------------------------------------
  alpha Z        PSCENC =       250.71546970
  Ewald energy   TEWEN  =     -4351.93086864
  -Hartree energ DENC   =     -3661.86563336
  -exchange      EXHF   =         0.00000000
  -V(xc)+E(xc)   XCENC  =       362.81819679
  PAW double counting   =     12780.23030160   -12741.47862795
  entropy T*S    EENTRO =        -0.00178277
  eigenvalues    EBANDS =     -1231.96305085
  atomic energy  EATOM  =      8430.75312730
  ---------------------------------------------------
  free energy    TOTEN  =      -162.72360770 eV

  energy without entropy =     -162.72182493  energy(sigma->0) =     -162.72271631


--------------------------------------------------------------------------------------------------------




--------------------------------------- Iteration      1(  10)  ---------------------------------------


    POTLOK:  cpu time    0.2209: real time    0.2224
    SETDIJ:  cpu time    0.6687: real time    0.6739
    TRIAL :  cpu time   32.7931: real time   33.0763
    CORREC:  cpu time   10.6048: real time   10.6954
    CHARGE:  cpu time    2.5001: real time    2.5229
    --------------------------------------------
      LOOP:  cpu time   46.8054: real time   47.2099

 eigenvalue-minimisations  :     0
 total energy-change (2. order) :-0.5797292E+00  (-0.2353784E+00)
 number of electron      96.0000001 magnetization 
 augmentation part        8.8052608 magnetization 

 Free energy of the ion-electron system (eV)
  ---------------------------------------------------
  alpha Z        PSCENC =       250.71546970
  Ewald energy   TEWEN  =     -4351.93086864
  -Hartree energ DENC   =     -3677.61883520
  -exchange      EXHF   =         0.00000000
  -V(xc)+E(xc)   XCENC  =       363.58963990
  PAW double counting   =     12488.72761336   -12448.59199815
  entropy T*S    EENTRO =        -0.00127246
  eigenvalues    EBANDS =     -1218.94570237
  atomic energy  EATOM  =      8430.75312730
  ---------------------------------------------------
  free energy    TOTEN  =      -163.30333689 eV

  energy without entropy =     -163.30206443  energy(sigma->0) =     -163.30270066


--------------------------------------------------------------------------------------------------------




--------------------------------------- Iteration      1(  11)  ---------------------------------------


    POTLOK:  cpu time    0.2127: real time    0.2141
    SETDIJ:  cpu time    0.6551: real time    0.6606
    TRIAL :  cpu time   33.2711: real time   33.5580
    CORREC:  cpu time    9.7993: real time    9.8843
    CHARGE:  cpu time    2.8790: real time    2.9036
    --------------------------------------------
      LOOP:  cpu time   46.8210: real time   47.2255

 eigenvalue-minimisations  :     0
 total energy-change (2. order) :-0.2351900E+00  (-0.9278469E-01)
 number of electron      96.0000001 magnetization 
 augmentation part        8.7495925 magnetization 

 Free energy of the ion-electron system (eV)
  ---------------------------------------------------
  alpha Z        PSCENC =       250.71546970
  Ewald energy   TEWEN  =     -4351.93086864
  -Hartree energ DENC   =     -3684.13562377
  -exchange      EXHF   =         0.00000000
  -V(xc)+E(xc)   XCENC  =       363.87763747
  PAW double counting   =     12400.01984878   -12359.63799297
  entropy T*S    EENTRO =        -0.00151289
  eigenvalues    EBANDS =     -1213.19885230
  atomic energy  EATOM  =      8430.75312730
  ---------------------------------------------------
  free energy    TOTEN  =      -163.53852690 eV

  energy without entropy =     -163.53701401  energy(sigma->0) =     -163.53777046


--------------------------------------------------------------------------------------------------------




--------------------------------------- Iteration      1(  12)  ---------------------------------------


    POTLOK:  cpu time    0.2136: real time    0.2150
    SETDIJ:  cpu time    0.6897: real time    0.6948
    TRIAL :  cpu time   32.9235: real time   33.2084
    CORREC:  cpu time   10.2976: real time   10.3879
    CHARGE:  cpu time    2.3882: real time    2.4119
    --------------------------------------------
      LOOP:  cpu time   46.5139: real time   46.9202

 eigenvalue-minimisations  :     0
 total energy-change (2. order) :-0.9277286E-01  (-0.4654274E-01)
 number of electron      96.0000001 magnetization 
 augmentation part        8.7346769 magnetization 

 Free energy of the ion-electron system (eV)
  ---------------------------------------------------
  alpha Z        PSCENC =       250.71546970
  Ewald energy   TEWEN  =     -4351.93086864
  -Hartree energ DENC   =     -3675.59897651
  -exchange      EXHF   =         0.00000000
  -V(xc)+E(xc)   XCENC  =       363.60383091
  PAW double counting   =     12399.92877673   -12359.90817447
  entropy T*S    EENTRO =        -0.00171008
  eigenvalues    EBANDS =     -1221.19297189
  atomic energy  EATOM  =      8430.75312730
  ---------------------------------------------------
  free energy    TOTEN  =      -163.63129976 eV

  energy without entropy =     -163.62958968  energy(sigma->0) =     -163.63044472


--------------------------------------------------------------------------------------------------------




--------------------------------------- Iteration      1(  13)  ---------------------------------------


    POTLOK:  cpu time    0.2162: real time    0.2179
    SETDIJ:  cpu time    0.6962: real time    0.7015
    TRIAL :  cpu time   33.6758: real time   33.9751
    CORREC:  cpu time   10.7680: real time   10.8692
    CHARGE:  cpu time    2.2822: real time    2.3049
    --------------------------------------------
      LOOP:  cpu time   47.6511: real time   48.0819

 eigenvalue-minimisations  :     0
 total energy-change (2. order) :-0.4647412E-01  (-0.2413783E-01)
 number of electron      96.0000001 magnetization 
 augmentation part        8.7561357 magnetization 

 Free energy of the ion-electron system (eV)
  ---------------------------------------------------
  alpha Z        PSCENC =       250.71546970
  Ewald energy   TEWEN  =     -4351.93086864
  -Hartree energ DENC   =     -3671.10865878
  -exchange      EXHF   =         0.00000000
  -V(xc)+E(xc)   XCENC  =       363.45634590
  PAW double counting   =     12408.50779921   -12368.60850500
  entropy T*S    EENTRO =        -0.00173330
  eigenvalues    EBANDS =     -1225.46077349
  atomic energy  EATOM  =      8430.75312730
  ---------------------------------------------------
  free energy    TOTEN  =      -163.67777388 eV

  energy without entropy =     -163.67604058  energy(sigma->0) =     -163.67690723


--------------------------------------------------------------------------------------------------------




--------------------------------------- Iteration      1(  14)  ---------------------------------------


    POTLOK:  cpu time    0.2397: real time    0.2413
    SETDIJ:  cpu time    0.5629: real time    0.5672
    TRIAL :  cpu time   32.9395: real time   33.2319
    CORREC:  cpu time   10.0160: real time   10.1050
    CHARGE:  cpu time    2.2461: real time    2.2687
    --------------------------------------------
      LOOP:  cpu time   46.0061: real time   46.4165

 eigenvalue-minimisations  :     0
 total energy-change (2. order) :-0.2410934E-01  (-0.1122563E-01)
 number of electron      96.0000001 magnetization 
 augmentation part        8.7612009 magnetization 

 Free energy of the ion-electron system (eV)
  ---------------------------------------------------
  alpha Z        PSCENC =       250.71546970
  Ewald energy   TEWEN  =     -4351.93086864
  -Hartree energ DENC   =     -3674.26717495
  -exchange      EXHF   =         0.00000000
  -V(xc)+E(xc)   XCENC  =       363.56468530
  PAW double counting   =     12411.80235718   -12371.71725701
  entropy T*S    EENTRO =        -0.00177502
  eigenvalues    EBANDS =     -1222.62048880
  atomic energy  EATOM  =      8430.75312730
  ---------------------------------------------------
  free energy    TOTEN  =      -163.70188323 eV

  energy without entropy =     -163.70010821  energy(sigma->0) =     -163.70099572


--------------------------------------------------------------------------------------------------------




--------------------------------------- Iteration      1(  15)  ---------------------------------------


    POTLOK:  cpu time    0.2142: real time    0.2158
    SETDIJ:  cpu time    1.1307: real time    1.1377
    TRIAL :  cpu time   34.1956: real time   34.4914
    CORREC:  cpu time   10.0020: real time   10.0920
    CHARGE:  cpu time    2.2595: real time    2.2812
    --------------------------------------------
      LOOP:  cpu time   47.8368: real time   48.2534

 eigenvalue-minimisations  :     0
 total energy-change (2. order) :-0.1121224E-01  (-0.5388513E-02)
 number of electron      96.0000001 magnetization 
 augmentation part        8.7568229 magnetization 

 Free energy of the ion-electron system (eV)
  ---------------------------------------------------
  alpha Z        PSCENC =       250.71546970
  Ewald energy   TEWEN  =     -4351.93086864
  -Hartree energ DENC   =     -3674.64800658
  -exchange      EXHF   =         0.00000000
  -V(xc)+E(xc)   XCENC  =       363.59044189
  PAW double counting   =     12422.24119007   -12382.07914431
  entropy T*S    EENTRO =        -0.00180118
  eigenvalues    EBANDS =     -1222.35352987
  atomic energy  EATOM  =      8430.75312730
  ---------------------------------------------------
  free energy    TOTEN  =      -163.71309547 eV

  energy without entropy =     -163.71129429  energy(sigma->0) =     -163.71219488


--------------------------------------------------------------------------------------------------------




--------------------------------------- Iteration      1(  16)  ---------------------------------------


    POTLOK:  cpu time    0.2095: real time    0.2109
    SETDIJ:  cpu time    1.2315: real time    1.2390
    TRIAL :  cpu time   33.6781: real time   33.9676
    CORREC:  cpu time   10.6272: real time   10.7194
    CHARGE:  cpu time    2.3314: real time    2.3544
    --------------------------------------------
      LOOP:  cpu time   48.2615: real time   48.6769

 eigenvalue-minimisations  :     0
 total energy-change (2. order) :-0.5385847E-02  (-0.2187060E-02)
 number of electron      96.0000001 magnetization 
 augmentation part        8.7581409 magnetization 

 Free energy of the ion-electron system (eV)
  ---------------------------------------------------
  alpha Z        PSCENC =       250.71546970
  Ewald energy   TEWEN  =     -4351.93086864
  -Hartree energ DENC   =     -3673.46541250
  -exchange      EXHF   =         0.00000000
  -V(xc)+E(xc)   XCENC  =       363.56336159
  PAW double counting   =     12438.23074244   -12398.06728853
  entropy T*S    EENTRO =        -0.00178937
  eigenvalues    EBANDS =     -1223.51581150
  atomic energy  EATOM  =      8430.75312730
  ---------------------------------------------------
  free energy    TOTEN  =      -163.71848131 eV

  energy without entropy =     -163.71669194  energy(sigma->0) =     -163.71758663


--------------------------------------------------------------------------------------------------------




--------------------------------------- Iteration      1(  17)  ---------------------------------------


    POTLOK:  cpu time    0.2180: real time    0.2197
    SETDIJ:  cpu time    0.6589: real time    0.6640
    TRIAL :  cpu time   32.3006: real time   32.5843
    CORREC:  cpu time   10.1787: real time   10.2705
    CHARGE:  cpu time    2.4154: real time    2.4390
    --------------------------------------------
      LOOP:  cpu time   45.8267: real time   46.2341

 eigenvalue-minimisations  :     0
 total energy-change (2. order) :-0.2186751E-02  (-0.9750981E-03)
 number of electron      96.0000001 magnetization 
 augmentation part        8.7578634 magnetization 

 Free energy of the ion-electron system (eV)
  ---------------------------------------------------
  alpha Z        PSCENC =       250.71546970
[...]
     10     -32.0060      2.00000
     11     -31.1634      2.00000
     12     -31.1634      2.00000
     13     -31.1523      2.00000
     14     -31.1521      2.00000
     15     -30.6123      2.00000
     16     -30.2748      2.00000
     17      -5.5159      2.00000
     18      -5.2193      2.00000
     19      -4.7838      2.00000
     20      -4.3221      2.00000
     21      -4.1372      2.00000
     22      -2.8431      2.00000
     23      -2.4651      2.00000
     24      -2.3373      2.00000
     25      -2.0835      2.00000
     26      -1.2885      2.00000
     27      -0.7008      2.00000
     28      -0.5212      2.00000
     29      -0.4171      2.00000
     30      -0.2774      2.00000
     31       0.4412      2.00000
     32       0.4969      2.00000
     33       0.5532      2.00000
     34       0.6835      2.00000
     35       0.9920      2.00000
     36       1.2054      2.00000
     37       1.3320      2.00000
     38       1.5152      2.00000
     39       2.1163      2.00000
     40       2.2485      2.00000
     41       2.3540      2.00000
     42       2.4770      2.00000
     43       2.5589      2.00000
     44       2.6876      2.00000
     45       2.8205      2.00000
     46       3.4228      2.00000
     47       3.4568      2.00000
     48       3.6984      2.00000
     49       4.4626      0.00000
     50       4.7314      0.00000
     51       4.8390      0.00000
     52       4.8551      0.00000
     53       5.4107      0.00000
     54       5.7826      0.00000
     55       5.8767      0.00000
     56       5.9618      0.00000
     57       5.9946      0.00000
     58       6.4886      0.00000
     59       6.5009      0.00000
     60       7.2249      0.00000

 k-point    70 :      -0.1667    0.3333    0.4286
  band No.  band energies     occupation 
      1     -58.6640      2.00000
      2     -58.6602      2.00000
      3     -56.8822      2.00000
      4     -56.8765      2.00000
      5     -32.3358      2.00000
      6     -32.1425      2.00000
      7     -32.1423      2.00000
      8     -32.0925      2.00000
      9     -32.0061      2.00000
     10     -32.0061      2.00000
     11     -31.1628      2.00000
     12     -31.1626      2.00000
     13     -31.1531      2.00000
     14     -31.1526      2.00000
     15     -30.5858      2.00000
     16     -30.2946      2.00000
     17      -5.4879      2.00000
     18      -5.3470      2.00000
     19      -4.8153      2.00000
     20      -4.3643      2.00000
     21      -3.9043      2.00000
     22      -2.8416      2.00000
     23      -2.5238      2.00000
     24      -2.2854      2.00000
     25      -1.8528      2.00000
     26      -1.3013      2.00000
     27      -0.5632      2.00000
     28      -0.5523      2.00000
     29      -0.3689      2.00000
     30      -0.3518      2.00000
     31       0.1147      2.00000
     32       0.3939      2.00000
     33       0.5866      2.00000
     34       0.7192      2.00000
     35       0.8600      2.00000
     36       0.9875      2.00000
     37       1.1584      2.00000
     38       1.6131      2.00000
     39       1.9833      2.00000
     40       2.2345      2.00000
     41       2.3130      2.00000
     42       2.3506      2.00000
     43       2.7312      2.00000
     44       2.8173      2.00000
     45       2.9904      2.00000
     46       3.5023      2.00000
     47       3.7220      2.00000
     48       3.9355      2.00000
     49       4.1445      0.00692
     50       4.5039      0.00000
     51       4.9019      0.00000
     52       4.9605      0.00000
     53       5.3229      0.00000
     54       5.6894      0.00000
     55       5.7606      0.00000
     56       5.9407      0.00000
     57       6.1362      0.00000
     58       6.1937      0.00000
     59       6.7382      0.00000
     60       6.9025      0.00000

 k-point    71 :       0.5000    0.5000    0.4286
  band No.  band energies     occupation 
      1     -58.6643      2.00000
      2     -58.6599      2.00000
      3     -56.8826      2.00000
      4     -56.8760      2.00000
      5     -32.3518      2.00000
      6     -32.1425      2.00000
      7     -32.1424      2.00000
      8     -32.0698      2.00000
      9     -32.0061      2.00000
     10     -32.0059      2.00000
     11     -31.1634      2.00000
     12     -31.1632      2.00000
     13     -31.1523      2.00000
     14     -31.1522      2.00000
     15     -30.6123      2.00000
     16     -30.2748      2.00000
     17      -5.6273      2.00000
     18      -4.8839      2.00000
     19      -4.7900      2.00000
     20      -4.3953      2.00000
     21      -4.2462      2.00000
     22      -2.7931      2.00000
     23      -2.4851      2.00000
     24      -2.4545      2.00000
     25      -2.3639      2.00000
     26      -1.3041      2.00000
     27      -0.8394      2.00000
     28      -0.4562      2.00000
     29      -0.4377      2.00000
     30       0.0533      2.00000
     31       0.6011      2.00000
     32       0.6397      2.00000
     33       0.8182      2.00000
     34       0.8530      2.00000
     35       0.9889      2.00000
     36       1.0159      2.00000
     37       1.3769      2.00000
     38       1.5125      2.00000
     39       1.5135      2.00000
     40       2.1246      2.00000
     41       2.4913      2.00000
     42       2.6015      2.00000
     43       2.6770      2.00000
     44       2.7621      2.00000
     45       3.1766      2.00000
     46       3.2230      2.00000
     47       3.3976      2.00000
     48       3.4440      2.00000
     49       4.6933      0.00000
     50       4.7278      0.00000
     51       4.7507      0.00000
     52       5.3443      0.00000
     53       5.3751      0.00000
     54       5.7484      0.00000
     55       5.9260      0.00000
     56       5.9467      0.00000
     57       6.1897      0.00000
     58       6.3598      0.00000
     59       6.6001      0.00000
     60       7.3676      0.00000

 k-point    72 :      -0.3333    0.5000    0.4286
  band No.  band energies     occupation 
      1     -58.6640      2.00000
      2     -58.6602      2.00000
      3     -56.8822      2.00000
      4     -56.8765      2.00000
      5     -32.3358      2.00000
      6     -32.1425      2.00000
      7     -32.1424      2.00000
      8     -32.0926      2.00000
      9     -32.0061      2.00000
     10     -32.0060      2.00000
     11     -31.1626      2.00000
     12     -31.1625      2.00000
     13     -31.1531      2.00000
     14     -31.1529      2.00000
     15     -30.5858      2.00000
     16     -30.2946      2.00000
     17      -5.7015      2.00000
     18      -4.8957      2.00000
     19      -4.7728      2.00000
     20      -4.4009      2.00000
     21      -4.1004      2.00000
     22      -2.7867      2.00000
     23      -2.5139      2.00000
     24      -2.4949      2.00000
     25      -2.2413      2.00000
     26      -1.2971      2.00000
     27      -0.8006      2.00000
     28      -0.4563      2.00000
     29      -0.4333      2.00000
     30      -0.0076      2.00000
     31       0.5270      2.00000
     32       0.5699      2.00000
     33       0.6767      2.00000
     34       0.8889      2.00000
     35       0.9137      2.00000
     36       0.9934      2.00000
     37       1.3187      2.00000
     38       1.4824      2.00000
     39       1.5309      2.00000
     40       2.0442      2.00000
     41       2.2830      2.00000
     42       2.5714      2.00000
     43       2.7714      2.00000
     44       2.8377      2.00000
     45       3.2246      2.00000
     46       3.3213      2.00000
     47       3.4981      2.00000
     48       3.7349      2.00000
     49       4.6290      0.00000
     50       4.7847      0.00000
     51       4.7921      0.00000
     52       5.2109      0.00000
     53       5.3231      0.00000
     54       5.7150      0.00000
     55       5.9062      0.00000
     56       5.9808      0.00000
     57       6.2500      0.00000
     58       6.4649      0.00000
     59       6.5131      0.00000
     60       6.7279      0.00000

 k-point    73 :      -0.1667    0.5000    0.4286
  band No.  band energies     occupation 
      1     -58.6632      2.00000
      2     -58.6610      2.00000
      3     -56.8810      2.00000
      4     -56.8777      2.00000
      5     -32.2904      2.00000
      6     -32.1511      2.00000
      7     -32.1424      2.00000
      8     -32.1423      2.00000
      9     -32.0062      2.00000
     10     -32.0061      2.00000
     11     -31.1608      2.00000
     12     -31.1607      2.00000
     13     -31.1549      2.00000
     14     -31.1547      2.00000
     15     -30.5172      2.00000
     16     -30.3502      2.00000
     17      -5.7526      2.00000
     18      -5.1676      2.00000
     19      -4.6993      2.00000
     20      -4.4145      2.00000
     21      -3.6579      2.00000
     22      -2.6954      2.00000
     23      -2.6121      2.00000
     24      -2.5399      2.00000
     25      -1.7946      2.00000
     26      -1.2752      2.00000
     27      -0.6009      2.00000
     28      -0.5444      2.00000
     29      -0.4696      2.00000
     30      -0.3522      2.00000
     31       0.1916      2.00000
     32       0.3317      2.00000
     33       0.3697      2.00000
     34       0.7477      2.00000
     35       0.8344      2.00000
     36       0.9767      2.00000
     37       1.3346      2.00000
     38       1.5931      2.00000
     39       1.7590      2.00000
     40       1.9702      2.00000
     41       2.0313      2.00000
     42       2.4717      2.00000
     43       2.5728      2.00000
     44       3.0904      2.00000
     45       3.3208      2.00000
     46       3.5692      2.00000
     47       3.6934      2.00000
     48       3.9499      2.00000
     49       4.4071      0.00000
     50       4.6559      0.00000
     51       4.9852      0.00000
     52       5.0613      0.00000
     53       5.3074      0.00000
     54       5.5487      0.00000
     55       5.7027      0.00000
     56       5.9434      0.00000
     57       6.2303      0.00000
     58       6.5987      0.00000
     59       6.7462      0.00000
     60       6.9556      0.00000

 k-point    74 :      -0.3333   -0.3333    0.4286
  band No.  band energies     occupation 
      1     -58.6632      2.00000
      2     -58.6610      2.00000
      3     -56.8810      2.00000
      4     -56.8777      2.00000
      5     -32.2904      2.00000
      6     -32.1511      2.00000
      7     -32.1424      2.00000
      8     -32.1423      2.00000
      9     -32.0062      2.00000
     10     -32.0061      2.00000
     11     -31.1608      2.00000
     12     -31.1606      2.00000
     13     -31.1549      2.00000
     14     -31.1548      2.00000
     15     -30.5172      2.00000
     16     -30.3502      2.00000
     17      -5.8709      2.00000
     18      -4.8638      2.00000
     19      -4.7231      2.00000
     20      -4.4415      2.00000
     21      -3.7506      2.00000
     22      -2.7219      2.00000
     23      -2.5970      2.00000
     24      -2.5946      2.00000
     25      -2.0182      2.00000
     26      -1.2829      2.00000
     27      -0.7074      2.00000
     28      -0.4451      2.00000
     29      -0.4267      2.00000
     30      -0.1889      2.00000
     31       0.4015      2.00000
     32       0.4948      2.00000
     33       0.4982      2.00000
     34       0.6477      2.00000
     35       0.8278      2.00000
     36       0.9805      2.00000
     37       1.1737      2.00000
     38       1.4455      2.00000
     39       1.5383      2.00000
     40       1.8183      2.00000
     41       1.8328      2.00000
     42       2.7182      2.00000
     43       2.8995      2.00000
     44       3.1600      2.00000
     45       3.3849      2.00000
     46       3.4674      2.00000
     47       3.7019      2.00000
     48       4.0638      1.99734
     49       4.5473      0.00000
     50       4.8658      0.00000
     51       4.8934      0.00000
     52       5.0875      0.00000
     53       5.1825      0.00000
     54       5.7136      0.00000
     55       5.8623      0.00000
     56       6.0293      0.00000
     57       6.4481      0.00000
     58       6.6148      0.00000
     59       6.7736      0.00000
     60       6.8326      0.00000

 k-point    75 :      -0.1667   -0.3333    0.4286
  band No.  band energies     occupation 
      1     -58.6621      2.00000
      2     -58.6621      2.00000
      3     -56.8793      2.00000
      4     -56.8793      2.00000
      5     -32.2239      2.00000
      6     -32.2239      2.00000
      7     -32.1423      2.00000
      8     -32.1422      2.00000
      9     -32.0063      2.00000
     10     -32.0062      2.00000
     11     -31.1593      2.00000
     12     -31.1591      2.00000
     13     -31.1564      2.00000
     14     -31.1562      2.00000
     15     -30.4305      2.00000
     16     -30.4305      2.00000
     17      -5.9255      2.00000
     18      -5.0619      2.00000
     19      -4.6279      2.00000
     20      -4.4974      2.00000
     21      -3.2189      2.00000
     22      -2.8313      2.00000
     23      -2.6812      2.00000
     24      -2.5262      2.00000
     25      -1.6027      2.00000
     26      -1.2800      2.00000
     27      -0.6871      2.00000
     28      -0.4746      2.00000
     29      -0.4517      2.00000
     30      -0.3061      2.00000
     31      -0.0166      2.00000
     32       0.2177      2.00000
     33       0.3400      2.00000
     34       0.4857      2.00000
     35       0.6541      2.00000
     36       0.9899      2.00000
     37       1.2733      2.00000
     38       1.5096      2.00000
     39       1.6712      2.00000
     40       1.7085      2.00000
     41       1.8676      2.00000
     42       2.5887      2.00000
     43       2.7726      2.00000
     44       3.3549      2.00000
     45       3.4832      2.00000
     46       3.6216      2.00000
     47       3.7934      2.00000
     48       4.0895      1.76385
     49       4.2659      0.00000
     50       4.6478      0.00000
     51       4.9136      0.00000
     52       5.2237      0.00000
     53       5.3740      0.00000
     54       5.5167      0.00000
     55       5.7978      0.00000
     56       6.0931      0.00000
     57       6.1627      0.00000
     58       6.5842      0.00000
     59       6.7877      0.00000
     60       7.0102      0.00000

 k-point    76 :      -0.1667   -0.1667    0.4286
  band No.  band energies     occupation 
      1     -58.6632      2.00000
      2     -58.6610      2.00000
      3     -56.8810      2.00000
      4     -56.8777      2.00000
      5     -32.2904      2.00000
      6     -32.1510      2.00000
      7     -32.1424      2.00000
      8     -32.1422      2.00000
      9     -32.0063      2.00000
     10     -32.0062      2.00000
     11     -31.1611      2.00000
     12     -31.1609      2.00000
     13     -31.1548      2.00000
     14     -31.1543      2.00000
     15     -30.5172      2.00000
     16     -30.3502      2.00000
     17      -5.9577      2.00000
     18      -5.0245      2.00000
     19      -4.6086      2.00000
     20      -4.5956      2.00000
     21      -3.1088      2.00000
     22      -2.8779      2.00000
     23      -2.6983      2.00000
     24      -2.3551      2.00000
     25      -1.4631      2.00000
     26      -1.3383      2.00000
     27      -0.7097      2.00000
     28      -0.4913      2.00000
     29      -0.3353      2.00000
     30      -0.1365      2.00000
     31      -0.1268      2.00000
     32       0.0757      2.00000
     33       0.1914      2.00000
     34       0.3834      2.00000
     35       0.5530      2.00000
     36       0.8513      2.00000
     37       1.1435      2.00000
     38       1.4564      2.00000
     39       1.6723      2.00000
     40       1.8778      2.00000
     41       2.3143      2.00000
     42       2.3501      2.00000
     43       2.8999      2.00000
     44       3.3256      2.00000
     45       3.3379      2.00000
     46       3.5403      2.00000
     47       3.6741      2.00000
     48       3.8996      2.00000
     49       4.2479      0.00000
     50       4.7922      0.00000
     51       4.8009      0.00000
     52       5.2907      0.00000
     53       5.5467      0.00000
     54       5.6244      0.00000
     55       6.1005      0.00000
     56       6.1113      0.00000
     57       6.2702      0.00000
     58       6.4002      0.00000
     59       6.7316      0.00000
     60       6.9173      0.00000


--------------------------------------------------------------------------------------------------------


 soft charge-density along one line, spin component           1
         0         1         2         3         4         5         6         7         8         9
 total charge-density along one line
 
 pseudopotential strength for first ion, spin component:           1
  6.323   9.610   0.001  -0.001   0.001  -0.004  -0.005  -0.003
  9.610  14.600   0.001  -0.002   0.001  -0.008  -0.009  -0.005
  0.001   0.001  -2.145  -0.008  -0.012  -3.626  -0.015  -0.023
 -0.001  -0.002  -0.008  -2.133  -0.006  -0.015  -3.604  -0.011
  0.001   0.001  -0.012  -0.006  -2.137  -0.023  -0.011  -3.610
 -0.004  -0.008  -3.626  -0.015  -0.023  -5.924  -0.027  -0.046
 -0.005  -0.009  -0.015  -3.604  -0.011  -0.027  -5.882  -0.019
 -0.003  -0.005  -0.023  -0.011  -3.610  -0.046  -0.019  -5.892
 total augmentation occupancy for first ion, spin component:           1
  3.174  -0.667   0.577   0.618   0.410  -0.194  -0.217  -0.138
 -0.667   0.203  -0.164  -0.203  -0.116   0.088   0.079   0.062
  0.577  -0.164   2.567   0.225   0.833  -0.693  -0.076  -0.256
  0.618  -0.203   0.225   2.191   0.160  -0.076  -0.533  -0.054
  0.410  -0.116   0.833   0.160   1.988  -0.256  -0.054  -0.514
 -0.194   0.088  -0.693  -0.076  -0.256   0.219   0.037   0.097
 -0.217   0.079  -0.076  -0.533  -0.054   0.037   0.141   0.026
 -0.138   0.062  -0.256  -0.054  -0.514   0.097   0.026   0.151


------------------------ aborting loop because EDIFF is reached ----------------------------------------




--------------------------------------------------------------------------------------------------------



  FREE ENERGIE OF THE ION-ELECTRON SYSTEM (eV)
  ---------------------------------------------------
  free  energy   TOTEN  =      -163.72233429 eV

  energy  without entropy=     -163.72059652  energy(sigma->0) =     -163.72146541
 


--------------------------------------------------------------------------------------------------------


    POTLOK:  cpu time    0.8549: real time    0.8621


--------------------------------------------------------------------------------------------------------


 writing wavefunctions
     LOOP+:  cpu time 1611.1800: real time 1625.7730
    4ORBIT:  cpu time    0.0000: real time    0.0000

 total amount of memory used by VASP MPI-rank0   408084. kBytes
=======================================================================

   base      :      30000. kBytes
   nonl-proj :     158028. kBytes
   fftplans  :      24334. kBytes
   grid      :      18307. kBytes
   one-center:        124. kBytes
   wavefun   :     177291. kBytes
 
  
  
 General timing and accounting informations for this job:
 ========================================================
  
                  Total CPU time used (sec):     1618.096
                            User time (sec):     1601.183
                          System time (sec):       16.913
                         Elapsed time (sec):     1634.394
  
                   Maximum memory used (kb):      595016.
                   Average memory used (kb):          N/A
  
                          Minor page faults:      2944533
                          Major page faults:           54
                 Voluntary context switches:         9621
