<?xml version="1.0" encoding="ISO-8859-1"?>
<modeling>
 <generator>
  <i name="program" type="string">vasp </i>
  <i name="version" type="string">6.2.0  </i>
  <i name="subversion" type="string">18Jan21 (build Jan 05 2022 15:41:44) complex                          parallel </i>
  <i name="platform" type="string">LinuxIFC </i>
  <i name="date" type="string">2025 05 07 </i>
  <i name="time" type="string">17:56:08 </i>
 </generator>
 <incar>
  <i type="string" name="SYSTEM">routine with relax: pwdword</i>
  <i type="string" name="PREC">Acc</i>
  <i type="int" name="IALGO">    38</i>
  <i type="string" name="ALGO">A</i>
  <i type="logical" name="ADDGRID"> T  </i>
  <i type="int" name="ICHARG">     2</i>
  <i type="int" name="NELM">   100</i>
  <i type="int" name="NELMIN">     6</i>
  <i name="EDIFF">      0.00000000</i>
  <i type="int" name="NSW">     0</i>
  <i type="int" name="ISIF">    -1</i>
  <i name="ENCUT">    600.00000000</i>
  <i type="logical" name="LREAL"> F  </i>
  <i type="int" name="ISMEAR">     0</i>
  <i name="SIGMA">      0.02000000</i>
  <i type="logical" name="LASPH"> T  </i>
  <i type="string" name="METAGGA">R2SCAN</i>
  <i type="logical" name="LMIXTAU"> F  </i>
 </incar>
 <primitive_cell>
  <structure name="primitive_cell" >
   <crystal>
    <varray name="basis" >
     <v>       5.66371245       0.00000000      -3.23681608 </v>
     <v>      -1.90718825       5.33294213      -3.23681608 </v>
     <v>       0.00000000       0.00000000       6.52339000 </v>
    </varray>
    <i name="volume">    197.03410730 </i>
    <varray name="rec_basis" >
     <v>       0.17656264       0.06314304       0.00000000 </v>
     <v>       0.00000000       0.18751375       0.00000000 </v>
     <v>       0.08760794       0.12437244       0.15329453 </v>
    </varray>
   </crystal>
   <varray name="positions" >
    <v>       0.25000000       0.25000000       0.00000000 </v>
    <v>       0.75000000       0.75000000       0.00000000 </v>
    <v>       0.27807000       0.22193000       0.50000000 </v>
    <v>       0.00000000       0.50000000       0.50000000 </v>
    <v>       0.72193000       0.77807000       0.50000000 </v>
    <v>       0.22193000       0.72193000       0.94386000 </v>
    <v>       0.50000000       0.00000000       0.50000000 </v>
    <v>       0.77807000       0.27807000       0.05614000 </v>
    <v>       0.50000000       0.50000000       0.00000000 </v>
    <v>       0.00000000       0.00000000       0.00000000 </v>
   </varray>
  </structure>
  <varray name="primitive_index" >
   <v type="int" >        1 </v>
   <v type="int" >        2 </v>
   <v type="int" >        3 </v>
   <v type="int" >        4 </v>
   <v type="int" >        5 </v>
   <v type="int" >        6 </v>
   <v type="int" >        7 </v>
   <v type="int" >        8 </v>
   <v type="int" >        9 </v>
   <v type="int" >       10 </v>
  </varray>
 </primitive_cell>
 <kpoints>
  <generation param="Gamma">
   <v type="int" name="divisions">       7        7        8 </v>
   <v name="usershift">      0.00000000       0.00000000       0.00000000 </v>
   <v name="genvec1">      0.14285714       0.00000000       0.00000000 </v>
   <v name="genvec2">      0.00000000       0.14285714       0.00000000 </v>
   <v name="genvec3">      0.00000000       0.00000000       0.12500000 </v>
   <v name="shift">      0.00000000       0.00000000       0.00000000 </v>
  </generation>
  <varray name="kpointlist" >
   <v>       0.00000000       0.00000000       0.00000000 </v>
   <v>       0.14285714      -0.00000000       0.00000000 </v>
   <v>       0.28571429      -0.00000000       0.00000000 </v>
   <v>       0.42857143       0.00000000       0.00000000 </v>
   <v>       0.14285714       0.14285714       0.00000000 </v>
   <v>       0.28571429       0.14285714       0.00000000 </v>
   <v>       0.42857143       0.14285714       0.00000000 </v>
   <v>      -0.42857143       0.14285714       0.00000000 </v>
   <v>      -0.28571429       0.14285714       0.00000000 </v>
   <v>      -0.14285714       0.14285714       0.00000000 </v>
   <v>       0.28571429       0.28571429       0.00000000 </v>
   <v>       0.42857143       0.28571429       0.00000000 </v>
   <v>      -0.42857143       0.28571429       0.00000000 </v>
   <v>      -0.28571429       0.28571429       0.00000000 </v>
   <v>       0.42857143       0.42857143       0.00000000 </v>
   <v>      -0.42857143       0.42857143       0.00000000 </v>
   <v>      -0.00000000      -0.00000000       0.12500000 </v>
   <v>       0.14285714      -0.00000000       0.12500000 </v>
   <v>       0.28571429      -0.00000000       0.12500000 </v>
   <v>       0.42857143      -0.00000000       0.12500000 </v>
   <v>      -0.42857143      -0.00000000       0.12500000 </v>
   <v>      -0.28571429       0.00000000       0.12500000 </v>
   <v>      -0.14285714      -0.00000000       0.12500000 </v>
   <v>       0.14285714       0.14285714       0.12500000 </v>
   <v>       0.28571429       0.14285714       0.12500000 </v>
   <v>       0.42857143       0.14285714       0.12500000 </v>
   <v>      -0.42857143       0.14285714       0.12500000 </v>
   <v>      -0.28571429       0.14285714       0.12500000 </v>
   <v>      -0.14285714       0.14285714       0.12500000 </v>
   <v>       0.28571429       0.28571429       0.12500000 </v>
   <v>       0.42857143       0.28571429       0.12500000 </v>
   <v>      -0.42857143       0.28571429       0.12500000 </v>
   <v>      -0.28571429       0.28571429       0.12500000 </v>
   <v>      -0.14285714       0.28571429       0.12500000 </v>
   <v>       0.42857143       0.42857143       0.12500000 </v>
   <v>      -0.42857143       0.42857143       0.12500000 </v>
   <v>      -0.28571429       0.42857143       0.12500000 </v>
   <v>      -0.14285714       0.42857143       0.12500000 </v>
   <v>      -0.42857143      -0.42857143       0.12500000 </v>
   <v>      -0.28571429      -0.42857143       0.12500000 </v>
   <v>      -0.14285714      -0.42857143       0.12500000 </v>
   <v>      -0.28571429      -0.28571429       0.12500000 </v>
   <v>      -0.14285714      -0.28571429       0.12500000 </v>
   <v>      -0.14285714      -0.14285714       0.12500000 </v>
   <v>      -0.00000000      -0.00000000       0.25000000 </v>
   <v>       0.14285714      -0.00000000       0.25000000 </v>
   <v>       0.28571429      -0.00000000       0.25000000 </v>
   <v>       0.42857143      -0.00000000       0.25000000 </v>
   <v>      -0.42857143       0.00000000       0.25000000 </v>
   <v>      -0.28571429       0.00000000       0.25000000 </v>
   <v>      -0.14285714      -0.00000000       0.25000000 </v>
   <v>       0.14285714       0.14285714       0.25000000 </v>
   <v>       0.28571429       0.14285714       0.25000000 </v>
   <v>       0.42857143       0.14285714       0.25000000 </v>
   <v>      -0.42857143       0.14285714       0.25000000 </v>
   <v>      -0.28571429       0.14285714       0.25000000 </v>
   <v>      -0.14285714       0.14285714       0.25000000 </v>
   <v>       0.28571429       0.28571429       0.25000000 </v>
   <v>       0.42857143       0.28571429       0.25000000 </v>
   <v>      -0.42857143       0.28571429       0.25000000 </v>
   <v>      -0.28571429       0.28571429       0.25000000 </v>
   <v>      -0.14285714       0.28571429       0.25000000 </v>
   <v>       0.42857143       0.42857143       0.25000000 </v>
   <v>      -0.42857143       0.42857143       0.25000000 </v>
   <v>      -0.28571429       0.42857143       0.25000000 </v>
   <v>      -0.14285714       0.42857143       0.25000000 </v>
   <v>      -0.42857143      -0.42857143       0.25000000 </v>
   <v>      -0.28571429      -0.42857143       0.25000000 </v>
   <v>      -0.14285714      -0.42857143       0.25000000 </v>
   <v>      -0.28571429      -0.28571429       0.25000000 </v>
   <v>      -0.14285714      -0.28571429       0.25000000 </v>
   <v>      -0.14285714      -0.14285714       0.25000000 </v>
   <v>      -0.00000000      -0.00000000       0.37500000 </v>
   <v>       0.14285714      -0.00000000       0.37500000 </v>
   <v>       0.28571429      -0.00000000       0.37500000 </v>
   <v>       0.42857143      -0.00000000       0.37500000 </v>
   <v>      -0.42857143      -0.00000000       0.37500000 </v>
   <v>      -0.28571429      -0.00000000       0.37500000 </v>
   <v>      -0.14285714      -0.00000000       0.37500000 </v>
   <v>       0.14285714       0.14285714       0.37500000 </v>
   <v>       0.28571429       0.14285714       0.37500000 </v>
   <v>       0.42857143       0.14285714       0.37500000 </v>
   <v>      -0.42857143       0.14285714       0.37500000 </v>
   <v>      -0.28571429       0.14285714       0.37500000 </v>
   <v>      -0.14285714       0.14285714       0.37500000 </v>
   <v>       0.28571429       0.28571429       0.37500000 </v>
   <v>       0.42857143       0.28571429       0.37500000 </v>
   <v>      -0.42857143       0.28571429       0.37500000 </v>
   <v>      -0.28571429       0.28571429       0.37500000 </v>
   <v>      -0.14285714       0.28571429       0.37500000 </v>
   <v>       0.42857143       0.42857143       0.37500000 </v>
   <v>      -0.42857143       0.42857143       0.37500000 </v>
   <v>      -0.28571429       0.42857143       0.37500000 </v>
   <v>      -0.14285714       0.42857143       0.37500000 </v>
   <v>      -0.42857143      -0.42857143       0.37500000 </v>
   <v>      -0.28571429      -0.42857143       0.37500000 </v>
   <v>      -0.14285714      -0.42857143       0.37500000 </v>
   <v>      -0.28571429      -0.28571429       0.37500000 </v>
   <v>      -0.14285714      -0.28571429       0.37500000 </v>
   <v>      -0.14285714      -0.14285714       0.37500000 </v>
   <v>      -0.00000000      -0.00000000       0.50000000 </v>
   <v>       0.14285714      -0.00000000       0.50000000 </v>
   <v>       0.28571429      -0.00000000       0.50000000 </v>
   <v>       0.42857143      -0.00000000       0.50000000 </v>
   <v>       0.14285714       0.14285714       0.50000000 </v>
   <v>       0.28571429       0.14285714       0.50000000 </v>
   <v>       0.42857143       0.14285714       0.50000000 </v>
   <v>      -0.42857143       0.14285714       0.50000000 </v>
   <v>      -0.28571429       0.14285714       0.50000000 </v>
   <v>      -0.14285714       0.14285714       0.50000000 </v>
   <v>       0.28571429       0.28571429       0.50000000 </v>
   <v>       0.42857143       0.28571429       0.50000000 </v>
   <v>      -0.42857143       0.28571429       0.50000000 </v>
   <v>      -0.28571429       0.28571429       0.50000000 </v>
   <v>       0.42857143       0.42857143       0.50000000 </v>
   <v>      -0.42857143       0.42857143       0.50000000 </v>
  </varray>
  <varray name="weights" >
   <v>       0.00255102 </v>
   <v>       0.01020408 </v>
   <v>       0.01020408 </v>
   <v>       0.01020408 </v>
   <v>       0.00510204 </v>
   <v>       0.01020408 </v>
   <v>       0.01020408 </v>
   <v>       0.01020408 </v>
   <v>       0.01020408 </v>
   <v>       0.00510204 </v>
   <v>       0.00510204 </v>
   <v>       0.01020408 </v>
   <v>       0.01020408 </v>
   <v>       0.00510204 </v>
   <v>       0.00510204 </v>
   <v>       0.00510204 </v>
   <v>       0.00510204 </v>
   <v>       0.01020408 </v>
   <v>       0.01020408 </v>
   <v>       0.01020408 </v>
   <v>       0.01020408 </v>
   <v>       0.01020408 </v>
   <v>       0.01020408 </v>
   <v>       0.00510204 </v>
   <v>       0.01020408 </v>
   <v>       0.01020408 </v>
   <v>       0.01020408 </v>
   <v>       0.01020408 </v>
   <v>       0.01020408 </v>
   <v>       0.00510204 </v>
   <v>       0.01020408 </v>
   <v>       0.01020408 </v>
   <v>       0.01020408 </v>
   <v>       0.01020408 </v>
   <v>       0.00510204 </v>
   <v>       0.01020408 </v>
   <v>       0.01020408 </v>
   <v>       0.01020408 </v>
   <v>       0.00510204 </v>
   <v>       0.01020408 </v>
   <v>       0.01020408 </v>
   <v>       0.00510204 </v>
   <v>       0.01020408 </v>
   <v>       0.00510204 </v>
   <v>       0.00510204 </v>
   <v>       0.01020408 </v>
   <v>       0.01020408 </v>
   <v>       0.01020408 </v>
   <v>       0.01020408 </v>
   <v>       0.01020408 </v>
   <v>       0.01020408 </v>
   <v>       0.00510204 </v>
   <v>       0.01020408 </v>
   <v>       0.01020408 </v>
   <v>       0.01020408 </v>
   <v>       0.01020408 </v>
   <v>       0.01020408 </v>
   <v>       0.00510204 </v>
   <v>       0.01020408 </v>
   <v>       0.01020408 </v>
   <v>       0.01020408 </v>
   <v>       0.01020408 </v>
   <v>       0.00510204 </v>
   <v>       0.01020408 </v>
   <v>       0.01020408 </v>
   <v>       0.01020408 </v>
   <v>       0.00510204 </v>
   <v>       0.01020408 </v>
   <v>       0.01020408 </v>
   <v>       0.00510204 </v>
   <v>       0.01020408 </v>
   <v>       0.00510204 </v>
   <v>       0.00510204 </v>
   <v>       0.01020408 </v>
   <v>       0.01020408 </v>
   <v>       0.01020408 </v>
   <v>       0.01020408 </v>
   <v>       0.01020408 </v>
   <v>       0.01020408 </v>
   <v>       0.00510204 </v>
   <v>       0.01020408 </v>
   <v>       0.01020408 </v>
   <v>       0.01020408 </v>
   <v>       0.01020408 </v>
   <v>       0.01020408 </v>
   <v>       0.00510204 </v>
   <v>       0.01020408 </v>
   <v>       0.01020408 </v>
   <v>       0.01020408 </v>
   <v>       0.01020408 </v>
   <v>       0.00510204 </v>
   <v>       0.01020408 </v>
   <v>       0.01020408 </v>
   <v>       0.01020408 </v>
   <v>       0.00510204 </v>
   <v>       0.01020408 </v>
   <v>       0.01020408 </v>
   <v>       0.00510204 </v>
   <v>       0.01020408 </v>
   <v>       0.00510204 </v>
   <v>       0.00255102 </v>
   <v>       0.01020408 </v>
   <v>       0.01020408 </v>
   <v>       0.01020408 </v>
   <v>       0.00510204 </v>
   <v>       0.01020408 </v>
   <v>       0.01020408 </v>
   <v>       0.01020408 </v>
   <v>       0.01020408 </v>
   <v>       0.00510204 </v>
   <v>       0.00510204 </v>
   <v>       0.01020408 </v>
   <v>       0.01020408 </v>
   <v>       0.00510204 </v>
   <v>       0.00510204 </v>
   <v>       0.00510204 </v>
  </varray>
 </kpoints>
 <parameters>
  <separator name="general" >
   <i type="string" name="SYSTEM">routine with relax: pwdword</i>
   <i type="logical" name="LCOMPAT"> F  </i>
  </separator>
  <separator name="electronic" >
   <i type="string" name="PREC">acc</i>
   <i name="ENMAX">    600.00000000</i>
   <i name="ENAUG">    535.51400000</i>
   <i name="EDIFF">      0.00000000</i>
   <i type="int" name="IALGO">    58</i>
   <i type="int" name="IWAVPR">    10</i>
   <i type="int" name="NBANDS">    60</i>
   <i type="int" name="NBANDSLOW">    -1</i>
   <i type="int" name="NBANDSHIGH">    -1</i>
   <i name="NELECT">     98.00000000</i>
   <i type="int" name="TURBO">     0</i>
   <i type="int" name="IRESTART">     0</i>
   <i type="int" name="NREBOOT">     0</i>
   <i type="int" name="NMIN">     0</i>
   <i name="EREF">      0.00000000</i>
   <separator name="electronic smearing" >
    <i type="int" name="ISMEAR">     0</i>
    <i name="SIGMA">      0.02000000</i>
    <i name="KSPACING">      0.50000000</i>
    <i type="logical" name="KGAMMA"> T  </i>
    <i type="logical" name="KBLOWUP"> F  </i>
   </separator>
   <separator name="electronic projectors" >
    <i type="logical" name="LREAL"> F  </i>
    <v name="ROPT">      0.00000000      0.00000000      0.00000000</v>
    <i type="int" name="LMAXPAW">  -100</i>
    <i type="int" name="LMAXMIX">     2</i>
    <i type="logical" name="NLSPLINE"> F  </i>
   </separator>
   <separator name="electronic startup" >
    <i type="int" name="ISTART">     0</i>
    <i type="int" name="ICHARG">     2</i>
    <i type="int" name="INIWAV">     1</i>
   </separator>
   <separator name="electronic spin" >
    <i type="int" name="ISPIN">     1</i>
    <i type="logical" name="LNONCOLLINEAR"> F  </i>
    <v name="MAGMOM">      1.00000000      1.00000000      1.00000000      1.00000000      1.00000000      1.00000000      1.00000000      1.00000000      1.00000000      1.00000000</v>
    <i name="NUPDOWN">     -1.00000000</i>
    <i type="logical" name="LSORBIT"> F  </i>
    <v name="SAXIS">      0.00000000      0.00000000      1.00000000</v>
    <i type="logical" name="LSPIRAL"> F  </i>
    <v name="QSPIRAL">      0.00000000      0.00000000      0.00000000</v>
    <i type="logical" name="LZEROZ"> F  </i>
   </separator>
   <separator name="electronic exchange-correlation" >
    <i type="logical" name="LASPH"> T  </i>
    <i type="logical" name="LMETAGGA"> F  </i>
   </separator>
   <separator name="electronic convergence" >
    <i type="int" name="NELM">   100</i>
    <i type="int" name="NELMDL">    -5</i>
    <i type="int" name="NELMIN">     6</i>
    <i name="ENINI">    600.00000000</i>
    <separator name="electronic convergence detail" >
     <i type="logical" name="LDIAG"> T  </i>
     <i type="logical" name="LSUBROT"> F  </i>
     <i name="WEIMIN">      0.00000000</i>
     <i name="EBREAK">      0.00000000</i>
     <i name="DEPER">      0.30000000</i>
     <i type="int" name="NRMM">     4</i>
     <i name="TIME">      0.40000000</i>
    </separator>
   </separator>
   <separator name="electronic mixer" >
    <i name="AMIX">      0.40000000</i>
    <i name="BMIX">      1.00000000</i>
    <i name="AMIN">      0.10000000</i>
    <i name="AMIX_MAG">      1.60000000</i>
    <i name="BMIX_MAG">      1.00000000</i>
    <separator name="electronic mixer details" >
     <i type="int" name="IMIX">     4</i>
     <i type="logical" name="MIXFIRST"> F  </i>
     <i type="int" name="MAXMIX">   -45</i>
     <i name="WC">    100.00000000</i>
     <i type="int" name="INIMIX">     1</i>
     <i type="int" name="MIXPRE">     1</i>
     <i type="int" name="MREMOVE">     5</i>
    </separator>
   </separator>
   <separator name="electronic dipolcorrection" >
    <i type="logical" name="LDIPOL"> F  </i>
    <i type="logical" name="LMONO"> F  </i>
    <i type="int" name="IDIPOL">     0</i>
    <i name="EPSILON">      1.00000000</i>
    <v name="DIPOL">   -100.00000000   -100.00000000   -100.00000000</v>
    <i name="EFIELD">      0.00000000</i>
   </separator>
  </separator>
  <separator name="grids" >
   <i type="int" name="NGX">    54</i>
   <i type="int" name="NGY">    54</i>
   <i type="int" name="NGZ">    54</i>
   <i type="int" name="NGXF">   108</i>
   <i type="int" name="NGYF">   108</i>
   <i type="int" name="NGZF">   108</i>
   <i type="logical" name="ADDGRID"> T  </i>
  </separator>
  <separator name="ionic" >
   <i type="int" name="NSW">     0</i>
   <i type="int" name="IBRION">    -1</i>
   <i type="int" name="MDALGO">     0</i>
   <i type="int" name="ISIF">    -1</i>
   <i name="PSTRESS">      0.00000000</i>
   <i name="EDIFFG">      0.00000001</i>
   <i type="int" name="NFREE">     0</i>
   <i name="POTIM">      0.50000000</i>
   <i name="SMASS">     -3.00000000</i>
   <i name="SCALEE">      1.00000000</i>
  </separator>
  <separator name="ionic md" >
   <i name="TEBEG">      0.00010000</i>
   <i name="TEEND">      0.00010000</i>
   <i type="int" name="NBLOCK">     1</i>
   <i type="int" name="KBLOCK">     1</i>
   <i type="int" name="NPACO">   256</i>
   <i name="APACO">     16.00000000</i>
  </separator>
  <separator name="symmetry" >
   <i type="int" name="ISYM">     2</i>
   <i name="SYMPREC">      0.00001000</i>
  </separator>
  <separator name="dos" >
   <i type="int" name="LORBIT">     0</i>
   <v name="RWIGS">     -1.00000000     -1.00000000     -1.00000000</v>
   <i type="int" name="NEDOS">   301</i>
   <i name="EMIN">     10.00000000</i>
   <i name="EMAX">    -10.00000000</i>
   <i name="EFERMI">      0.00000000</i>
  </separator>
  <separator name="writing" >
   <i type="int" name="NWRITE">     2</i>
   <i type="logical" name="LWAVE"> T  </i>
   <i type="logical" name="LDOWNSAMPLE"> F  </i>
   <i type="logical" name="LCHARG"> T  </i>
   <i type="logical" name="LPARD"> F  </i>
   <i type="logical" name="LVTOT"> F  </i>
   <i type="logical" name="LVHAR"> F  </i>
   <i type="logical" name="LELF"> F  </i>
   <i type="logical" name="LOPTICS"> F  </i>
   <v name="STM">      0.00000000      0.00000000      0.00000000      0.00000000      0.00000000      0.00000000      0.00000000</v>
  </separator>
  <separator name="performance" >
   <i type="int" name="NPAR">     6</i>
   <i type="int" name="NSIM">     4</i>
   <i type="int" name="NBLK">    -1</i>
   <i type="logical" name="LPLANE"> T  </i>
   <i type="logical" name="LSCALAPACK"> T  </i>
   <i type="logical" name="LSCAAWARE"> F  </i>
   <i type="logical" name="LSCALU"> F  </i>
   <i type="logical" name="LASYNC"> F  </i>
   <i type="logical" name="LORBITALREAL"> F  </i>
  </separator>
  <separator name="miscellaneous" >
   <i type="int" name="IDIOT">     3</i>
   <i type="int" name="PHON_NSTRUCT">    -1</i>
   <i type="logical" name="LMUSIC"> F  </i>
   <v name="POMASS">     10.81100000     95.94000000     28.08500000</v>
   <v name="DARWINR">      0.00000000      0.00000000      0.00000000</v>
   <v name="DARWINV">      1.00000000      1.00000000      1.00000000</v>
   <i type="logical" name="LCORR"> T  </i>
  </separator>
  <i type="logical" name="GGA_COMPAT"> T  </i>
  <i type="logical" name="LBERRY"> F  </i>
  <i type="int" name="ICORELEVEL">     0</i>
  <i type="logical" name="LDAU"> F  </i>
  <i type="int" name="I_CONSTRAINED_M">     0</i>
  <separator name="electronic exchange-correlation" >
   <i type="string" name="GGA">--</i>
   <i type="int" name="VOSKOWN">     0</i>
   <i type="logical" name="LHFCALC"> F  </i>
   <i type="string" name="PRECFOCK"></i>
   <i type="logical" name="LSYMGRAD"> F  </i>
   <i type="logical" name="LHFONE"> F  </i>
   <i type="logical" name="LRHFCALC"> F  </i>
   <i type="logical" name="LTHOMAS"> F  </i>
   <i type="logical" name="LMODELHF"> F  </i>
   <i type="logical" name="LFOCKACE"> F  </i>
   <i name="ENCUT4O">     -1.00000000</i>
   <i type="int" name="EXXOEP">     0</i>
   <i type="int" name="FOURORBIT">     0</i>
   <i name="AEXX">      0.00000000</i>
   <i name="HFALPHA">      0.00000000</i>
   <i name="MCALPHA">      0.00000000</i>
   <i name="ALDAX">      1.00000000</i>
   <i name="AGGAX">      1.00000000</i>
   <i name="ALDAC">      1.00000000</i>
   <i name="AGGAC">      1.00000000</i>
   <i type="int" name="NKREDX">     1</i>
   <i type="int" name="NKREDY">     1</i>
   <i type="int" name="NKREDZ">     1</i>
   <i type="logical" name="SHIFTRED"> F  </i>
   <i type="logical" name="ODDONLY"> F  </i>
   <i type="logical" name="EVENONLY"> F  </i>
   <i type="int" name="LMAXFOCK">     0</i>
   <i type="int" name="NMAXFOCKAE">     0</i>
   <i type="logical" name="LFOCKAEDFT"> F  </i>
   <i name="HFSCREEN">      0.00000000</i>
   <i name="HFSCREENC">      0.00000000</i>
   <i type="int" name="NBANDSGWLOW">     0</i>
  </separator>
  <separator name="vdW DFT" >
   <i type="logical" name="LUSE_VDW"> F  </i>
   <i name="Zab_VDW">     -0.84910000</i>
   <i name="PARAM1">      0.12340000</i>
   <i name="PARAM2">      1.00000000</i>
   <i name="PARAM3">      0.00000000</i>
  </separator>
  <separator name="model GW" >
   <i type="int" name="MODEL_GW">     0</i>
   <i name="MODEL_EPS0">     11.82204644</i>
   <i name="MODEL_ALPHA">      1.00000000</i>
  </separator>
  <separator name="linear response parameters" >
   <i type="logical" name="LEPSILON"> F  </i>
   <i type="logical" name="LRPA"> F  </i>
   <i type="logical" name="LNABLA"> F  </i>
   <i type="logical" name="LVEL"> F  </i>
   <i type="int" name="KINTER">     0</i>
   <i name="CSHIFT">      0.10000000</i>
   <i name="OMEGAMAX">     -1.00000000</i>
   <i name="DEG_THRESHOLD">      0.00200000</i>
   <i name="RTIME">     -0.10000000</i>
   <i name="WPLASMAI">      0.00000000</i>
   <v name="DFIELD">      0.00000000      0.00000000      0.00000000</v>
   <v name="WPLASMA">      0.00000000      0.00000000      0.00000000      0.00000000      0.00000000      0.00000000      0.00000000      0.00000000      0.00000000</v>
  </separator>
  <separator name="orbital magnetization" >
   <i type="logical" name="NUCIND"> F  </i>
   <v name="MAGPOS">      0.00000000      0.00000000      0.00000000</v>
   <i type="logical" name="LNICSALL"> T  </i>
   <i type="logical" name="ORBITALMAG"> F  </i>
   <i type="logical" name="LMAGBLOCH"> F  </i>
   <i type="logical" name="LCHIMAG"> F  </i>
   <i type="logical" name="LGAUGE"> T  </i>
   <i type="int" name="MAGATOM">     0</i>
   <v name="MAGDIPOL">      0.00000000      0.00000000      0.00000000</v>
   <v name="AVECCONST">      0.00000000      0.00000000      0.00000000</v>
  </separator>
  <separator name="response functions" >
   <i type="logical" name="LFINITE_TEMPERATURE"> F  </i>
   <i type="logical" name="LADDER"> F  </i>
   <i type="logical" name="LRPAFORCE"> F  </i>
   <i type="logical" name="LFXC"> F  </i>
   <i type="logical" name="LHARTREE"> T  </i>
   <i type="int" name="IBSE">     0</i>
   <v type="int" name="KPOINT">    -1     0     0     0</v>
   <i type="logical" name="LTCTC"> F  </i>
   <i type="logical" name="LTCTE"> F  </i>
   <i type="logical" name="LTETE"> F  </i>
   <i type="logical" name="LTRIPLET"> F  </i>
   <i type="logical" name="LFXCEPS"> F  </i>
   <i type="logical" name="LFXHEG"> F  </i>
   <i type="int" name="NATURALO">     2</i>
   <i type="logical" name="LHOLEGF"> F  </i>
   <i type="logical" name="L2ORDER"> F  </i>
   <i type="logical" name="LDMP1"> F  </i>
   <i type="logical" name="LMP2LT"> F  </i>
   <i type="logical" name="LSMP2LT"> F  </i>
   <i type="logical" name="LGWLF"> F  </i>
   <i name="ENCUTGW">     -2.00000000</i>
   <i name="ENCUTGWSOFT">     -2.00000000</i>
   <i name="ENCUTLF">     -1.00000000</i>
   <i type="logical" name="LESF_SPLINES"> F  </i>
   <i type="int" name="LMAXMP2">    -1</i>
   <i name="SCISSOR">      0.00000000</i>
   <i type="int" name="NOMEGA">     0</i>
   <i type="int" name="NOMEGAR">     0</i>
   <i type="int" name="NBANDSGW">    -1</i>
   <i type="int" name="NBANDSO">    -1</i>
   <i type="int" name="NBANDSV">    -1</i>
   <i type="int" name="NELM">   100</i>
   <i type="int" name="NELMHF">     1</i>
   <i type="int" name="DIM">     3</i>
   <i type="int" name="IESPILON">     4</i>
   <i type="int" name="ANTIRES">     0</i>
   <i name="OMEGAMAX">    -30.00000000</i>
   <i name="OMEGAMIN">    -30.00000000</i>
   <i name="OMEGATL">   -200.00000000</i>
   <i type="int" name="OMEGAGRID">     0</i>
   <i name="CSHIFT">     -0.10000000</i>
   <i type="logical" name="LSELFENERGY"> F  </i>
   <i type="logical" name="LSPECTRAL"> F  </i>
   <i type="logical" name="LSPECTRALGW"> F  </i>
   <i type="logical" name="LSINGLES"> F  </i>
   <i type="logical" name="LFERMIGW"> F  </i>
   <i type="logical" name="ODDONLYGW"> F  </i>
   <i type="logical" name="EVENONLYGW"> F  </i>
   <i type="int" name="NKREDLFX">     1</i>
   <i type="int" name="NKREDLFY">     1</i>
   <i type="int" name="NKREDLFZ">     1</i>
   <i type="int" name="MAXMEM">  2800</i>
   <i type="int" name="TELESCOPE">     0</i>
   <i type="int" name="NTAUPAR">    -1</i>
   <i type="int" name="NOMEGAPAR">    -1</i>
   <i name="DAMP_NEWTON">      0.80000001</i>
   <i name="LAMBDA">      1.00000000</i>
  </separator>
  <separator name="External order field" >
   <i name="OFIELD_KAPPA">      0.00000000</i>
   <v name="OFIELD_K">      0.00000000      0.00000000      0.00000000</v>
   <i name="OFIELD_Q6_NEAR">      0.00000000</i>
   <i name="OFIELD_Q6_FAR">      0.00000000</i>
   <i name="OFIELD_A">      0.00000000</i>
  </separator>
 </parameters>
 <atominfo>
  <atoms>      10 </atoms>
  <types>       3 </types>
  <array name="atoms" >
   <dimension dim="1">ion</dimension>
   <field type="string">element</field>
   <field type="int">atomtype</field>
   <set>
    <rc><c>B </c><c>   1</c></rc>
    <rc><c>B </c><c>   1</c></rc>
    <rc><c>Mo</c><c>   2</c></rc>
    <rc><c>Mo</c><c>   2</c></rc>
    <rc><c>Mo</c><c>   2</c></rc>
    <rc><c>Mo</c><c>   2</c></rc>
    <rc><c>Mo</c><c>   2</c></rc>
    <rc><c>Mo</c><c>   2</c></rc>
    <rc><c>Si</c><c>   3</c></rc>
    <rc><c>Si</c><c>   3</c></rc>
   </set>
  </array>
  <array name="atomtypes" >
   <dimension dim="1">type</dimension>
   <field type="int">atomspertype</field>
   <field type="string">element</field>
   <field>mass</field>
   <field>valence</field>
   <field type="string">pseudopotential</field>
   <set>
    <rc><c>   2</c><c>B </c><c>     10.81100000</c><c>      3.00000000</c><c>  PAW_PBE B 06Sep2000                   </c></rc>
    <rc><c>   6</c><c>Mo</c><c>     95.94000000</c><c>     14.00000000</c><c>  PAW_PBE Mo_sv 02Feb2006               </c></rc>
    <rc><c>   2</c><c>Si</c><c>     28.08500000</c><c>      4.00000000</c><c>  PAW_PBE Si 05Jan2001                  </c></rc>
   </set>
  </array>
 </atominfo>
 <structure name="initialpos" >
  <crystal>
   <varray name="basis" >
    <v>       5.66371245       0.00000000      -3.23681608 </v>
    <v>      -1.90718825       5.33294213      -3.23681608 </v>
    <v>       0.00000000       0.00000000       6.52339000 </v>
   </varray>
   <i name="volume">    197.03410730 </i>
   <varray name="rec_basis" >
    <v>       0.17656264       0.06314304       0.00000000 </v>
    <v>       0.00000000       0.18751375       0.00000000 </v>
    <v>       0.08760794       0.12437244       0.15329453 </v>
   </varray>
  </crystal>
  <varray name="positions" >
   <v>       0.25000000       0.25000000       0.00000000 </v>
   <v>       0.75000000       0.75000000       0.00000000 </v>
   <v>       0.27807000       0.22193000       0.50000000 </v>
   <v>       0.00000000       0.50000000       0.50000000 </v>
   <v>       0.72193000       0.77807000       0.50000000 </v>
   <v>       0.22193000       0.72193000       0.94386000 </v>
   <v>       0.50000000       0.00000000       0.50000000 </v>
   <v>       0.77807000       0.27807000       0.05614000 </v>
   <v>       0.50000000       0.50000000       0.00000000 </v>
   <v>       0.00000000       0.00000000       0.00000000 </v>
  </varray>
 </structure>
 <calculation>
  <scstep>
   <time name="total">   30.26   30.57</time>
   <energy>
    <i name="alphaZ">    424.01007012 </i>
    <i name="ewald">  -7082.27683598 </i>
    <i name="hartreedc">  -3959.75526795 </i>
    <i name="XCdc">    463.20007151 </i>
    <i name="pawpsdc">   9166.97638771 </i>
    <i name="pawaedc">  -9126.13493418 </i>
    <i name="eentropy">     -0.00070093 </i>
    <i name="bandstr">   -336.50807203 </i>
    <i name="atom">  11522.16744521 </i>
    <i name="e_fr_energy">   1071.67816348 </i>
    <i name="e_wo_entrp">   1071.67886441 </i>
    <i name="e_0_energy">   1071.67851395 </i>
   </energy>
  </scstep>
  <scstep>
   <time name="total">   34.09   34.83</time>
   <energy>
    <i name="e_fr_energy">   -151.35040462 </i>
    <i name="e_wo_entrp">   -151.34898448 </i>
    <i name="e_0_energy">   -151.34969455 </i>
   </energy>
  </scstep>
  <scstep>
   <time name="total">   38.41   39.30</time>
   <energy>
    <i name="e_fr_energy">   -201.05543454 </i>
    <i name="e_wo_entrp">   -201.05367341 </i>
    <i name="e_0_energy">   -201.05455398 </i>
   </energy>
  </scstep>
  <scstep>
   <time name="total">   37.96   38.75</time>
   <energy>
    <i name="e_fr_energy">   -202.34400776 </i>
    <i name="e_wo_entrp">   -202.34210513 </i>
    <i name="e_0_energy">   -202.34305645 </i>
   </energy>
  </scstep>
  <scstep>
   <time name="total">   40.74   41.59</time>
   <energy>
    <i name="e_fr_energy">   -202.37731655 </i>
    <i name="e_wo_entrp">   -202.37538244 </i>
    <i name="e_0_energy">   -202.37634949 </i>
   </energy>
  </scstep>
  <scstep>
   <time name="total">   37.88   38.31</time>
   <energy>
    <i name="e_fr_energy">   -156.64167575 </i>
    <i name="e_wo_entrp">   -156.63943810 </i>
    <i name="e_0_energy">   -156.64055693 </i>
   </energy>
  </scstep>
  <scstep>
   <time name="total">   41.22   41.88</time>
   <energy>
    <i name="e_fr_energy">   -160.70103406 </i>
    <i name="e_wo_entrp">   -160.69806375 </i>
    <i name="e_0_energy">   -160.69954890 </i>
   </energy>
  </scstep>
  <scstep>
   <time name="total">   44.59   45.27</time>
   <energy>
    <i name="e_fr_energy">   -161.80051859 </i>
    <i name="e_wo_entrp">   -161.79710796 </i>
    <i name="e_0_energy">   -161.79881328 </i>
   </energy>
  </scstep>
  <scstep>
   <time name="total">   43.02   43.43</time>
   <energy>
    <i name="e_fr_energy">   -162.08357045 </i>
    <i name="e_wo_entrp">   -162.08037159 </i>
    <i name="e_0_energy">   -162.08197102 </i>
   </energy>
  </scstep>
  <scstep>
   <time name="total">   44.76   45.42</time>
   <energy>
    <i name="e_fr_energy">   -162.22110822 </i>
    <i name="e_wo_entrp">   -162.21798696 </i>
    <i name="e_0_energy">   -162.21954759 </i>
   </energy>
  </scstep>
  <scstep>
   <time name="total">   45.97   46.37</time>
   <energy>
    <i name="e_fr_energy">   -162.27123415 </i>
    <i name="e_wo_entrp">   -162.26829290 </i>
    <i name="e_0_energy">   -162.26976352 </i>
   </energy>
  </scstep>
  <scstep>
   <time name="total">   45.14   45.80</time>
   <energy>
    <i name="e_fr_energy">   -162.29314458 </i>
    <i name="e_wo_entrp">   -162.29034921 </i>
    <i name="e_0_energy">   -162.29174690 </i>
   </energy>
  </scstep>
  <scstep>
   <time name="total">   42.11   42.53</time>
   <energy>
    <i name="e_fr_energy">   -162.30242716 </i>
    <i name="e_wo_entrp">   -162.29967123 </i>
    <i name="e_0_energy">   -162.30104919 </i>
   </energy>
  </scstep>
  <scstep>
   <time name="total">   46.57   47.37</time>
   <energy>
    <i name="e_fr_energy">   -162.30653273 </i>
    <i name="e_wo_entrp">   -162.30375557 </i>
    <i name="e_0_energy">   -162.30514415 </i>
   </energy>
  </scstep>
  <scstep>
   <time name="total">   45.08   45.84</time>
   <energy>
    <i name="e_fr_energy">   -162.30855824 </i>
    <i name="e_wo_entrp">   -162.30573332 </i>
    <i name="e_0_energy">   -162.30714578 </i>
   </energy>
  </scstep>
  <scstep>
   <time name="total">   45.77   46.41</time>
   <energy>
    <i name="e_fr_energy">   -162.30954889 </i>
    <i name="e_wo_entrp">   -162.30667218 </i>
    <i name="e_0_energy">   -162.30811053 </i>
   </energy>
  </scstep>
  <scstep>
   <time name="total">   43.82   44.20</time>
   <energy>
    <i name="e_fr_energy">   -162.31004903 </i>
    <i name="e_wo_entrp">   -162.30714263 </i>
    <i name="e_0_energy">   -162.30859583 </i>
   </energy>
  </scstep>
  <scstep>
   <time name="total">   44.20   44.59</time>
   <energy>
    <i name="e_fr_energy">   -162.31024090 </i>
    <i name="e_wo_entrp">   -162.30731904 </i>
    <i name="e_0_energy">   -162.30877997 </i>
   </energy>
  </scstep>
  <scstep>
   <time name="total">   42.73   43.12</time>
   <energy>
    <i name="e_fr_energy">   -162.31031765 </i>
    <i name="e_wo_entrp">   -162.30739185 </i>
    <i name="e_0_energy">   -162.30885475 </i>
   </energy>
  </scstep>
  <scstep>
   <time name="total">   45.31   46.15</time>
   <energy>
    <i name="e_fr_energy">   -162.31034664 </i>
    <i name="e_wo_entrp">   -162.30741989 </i>
    <i name="e_0_energy">   -162.30888326 </i>
   </energy>
  </scstep>
  <scstep>
   <time name="total">   41.64   42.26</time>
   <energy>
    <i name="e_fr_energy">   -162.31035906 </i>
    <i name="e_wo_entrp">   -162.30743467 </i>
    <i name="e_0_energy">   -162.30889686 </i>
   </energy>
  </scstep>
  <scstep>
   <time name="total">   44.31   44.95</time>
   <energy>
    <i name="e_fr_energy">   -162.31036537 </i>
    <i name="e_wo_entrp">   -162.30744314 </i>
    <i name="e_0_energy">   -162.30890425 </i>
   </energy>
  </scstep>
  <scstep>
   <time name="total">   44.66   45.06</time>
   <energy>
    <i name="e_fr_energy">   -162.31036851 </i>
    <i name="e_wo_entrp">   -162.30744784 </i>
    <i name="e_0_energy">   -162.30890818 </i>
   </energy>
  </scstep>
  <scstep>
   <time name="total">   45.05   45.60</time>
   <energy>
    <i name="e_fr_energy">   -162.31036952 </i>
    <i name="e_wo_entrp">   -162.30744934 </i>
    <i name="e_0_energy">   -162.30890943 </i>
   </energy>
  </scstep>
  <scstep>
   <time name="total">   44.36   44.80</time>
   <energy>
    <i name="e_fr_energy">   -162.31036999 </i>
    <i name="e_wo_entrp">   -162.30744997 </i>
    <i name="e_0_energy">   -162.30890998 </i>
   </energy>
  </scstep>
  <scstep>
   <time name="total">   43.72   44.16</time>
   <energy>
    <i name="e_fr_energy">   -162.31037019 </i>
    <i name="e_wo_entrp">   -162.30745029 </i>
    <i name="e_0_energy">   -162.30891024 </i>
   </energy>
  </scstep>
  <scstep>
   <time name="total">   44.81   45.21</time>
   <energy>
    <i name="e_fr_energy">   -162.31037030 </i>
    <i name="e_wo_entrp">   -162.30745037 </i>
    <i name="e_0_energy">   -162.30891034 </i>
   </energy>
  </scstep>
  <scstep>
   <time name="total">   43.32   43.69</time>
   <energy>
    <i name="e_fr_energy">   -162.31037037 </i>
    <i name="e_wo_entrp">   -162.30745046 </i>
    <i name="e_0_energy">   -162.30891041 </i>
   </energy>
  </scstep>
  <scstep>
   <time name="total">   44.62   45.18</time>
   <energy>
    <i name="e_fr_energy">   -162.31037040 </i>
    <i name="e_wo_entrp">   -162.30745051 </i>
    <i name="e_0_energy">   -162.30891046 </i>
   </energy>
  </scstep>
  <scstep>
   <time name="total">   41.98   42.50</time>
   <energy>
    <i name="e_fr_energy">   -162.31037041 </i>
    <i name="e_wo_entrp">   -162.30745054 </i>
    <i name="e_0_energy">   -162.30891048 </i>
   </energy>
  </scstep>
  <scstep>
   <time name="total">   42.38   42.95</time>
   <energy>
    <i name="e_fr_energy">   -162.31037042 </i>
    <i name="e_wo_entrp">   -162.30745056 </i>
    <i name="e_0_energy">   -162.30891049 </i>
   </energy>
  </scstep>
  <scstep>
   <time name="total">   68.09   68.78</time>
   <energy>
    <i name="e_fr_energy">   -162.31037042 </i>
    <i name="e_wo_entrp">   -162.30745060 </i>
    <i name="e_0_energy">   -162.30891051 </i>
   </energy>
  </scstep>
  <scstep>
   <time name="total">   44.34   44.98</time>
   <energy>
    <i name="e_fr_energy">   -162.31037041 </i>
    <i name="e_wo_entrp">   -162.30745062 </i>
    <i name="e_0_energy">   -162.30891052 </i>
   </energy>
  </scstep>
  <scstep>
   <time name="total">   41.96   42.33</time>
   <energy>
    <i name="e_fr_energy">   -162.31037042 </i>
    <i name="e_wo_entrp">   -162.30745056 </i>
    <i name="e_0_energy">   -162.30891049 </i>
   </energy>
  </scstep>
  <scstep>
   <time name="total">   41.97   42.34</time>
   <energy>
    <i name="e_fr_energy">   -162.31037040 </i>
    <i name="e_wo_entrp">   -162.30745051 </i>
    <i name="e_0_energy">   -162.30891046 </i>
   </energy>
  </scstep>
  <scstep>
   <time name="total">   38.88   39.26</time>
   <energy>
    <i name="e_fr_energy">   -162.31037044 </i>
    <i name="e_wo_entrp">   -162.30745058 </i>
    <i name="e_0_energy">   -162.30891051 </i>
   </energy>
  </scstep>
  <scstep>
   <time name="total">   42.18   42.57</time>
   <energy>
    <i name="e_fr_energy">   -162.31037043 </i>
    <i name="e_wo_entrp">   -162.30745058 </i>
    <i name="e_0_energy">   -162.30891051 </i>
   </energy>
  </scstep>
  <scstep>
   <time name="total">   41.24   41.62</time>
   <energy>
    <i name="e_fr_energy">   -162.31037043 </i>
    <i name="e_wo_entrp">   -162.30745058 </i>
    <i name="e_0_energy">   -162.30891051 </i>
   </energy>
  </scstep>
  <scstep>
   <time name="total">   42.04   42.51</time>
   <energy>
    <i name="e_fr_energy">   -162.31037043 </i>
    <i name="e_wo_entrp">   -162.30745058 </i>
    <i name="e_0_energy">   -162.30891050 </i>
   </energy>
  </scstep>
  <scstep>
   <time name="total">   41.01   41.57</time>
   <energy>
    <i name="e_fr_energy">   -162.31037043 </i>
    <i name="e_wo_entrp">   -162.30745058 </i>
    <i name="e_0_energy">   -162.30891050 </i>
   </energy>
  </scstep>
  <scstep>
   <time name="total">   47.06   47.49</time>
   <energy>
    <i name="alphaZ">    424.01007012 </i>
    <i name="ewald">  -7082.27683598 </i>
    <i name="hartreedc">  -3933.46306542 </i>
    <i name="XCdc">    476.13251447 </i>
    <i name="pawpsdc">  14378.10855135 </i>
    <i name="pawaedc"> -14348.12361576 </i>
    <i name="eentropy">     -0.00291984 </i>
    <i name="bandstr">  -1598.86251458 </i>
    <i name="atom">  11522.16744521 </i>
    <i name="e_fr_energy">   -162.31037043 </i>
    <i name="e_wo_entrp">   -162.30745058 </i>
    <i name="e_0_energy">   -162.30891050 </i>
   </energy>
  </scstep>
  <structure>
   <crystal>
    <varray name="basis" >
     <v>       5.66371245       0.00000000      -3.23681608 </v>
     <v>      -1.90718825       5.33294213      -3.23681608 </v>
     <v>       0.00000000       0.00000000       6.52339000 </v>
    </varray>
    <i name="volume">    197.03410730 </i>
    <varray name="rec_basis" >
     <v>       0.17656264       0.06314304       0.00000000 </v>
     <v>       0.00000000       0.18751375       0.00000000 </v>
     <v>       0.08760794       0.12437244       0.15329453 </v>
    </varray>
   </crystal>
   <varray name="positions" >
    <v>       0.25000000       0.25000000       0.00000000 </v>
    <v>       0.75000000       0.75000000       0.00000000 </v>
    <v>       0.27807000       0.22193000       0.50000000 </v>
    <v>       0.00000000       0.50000000       0.50000000 </v>
    <v>       0.72193000       0.77807000       0.50000000 </v>
    <v>       0.22193000       0.72193000       0.94386000 </v>
    <v>       0.50000000       0.00000000       0.50000000 </v>
    <v>       0.77807000       0.27807000       0.05614000 </v>
    <v>       0.50000000       0.50000000       0.00000000 </v>
    <v>       0.00000000       0.00000000       0.00000000 </v>
   </varray>
  </structure>
  <varray name="forces" >
   <v>       0.00000000       0.00000000       0.00000000 </v>
   <v>       0.00000000       0.00000000       0.00000000 </v>
   <v>       0.00000000       0.00000000       0.00000000 </v>
   <v>       0.00000000       0.00000000       0.00000000 </v>
   <v>       0.00000000       0.00000000       0.00000000 </v>
   <v>       0.00000000       0.00000000       0.00000000 </v>
   <v>       0.00000000       0.00000000       0.00000000 </v>
   <v>       0.00000000       0.00000000       0.00000000 </v>
   <v>       0.00000000       0.00000000       0.00000000 </v>
   <v>       0.00000000       0.00000000       0.00000000 </v>
  </varray>
  <varray name="stress" >
   <v>       0.00000000       0.00000000       0.00000000 </v>
   <v>       0.00000000       0.00000000       0.00000000 </v>
   <v>       0.00000000       0.00000000       0.00000000 </v>
  </varray>
  <energy>
   <i name="e_fr_energy">   -162.31037043 </i>
   <i name="e_wo_entrp">   -162.30745058 </i>
   <i name="e_0_energy">   -162.30891050 </i>
  </energy>
  <time name="totalsc"> 1775.37 1797.71</time>
  <eigenvalues>
   <array>
    <dimension dim="1">band</dimension>
    <dimension dim="2">kpoint</dimension>
    <dimension dim="3">spin</dimension>
    <field>eigene</field>
    <field>occ</field>
    <set>
     <set comment="spin 1">
      <set comment="kpoint 1">
       <r>  -57.0877    1.0000 </r>
       <r>  -56.9337    1.0000 </r>
       <r>  -56.1981    1.0000 </r>
       <r>  -56.1980    1.0000 </r>
       <r>  -55.6476    1.0000 </r>
       <r>  -55.4919    1.0000 </r>
       <r>  -33.0311    1.0000 </r>
       <r>  -33.0308    1.0000 </r>
       <r>  -30.1963    1.0000 </r>
       <r>  -30.1963    1.0000 </r>
       <r>  -30.0680    1.0000 </r>
       <r>  -30.0289    1.0000 </r>
       <r>  -29.9887    1.0000 </r>
       <r>  -29.9237    1.0000 </r>
       <r>  -29.7945    1.0000 </r>
       <r>  -29.5298    1.0000 </r>
       <r>  -29.5069    1.0000 </r>
       <r>  -29.5068    1.0000 </r>
       <r>  -29.2757    1.0000 </r>
       <r>  -29.2757    1.0000 </r>
       <r>  -29.1270    1.0000 </r>
       <r>  -29.0013    1.0000 </r>
       <r>  -27.1328    1.0000 </r>
       <r>  -27.1327    1.0000 </r>
       <r>   -4.2978    1.0000 </r>
       <r>   -1.5370    1.0000 </r>
       <r>   -1.0507    1.0000 </r>
       <r>    0.2609    1.0000 </r>
       <r>    1.0995    1.0000 </r>
       <r>    1.2291    1.0000 </r>
       <r>    1.2291    1.0000 </r>
       <r>    1.6853    1.0000 </r>
       <r>    2.2428    1.0000 </r>
       <r>    2.2429    1.0000 </r>
       <r>    2.5752    1.0000 </r>
       <r>    2.7314    1.0000 </r>
       <r>    3.8693    1.0000 </r>
       <r>    4.2238    1.0000 </r>
       <r>    4.2238    1.0000 </r>
       <r>    4.4235    1.0000 </r>
       <r>    4.5953    1.0000 </r>
       <r>    4.5954    1.0000 </r>
       <r>    5.1116    1.0000 </r>
       <r>    5.6988    1.0000 </r>
       <r>    5.9757    1.0000 </r>
       <r>    5.9757    1.0000 </r>
       <r>    6.2721    1.0000 </r>
       <r>    6.2721    1.0000 </r>
       <r>    6.5827    0.0000 </r>
       <r>    6.5924    0.0000 </r>
       <r>    6.6549    0.0000 </r>
       <r>    6.9897    0.0000 </r>
       <r>    6.9897    0.0000 </r>
       <r>    7.1250    0.0000 </r>
       <r>    7.2480    0.0000 </r>
       <r>    7.5142    0.0000 </r>
       <r>    7.5142    0.0000 </r>
       <r>    7.9171    0.0000 </r>
       <r>    8.7288    0.0000 </r>
       <r>    8.9748    0.0000 </r>
      </set>
      <set comment="kpoint 2">
       <r>  -57.0809    1.0000 </r>
       <r>  -56.9424    1.0000 </r>
       <r>  -56.1977    1.0000 </r>
       <r>  -56.1975    1.0000 </r>
       <r>  -55.6393    1.0000 </r>
       <r>  -55.4992    1.0000 </r>
       <r>  -33.0241    1.0000 </r>
       <r>  -33.0239    1.0000 </r>
       <r>  -30.3364    1.0000 </r>
       <r>  -30.3257    1.0000 </r>
       <r>  -30.0620    1.0000 </r>
       <r>  -29.9324    1.0000 </r>
       <r>  -29.9111    1.0000 </r>
       <r>  -29.8843    1.0000 </r>
       <r>  -29.7784    1.0000 </r>
       <r>  -29.5431    1.0000 </r>
       <r>  -29.5062    1.0000 </r>
       <r>  -29.5058    1.0000 </r>
       <r>  -29.2444    1.0000 </r>
       <r>  -29.2421    1.0000 </r>
       <r>  -29.1202    1.0000 </r>
       <r>  -29.0070    1.0000 </r>
       <r>  -27.1509    1.0000 </r>
       <r>  -27.1506    1.0000 </r>
       <r>   -4.2066    1.0000 </r>
       <r>   -1.8437    1.0000 </r>
       <r>   -0.8538    1.0000 </r>
       <r>    0.3217    1.0000 </r>
       <r>    1.0982    1.0000 </r>
       <r>    1.3309    1.0000 </r>
       <r>    1.3536    1.0000 </r>
       <r>    1.4308    1.0000 </r>
       <r>    2.2447    1.0000 </r>
       <r>    2.2667    1.0000 </r>
       <r>    2.6050    1.0000 </r>
       <r>    3.0101    1.0000 </r>
       <r>    3.8386    1.0000 </r>
       <r>    4.1171    1.0000 </r>
       <r>    4.1180    1.0000 </r>
       <r>    4.1853    1.0000 </r>
       <r>    4.3668    1.0000 </r>
       <r>    4.5314    1.0000 </r>
       <r>    5.5628    1.0000 </r>
       <r>    5.5679    1.0000 </r>
       <r>    5.6258    1.0000 </r>
       <r>    6.0014    1.0000 </r>
       <r>    6.1345    1.0000 </r>
       <r>    6.2255    1.0000 </r>
       <r>    6.5165    0.0000 </r>
       <r>    6.6221    0.0000 </r>
       <r>    6.6773    0.0000 </r>
       <r>    6.6978    0.0000 </r>
       <r>    7.0727    0.0000 </r>
       <r>    7.2890    0.0000 </r>
       <r>    7.3287    0.0000 </r>
       <r>    7.5202    0.0000 </r>
       <r>    7.7280    0.0000 </r>
       <r>    7.8417    0.0000 </r>
       <r>    8.9785    0.0000 </r>
       <r>    9.0155    0.0000 </r>
      </set>
      <set comment="kpoint 3">
       <r>  -57.0615    1.0000 </r>
       <r>  -56.9660    1.0000 </r>
       <r>  -56.1969    1.0000 </r>
       <r>  -56.1965    1.0000 </r>
       <r>  -55.6166    1.0000 </r>
       <r>  -55.5196    1.0000 </r>
       <r>  -33.0083    1.0000 </r>
       <r>  -33.0080    1.0000 </r>
       <r>  -30.5016    1.0000 </r>
       <r>  -30.4918    1.0000 </r>
       <r>  -30.0446    1.0000 </r>
       <r>  -29.9556    1.0000 </r>
       <r>  -29.8142    1.0000 </r>
       <r>  -29.7852    1.0000 </r>
       <r>  -29.7222    1.0000 </r>
       <r>  -29.5747    1.0000 </r>
       <r>  -29.5048    1.0000 </r>
       <r>  -29.5039    1.0000 </r>
       <r>  -29.1657    1.0000 </r>
       <r>  -29.1610    1.0000 </r>
       <r>  -29.1016    1.0000 </r>
       <r>  -29.0233    1.0000 </r>
       <r>  -27.1934    1.0000 </r>
       <r>  -27.1927    1.0000 </r>
       <r>   -3.9404    1.0000 </r>
       <r>   -2.3972    1.0000 </r>
       <r>   -0.5381    1.0000 </r>
       <r>    0.4889    1.0000 </r>
       <r>    0.9133    1.0000 </r>
       <r>    1.1644    1.0000 </r>
       <r>    1.5445    1.0000 </r>
       <r>    1.6153    1.0000 </r>
       <r>    2.3211    1.0000 </r>
       <r>    2.3262    1.0000 </r>
       <r>    2.8157    1.0000 </r>
       <r>    3.2894    1.0000 </r>
       <r>    3.4402    1.0000 </r>
       <r>    3.6317    1.0000 </r>
       <r>    3.9422    1.0000 </r>
       <r>    4.1425    1.0000 </r>
       <r>    4.2478    1.0000 </r>
       <r>    4.5569    1.0000 </r>
       <r>    5.0570    1.0000 </r>
       <r>    5.1981    1.0000 </r>
       <r>    5.8495    1.0000 </r>
       <r>    5.9391    1.0000 </r>
       <r>    6.0678    1.0000 </r>
       <r>    6.2905    1.0000 </r>
       <r>    6.3562    1.0000 </r>
       <r>    6.5767    0.0000 </r>
       <r>    6.5932    0.0000 </r>
       <r>    6.7296    0.0000 </r>
       <r>    6.8930    0.0000 </r>
       <r>    7.1633    0.0000 </r>
       <r>    7.7572    0.0000 </r>
       <r>    7.7908    0.0000 </r>
       <r>    8.1270    0.0000 </r>
       <r>    8.1458    0.0000 </r>
       <r>    8.8591    0.0000 </r>
       <r>    9.2282    0.0000 </r>
      </set>
      <set comment="kpoint 4">
       <r>  -57.0324    1.0000 </r>
       <r>  -56.9984    1.0000 </r>
       <r>  -56.1961    1.0000 </r>
       <r>  -56.1958    1.0000 </r>
       <r>  -55.5845    1.0000 </r>
       <r>  -55.5499    1.0000 </r>
       <r>  -32.9951    1.0000 </r>
       <r>  -32.9949    1.0000 </r>
       <r>  -30.5956    1.0000 </r>
       <r>  -30.5919    1.0000 </r>
       <r>  -30.0182    1.0000 </r>
       <r>  -29.9866    1.0000 </r>
       <r>  -29.7713    1.0000 </r>
       <r>  -29.7549    1.0000 </r>
       <r>  -29.6591    1.0000 </r>
       <r>  -29.6132    1.0000 </r>
       <r>  -29.5033    1.0000 </r>
       <r>  -29.5028    1.0000 </r>
       <r>  -29.0949    1.0000 </r>
       <r>  -29.0925    1.0000 </r>
       <r>  -29.0754    1.0000 </r>
       <r>  -29.0475    1.0000 </r>
       <r>  -27.2293    1.0000 </r>
       <r>  -27.2289    1.0000 </r>
       <r>   -3.5215    1.0000 </r>
       <r>   -2.9875    1.0000 </r>
       <r>   -0.1507    1.0000 </r>
       <r>    0.3180    1.0000 </r>
       <r>    0.8013    1.0000 </r>
       <r>    1.0556    1.0000 </r>
       <r>    1.8931    1.0000 </r>
       <r>    1.9934    1.0000 </r>
       <r>    2.3819    1.0000 </r>
       <r>    2.3903    1.0000 </r>
       <r>    2.6794    1.0000 </r>
       <r>    2.8280    1.0000 </r>
       <r>    3.3971    1.0000 </r>
       <r>    3.7152    1.0000 </r>
       <r>    3.8524    1.0000 </r>
       <r>    4.2243    1.0000 </r>
       <r>    4.2250    1.0000 </r>
       <r>    4.4059    1.0000 </r>
       <r>    4.7064    1.0000 </r>
       <r>    4.7244    1.0000 </r>
       <r>    5.8006    1.0000 </r>
       <r>    5.8254    1.0000 </r>
       <r>    6.2170    1.0000 </r>
       <r>    6.2521    1.0000 </r>
       <r>    6.3864    1.0000 </r>
       <r>    6.4946    0.0006 </r>
       <r>    6.6135    0.0000 </r>
       <r>    6.6272    0.0000 </r>
       <r>    7.1712    0.0000 </r>
       <r>    7.4977    0.0000 </r>
       <r>    7.7303    0.0000 </r>
       <r>    7.9688    0.0000 </r>
       <r>    8.1204    0.0000 </r>
       <r>    8.3073    0.0000 </r>
       <r>    9.0997    0.0000 </r>
       <r>    9.4160    0.0000 </r>
      </set>
      <set comment="kpoint 5">
       <r>  -57.0747    1.0000 </r>
       <r>  -56.9500    1.0000 </r>
       <r>  -56.1981    1.0000 </r>
       <r>  -56.1966    1.0000 </r>
       <r>  -55.6319    1.0000 </r>
       <r>  -55.5056    1.0000 </r>
       <r>  -33.0299    1.0000 </r>
       <r>  -33.0088    1.0000 </r>
       <r>  -30.4945    1.0000 </r>
       <r>  -30.2046    1.0000 </r>
       <r>  -30.0567    1.0000 </r>
       <r>  -30.0092    1.0000 </r>
       <r>  -29.9398    1.0000 </r>
       <r>  -29.7848    1.0000 </r>
       <r>  -29.7670    1.0000 </r>
       <r>  -29.5554    1.0000 </r>
       <r>  -29.5065    1.0000 </r>
       <r>  -29.5043    1.0000 </r>
       <r>  -29.2683    1.0000 </r>
       <r>  -29.1677    1.0000 </r>
       <r>  -29.1141    1.0000 </r>
       <r>  -29.0123    1.0000 </r>
       <r>  -27.1928    1.0000 </r>
       <r>  -27.1331    1.0000 </r>
       <r>   -4.0731    1.0000 </r>
       <r>   -2.1796    1.0000 </r>
       <r>   -0.4950    1.0000 </r>
       <r>    0.3895    1.0000 </r>
       <r>    0.8997    1.0000 </r>
       <r>    1.0213    1.0000 </r>
       <r>    1.3494    1.0000 </r>
       <r>    1.5029    1.0000 </r>
       <r>    2.2238    1.0000 </r>
       <r>    2.2977    1.0000 </r>
       <r>    2.6878    1.0000 </r>
       <r>    3.3971    1.0000 </r>
       <r>    3.5189    1.0000 </r>
       <r>    3.9254    1.0000 </r>
       <r>    4.1212    1.0000 </r>
       <r>    4.3362    1.0000 </r>
       <r>    4.4999    1.0000 </r>
       <r>    4.7197    1.0000 </r>
       <r>    5.1285    1.0000 </r>
       <r>    5.5119    1.0000 </r>
       <r>    5.7553    1.0000 </r>
       <r>    5.7870    1.0000 </r>
       <r>    6.0550    1.0000 </r>
       <r>    6.3622    1.0000 </r>
       <r>    6.4975    0.0003 </r>
       <r>    6.4993    0.0002 </r>
       <r>    6.5188    0.0000 </r>
       <r>    6.8475    0.0000 </r>
       <r>    6.9509    0.0000 </r>
       <r>    7.2832    0.0000 </r>
       <r>    7.3525    0.0000 </r>
       <r>    7.6514    0.0000 </r>
       <r>    7.8137    0.0000 </r>
       <r>    8.1828    0.0000 </r>
       <r>    9.0325    0.0000 </r>
       <r>    9.2972    0.0000 </r>
      </set>
      <set comment="kpoint 6">
       <r>  -57.0570    1.0000 </r>
       <r>  -56.9710    1.0000 </r>
       <r>  -56.1977    1.0000 </r>
       <r>  -56.1959    1.0000 </r>
       <r>  -55.6113    1.0000 </r>
       <r>  -55.5241    1.0000 </r>
       <r>  -33.0223    1.0000 </r>
       <r>  -32.9955    1.0000 </r>
       <r>  -30.5923    1.0000 </r>
       <r>  -30.3382    1.0000 </r>
       <r>  -30.0410    1.0000 </r>
       <r>  -29.9601    1.0000 </r>
       <r>  -29.9055    1.0000 </r>
       <r>  -29.7499    1.0000 </r>
       <r>  -29.7191    1.0000 </r>
       <r>  -29.5847    1.0000 </r>
       <r>  -29.5055    1.0000 </r>
       <r>  -29.5030    1.0000 </r>
       <r>  -29.2339    1.0000 </r>
       <r>  -29.0972    1.0000 </r>
       <r>  -29.0969    1.0000 </r>
       <r>  -29.0270    1.0000 </r>
       <r>  -27.2289    1.0000 </r>
       <r>  -27.1514    1.0000 </r>
       <r>   -3.7749    1.0000 </r>
       <r>   -2.6440    1.0000 </r>
       <r>   -0.1043    1.0000 </r>
       <r>    0.3447    1.0000 </r>
       <r>    0.5796    1.0000 </r>
       <r>    1.0529    1.0000 </r>
       <r>    1.3697    1.0000 </r>
       <r>    1.8074    1.0000 </r>
       <r>    2.2451    1.0000 </r>
       <r>    2.3642    1.0000 </r>
       <r>    2.7886    1.0000 </r>
       <r>    2.9315    1.0000 </r>
       <r>    3.5603    1.0000 </r>
       <r>    4.0126    1.0000 </r>
       <r>    4.1693    1.0000 </r>
       <r>    4.3450    1.0000 </r>
       <r>    4.4664    1.0000 </r>
       <r>    4.5092    1.0000 </r>
       <r>    4.7790    1.0000 </r>
       <r>    5.4041    1.0000 </r>
       <r>    5.5513    1.0000 </r>
       <r>    5.8852    1.0000 </r>
       <r>    5.8956    1.0000 </r>
       <r>    6.0505    1.0000 </r>
       <r>    6.3777    1.0000 </r>
       <r>    6.4742    0.0364 </r>
       <r>    6.7160    0.0000 </r>
       <r>    6.9140    0.0000 </r>
       <r>    7.1449    0.0000 </r>
       <r>    7.2568    0.0000 </r>
       <r>    7.5857    0.0000 </r>
       <r>    7.7731    0.0000 </r>
       <r>    8.0407    0.0000 </r>
       <r>    8.3493    0.0000 </r>
       <r>    9.1720    0.0000 </r>
       <r>    9.3257    0.0000 </r>
      </set>
      <set comment="kpoint 7">
       <r>  -57.0306    1.0000 </r>
       <r>  -56.9999    1.0000 </r>
       <r>  -56.1968    1.0000 </r>
       <r>  -56.1960    1.0000 </r>
       <r>  -55.5824    1.0000 </r>
       <r>  -55.5513    1.0000 </r>
       <r>  -33.0066    1.0000 </r>
       <r>  -32.9947    1.0000 </r>
       <r>  -30.5949    1.0000 </r>
       <r>  -30.5010    1.0000 </r>
       <r>  -30.0169    1.0000 </r>
       <r>  -29.9875    1.0000 </r>
       <r>  -29.8055    1.0000 </r>
       <r>  -29.7562    1.0000 </r>
       <r>  -29.6670    1.0000 </r>
       <r>  -29.6213    1.0000 </r>
       <r>  -29.5039    1.0000 </r>
       <r>  -29.5031    1.0000 </r>
       <r>  -29.1576    1.0000 </r>
       <r>  -29.0929    1.0000 </r>
       <r>  -29.0736    1.0000 </r>
       <r>  -29.0487    1.0000 </r>
       <r>  -27.2294    1.0000 </r>
       <r>  -27.1937    1.0000 </r>
       <r>   -3.3374    1.0000 </r>
       <r>   -3.1454    1.0000 </r>
       <r>   -0.1514    1.0000 </r>
       <r>    0.3321    1.0000 </r>
       <r>    0.8366    1.0000 </r>
       <r>    1.0777    1.0000 </r>
       <r>    1.4860    1.0000 </r>
       <r>    1.9653    1.0000 </r>
       <r>    2.3222    1.0000 </r>
       <r>    2.3885    1.0000 </r>
       <r>    2.4801    1.0000 </r>
       <r>    2.9053    1.0000 </r>
       <r>    3.6060    1.0000 </r>
       <r>    3.7435    1.0000 </r>
       <r>    4.0743    1.0000 </r>
       <r>    4.2875    1.0000 </r>
       <r>    4.3233    1.0000 </r>
       <r>    4.5257    1.0000 </r>
       <r>    4.7352    1.0000 </r>
       <r>    5.1410    1.0000 </r>
       <r>    5.4725    1.0000 </r>
       <r>    5.6789    1.0000 </r>
       <r>    5.9622    1.0000 </r>
       <r>    6.1202    1.0000 </r>
       <r>    6.4120    0.9954 </r>
       <r>    6.4824    0.0087 </r>
       <r>    6.7313    0.0000 </r>
       <r>    6.8761    0.0000 </r>
       <r>    7.1379    0.0000 </r>
       <r>    7.3863    0.0000 </r>
       <r>    7.8482    0.0000 </r>
       <r>    7.8923    0.0000 </r>
       <r>    7.9815    0.0000 </r>
       <r>    8.4317    0.0000 </r>
       <r>    9.2751    0.0000 </r>
       <r>    9.4023    0.0000 </r>
      </set>
      <set comment="kpoint 8">
       <r>  -57.0306    1.0000 </r>
       <r>  -56.9999    1.0000 </r>
       <r>  -56.1968    1.0000 </r>
       <r>  -56.1960    1.0000 </r>
       <r>  -55.5824    1.0000 </r>
       <r>  -55.5513    1.0000 </r>
       <r>  -33.0069    1.0000 </r>
       <r>  -32.9944    1.0000 </r>
       <r>  -30.5948    1.0000 </r>
       <r>  -30.5011    1.0000 </r>
       <r>  -30.0159    1.0000 </r>
       <r>  -29.9883    1.0000 </r>
       <r>  -29.8056    1.0000 </r>
       <r>  -29.7562    1.0000 </r>
       <r>  -29.6670    1.0000 </r>
       <r>  -29.6213    1.0000 </r>
       <r>  -29.5045    1.0000 </r>
       <r>  -29.5028    1.0000 </r>
       <r>  -29.1577    1.0000 </r>
       <r>  -29.0929    1.0000 </r>
       <r>  -29.0738    1.0000 </r>
       <r>  -29.0484    1.0000 </r>
       <r>  -27.2293    1.0000 </r>
       <r>  -27.1938    1.0000 </r>
       <r>   -3.6035    1.0000 </r>
       <r>   -2.8040    1.0000 </r>
       <r>   -0.5649    1.0000 </r>
       <r>    0.7223    1.0000 </r>
       <r>    0.9844    1.0000 </r>
       <r>    1.0942    1.0000 </r>
       <r>    1.5508    1.0000 </r>
       <r>    1.8910    1.0000 </r>
       <r>    2.3766    1.0000 </r>
       <r>    2.3980    1.0000 </r>
       <r>    2.5010    1.0000 </r>
       <r>    2.8738    1.0000 </r>
       <r>    3.2235    1.0000 </r>
       <r>    3.8914    1.0000 </r>
       <r>    4.0561    1.0000 </r>
       <r>    4.1473    1.0000 </r>
       <r>    4.2369    1.0000 </r>
       <r>    4.6082    1.0000 </r>
       <r>    4.7372    1.0000 </r>
       <r>    5.1079    1.0000 </r>
       <r>    5.4931    1.0000 </r>
       <r>    5.7559    1.0000 </r>
       <r>    6.0334    1.0000 </r>
       <r>    6.1461    1.0000 </r>
       <r>    6.4117    0.9957 </r>
       <r>    6.4786    0.0174 </r>
       <r>    6.6014    0.0000 </r>
       <r>    7.0232    0.0000 </r>
       <r>    7.0647    0.0000 </r>
       <r>    7.4364    0.0000 </r>
       <r>    7.5913    0.0000 </r>
       <r>    8.0502    0.0000 </r>
       <r>    8.1141    0.0000 </r>
       <r>    8.3718    0.0000 </r>
       <r>    8.8385    0.0000 </r>
       <r>    9.4455    0.0000 </r>
      </set>
      <set comment="kpoint 9">
       <r>  -57.0570    1.0000 </r>
       <r>  -56.9709    1.0000 </r>
       <r>  -56.1978    1.0000 </r>
       <r>  -56.1958    1.0000 </r>
       <r>  -55.6113    1.0000 </r>
       <r>  -55.5241    1.0000 </r>
       <r>  -33.0226    1.0000 </r>
       <r>  -32.9953    1.0000 </r>
       <r>  -30.5922    1.0000 </r>
       <r>  -30.3383    1.0000 </r>
       <r>  -30.0401    1.0000 </r>
       <r>  -29.9606    1.0000 </r>
       <r>  -29.9056    1.0000 </r>
       <r>  -29.7499    1.0000 </r>
       <r>  -29.7190    1.0000 </r>
       <r>  -29.5847    1.0000 </r>
       <r>  -29.5062    1.0000 </r>
       <r>  -29.5030    1.0000 </r>
       <r>  -29.2340    1.0000 </r>
       <r>  -29.0973    1.0000 </r>
       <r>  -29.0969    1.0000 </r>
       <r>  -29.0266    1.0000 </r>
       <r>  -27.2288    1.0000 </r>
       <r>  -27.1515    1.0000 </r>
       <r>   -3.9572    1.0000 </r>
       <r>   -2.2471    1.0000 </r>
       <r>   -0.8795    1.0000 </r>
       <r>    0.5587    1.0000 </r>
       <r>    1.1161    1.0000 </r>
       <r>    1.4017    1.0000 </r>
       <r>    1.4792    1.0000 </r>
       <r>    1.8334    1.0000 </r>
       <r>    2.3041    1.0000 </r>
       <r>    2.3778    1.0000 </r>
       <r>    2.6524    1.0000 </r>
       <r>    2.7649    1.0000 </r>
       <r>    3.0777    1.0000 </r>
       <r>    4.0482    1.0000 </r>
       <r>    4.0594    1.0000 </r>
       <r>    4.1641    1.0000 </r>
       <r>    4.4562    1.0000 </r>
       <r>    4.5583    1.0000 </r>
       <r>    4.6435    1.0000 </r>
       <r>    5.3804    1.0000 </r>
       <r>    5.6476    1.0000 </r>
       <r>    5.8038    1.0000 </r>
       <r>    6.1557    1.0000 </r>
       <r>    6.2917    1.0000 </r>
       <r>    6.4204    0.9777 </r>
       <r>    6.5014    0.0001 </r>
       <r>    6.5801    0.0000 </r>
       <r>    6.8744    0.0000 </r>
       <r>    6.9373    0.0000 </r>
       <r>    7.3410    0.0000 </r>
       <r>    7.5609    0.0000 </r>
       <r>    7.9034    0.0000 </r>
       <r>    8.0412    0.0000 </r>
       <r>    8.2614    0.0000 </r>
       <r>    8.7807    0.0000 </r>
       <r>    9.1221    0.0000 </r>
      </set>
      <set comment="kpoint 10">
       <r>  -57.0747    1.0000 </r>
       <r>  -56.9500    1.0000 </r>
       <r>  -56.1982    1.0000 </r>
       <r>  -56.1966    1.0000 </r>
       <r>  -55.6319    1.0000 </r>
       <r>  -55.5056    1.0000 </r>
       <r>  -33.0301    1.0000 </r>
       <r>  -33.0086    1.0000 </r>
       <r>  -30.4944    1.0000 </r>
       <r>  -30.2046    1.0000 </r>
       <r>  -30.0562    1.0000 </r>
       <r>  -30.0094    1.0000 </r>
       <r>  -29.9401    1.0000 </r>
       <r>  -29.7847    1.0000 </r>
       <r>  -29.7670    1.0000 </r>
       <r>  -29.5554    1.0000 </r>
       <r>  -29.5069    1.0000 </r>
       <r>  -29.5044    1.0000 </r>
       <r>  -29.2683    1.0000 </r>
       <r>  -29.1677    1.0000 </r>
       <r>  -29.1141    1.0000 </r>
       <r>  -29.0120    1.0000 </r>
       <r>  -27.1927    1.0000 </r>
       <r>  -27.1332    1.0000 </r>
       <r>   -4.1658    1.0000 </r>
       <r>   -1.8262    1.0000 </r>
       <r>   -1.0389    1.0000 </r>
       <r>    0.3859    1.0000 </r>
       <r>    1.0558    1.0000 </r>
       <r>    1.3886    1.0000 </r>
       <r>    1.5220    1.0000 </r>
       <r>    1.7929    1.0000 </r>
       <r>    2.2289    1.0000 </r>
       <r>    2.2696    1.0000 </r>
       <r>    2.6440    1.0000 </r>
       <r>    2.7680    1.0000 </r>
       <r>    3.4394    1.0000 </r>
       <r>    3.9575    1.0000 </r>
       <r>    4.0418    1.0000 </r>
       <r>    4.2810    1.0000 </r>
       <r>    4.4835    1.0000 </r>
       <r>    4.6790    1.0000 </r>
       <r>    5.0541    1.0000 </r>
       <r>    5.3851    1.0000 </r>
       <r>    5.7683    1.0000 </r>
       <r>    5.9266    1.0000 </r>
       <r>    6.1712    1.0000 </r>
       <r>    6.4690    0.0763 </r>
       <r>    6.5364    0.0000 </r>
       <r>    6.5396    0.0000 </r>
       <r>    6.6522    0.0000 </r>
       <r>    6.7800    0.0000 </r>
       <r>    6.9014    0.0000 </r>
       <r>    7.2666    0.0000 </r>
       <r>    7.2916    0.0000 </r>
       <r>    7.8566    0.0000 </r>
       <r>    7.8623    0.0000 </r>
       <r>    7.8727    0.0000 </r>
       <r>    8.9258    0.0000 </r>
       <r>    9.1561    0.0000 </r>
      </set>
      <set comment="kpoint 11">
       <r>  -57.0443    1.0000 </r>
       <r>  -56.9848    1.0000 </r>
       <r>  -56.1983    1.0000 </r>
       <r>  -56.1960    1.0000 </r>
       <r>  -55.5970    1.0000 </r>
       <r>  -55.5366    1.0000 </r>
       <r>  -33.0278    1.0000 </r>
       <r>  -32.9944    1.0000 </r>
       <r>  -30.5950    1.0000 </r>
       <r>  -30.2184    1.0000 </r>
       <r>  -30.0296    1.0000 </r>
       <r>  -30.0089    1.0000 </r>
       <r>  -29.9729    1.0000 </r>
       <r>  -29.7424    1.0000 </r>
       <r>  -29.7072    1.0000 </r>
       <r>  -29.6077    1.0000 </r>
       <r>  -29.5057    1.0000 </r>
       <r>  -29.5031    1.0000 </r>
       <r>  -29.2598    1.0000 </r>
       <r>  -29.0937    1.0000 </r>
       <r>  -29.0853    1.0000 </r>
       <r>  -29.0371    1.0000 </r>
       <r>  -27.2295    1.0000 </r>
       <r>  -27.1341    1.0000 </r>
       <r>   -3.4744    1.0000 </r>
       <r>   -2.9445    1.0000 </r>
       <r>   -0.1427    1.0000 </r>
       <r>    0.3799    1.0000 </r>
       <r>    0.7559    1.0000 </r>
       <r>    0.8942    1.0000 </r>
       <r>    1.3095    1.0000 </r>
       <r>    1.9387    1.0000 </r>
       <r>    2.1984    1.0000 </r>
       <r>    2.2215    1.0000 </r>
       <r>    2.4290    1.0000 </r>
       <r>    2.9996    1.0000 </r>
       <r>    3.6249    1.0000 </r>
       <r>    4.2046    1.0000 </r>
       <r>    4.2807    1.0000 </r>
       <r>    4.3399    1.0000 </r>
       <r>    4.5759    1.0000 </r>
       <r>    4.6334    1.0000 </r>
       <r>    4.7667    1.0000 </r>
       <r>    5.4391    1.0000 </r>
       <r>    5.4430    1.0000 </r>
       <r>    5.6332    1.0000 </r>
       <r>    5.7005    1.0000 </r>
       <r>    5.7661    1.0000 </r>
       <r>    6.5706    0.0000 </r>
       <r>    6.6123    0.0000 </r>
       <r>    6.7914    0.0000 </r>
       <r>    6.9491    0.0000 </r>
       <r>    7.2361    0.0000 </r>
       <r>    7.4654    0.0000 </r>
       <r>    7.7271    0.0000 </r>
       <r>    7.8049    0.0000 </r>
       <r>    7.9339    0.0000 </r>
       <r>    8.5044    0.0000 </r>
       <r>    8.5604    0.0000 </r>
       <r>    9.1394    0.0000 </r>
      </set>
      <set comment="kpoint 12">
       <r>  -57.0256    1.0000 </r>
       <r>  -57.0044    1.0000 </r>
       <r>  -56.1979    1.0000 </r>
       <r>  -56.1969    1.0000 </r>
       <r>  -55.5769    1.0000 </r>
       <r>  -55.5553    1.0000 </r>
       <r>  -33.0205    1.0000 </r>
       <r>  -33.0059    1.0000 </r>
       <r>  -30.5036    1.0000 </r>
       <r>  -30.3451    1.0000 </r>
       <r>  -30.0125    1.0000 </r>
       <r>  -29.9911    1.0000 </r>
       <r>  -29.9070    1.0000 </r>
       <r>  -29.7976    1.0000 </r>
       <r>  -29.6707    1.0000 </r>
       <r>  -29.6357    1.0000 </r>
       <r>  -29.5048    1.0000 </r>
       <r>  -29.5046    1.0000 </r>
       <r>  -29.2298    1.0000 </r>
       <r>  -29.1567    1.0000 </r>
       <r>  -29.0688    1.0000 </r>
       <r>  -29.0520    1.0000 </r>
       <r>  -27.1943    1.0000 </r>
       <r>  -27.1524    1.0000 </r>
       <r>   -3.2744    1.0000 </r>
       <r>   -3.0752    1.0000 </r>
       <r>   -0.5606    1.0000 </r>
       <r>    0.8121    1.0000 </r>
       <r>    0.9434    1.0000 </r>
       <r>    1.0854    1.0000 </r>
       <r>    1.2010    1.0000 </r>
       <r>    1.5177    1.0000 </r>
       <r>    2.2672    1.0000 </r>
       <r>    2.4010    1.0000 </r>
       <r>    2.4266    1.0000 </r>
       <r>    2.8487    1.0000 </r>
       <r>    3.5543    1.0000 </r>
       <r>    3.8176    1.0000 </r>
       <r>    4.1450    1.0000 </r>
       <r>    4.4312    1.0000 </r>
       <r>    4.6042    1.0000 </r>
       <r>    4.6977    1.0000 </r>
       <r>    4.9990    1.0000 </r>
       <r>    5.3236    1.0000 </r>
       <r>    5.4591    1.0000 </r>
       <r>    5.6958    1.0000 </r>
       <r>    5.7629    1.0000 </r>
       <r>    6.0015    1.0000 </r>
       <r>    6.4603    0.2073 </r>
       <r>    6.5273    0.0000 </r>
       <r>    6.6836    0.0000 </r>
       <r>    6.9254    0.0000 </r>
       <r>    7.0600    0.0000 </r>
       <r>    7.3120    0.0000 </r>
       <r>    7.7059    0.0000 </r>
       <r>    8.1319    0.0000 </r>
       <r>    8.1574    0.0000 </r>
       <r>    8.4844    0.0000 </r>
       <r>    8.6496    0.0000 </r>
       <r>    9.0840    0.0000 </r>
      </set>
      <set comment="kpoint 13">
       <r>  -57.0256    1.0000 </r>
       <r>  -57.0043    1.0000 </r>
       <r>  -56.1980    1.0000 </r>
       <r>  -56.1969    1.0000 </r>
       <r>  -55.5768    1.0000 </r>
       <r>  -55.5553    1.0000 </r>
       <r>  -33.0208    1.0000 </r>
       <r>  -33.0056    1.0000 </r>
       <r>  -30.5036    1.0000 </r>
       <r>  -30.3451    1.0000 </r>
       <r>  -30.0108    1.0000 </r>
       <r>  -29.9926    1.0000 </r>
       <r>  -29.9070    1.0000 </r>
       <r>  -29.7976    1.0000 </r>
       <r>  -29.6706    1.0000 </r>
       <r>  -29.6357    1.0000 </r>
       <r>  -29.5063    1.0000 </r>
       <r>  -29.5035    1.0000 </r>
       <r>  -29.2298    1.0000 </r>
       <r>  -29.1567    1.0000 </r>
       <r>  -29.0693    1.0000 </r>
       <r>  -29.0513    1.0000 </r>
       <r>  -27.1943    1.0000 </r>
       <r>  -27.1525    1.0000 </r>
       <r>   -3.5885    1.0000 </r>
       <r>   -2.6457    1.0000 </r>
       <r>   -0.8722    1.0000 </r>
       <r>    0.9140    1.0000 </r>
       <r>    1.0962    1.0000 </r>
       <r>    1.2380    1.0000 </r>
       <r>    1.2756    1.0000 </r>
       <r>    1.5996    1.0000 </r>
       <r>    2.3529    1.0000 </r>
       <r>    2.3742    1.0000 </r>
       <r>    2.4719    1.0000 </r>
       <r>    2.7437    1.0000 </r>
       <r>    2.9543    1.0000 </r>
       <r>    4.0876    1.0000 </r>
       <r>    4.1109    1.0000 </r>
       <r>    4.3775    1.0000 </r>
       <r>    4.5470    1.0000 </r>
       <r>    4.6666    1.0000 </r>
       <r>    4.9170    1.0000 </r>
       <r>    5.4344    1.0000 </r>
       <r>    5.4705    1.0000 </r>
       <r>    5.6428    1.0000 </r>
       <r>    5.9478    1.0000 </r>
       <r>    5.9758    1.0000 </r>
       <r>    6.4006    0.9997 </r>
       <r>    6.5261    0.0000 </r>
       <r>    6.7304    0.0000 </r>
       <r>    6.9411    0.0000 </r>
       <r>    7.1381    0.0000 </r>
       <r>    7.3347    0.0000 </r>
       <r>    7.6271    0.0000 </r>
       <r>    7.8081    0.0000 </r>
       <r>    7.9789    0.0000 </r>
       <r>    8.3731    0.0000 </r>
       <r>    9.1179    0.0000 </r>
       <r>    9.1848    0.0000 </r>
      </set>
      <set comment="kpoint 14">
       <r>  -57.0443    1.0000 </r>
       <r>  -56.9848    1.0000 </r>
       <r>  -56.1983    1.0000 </r>
       <r>  -56.1960    1.0000 </r>
       <r>  -55.5970    1.0000 </r>
       <r>  -55.5367    1.0000 </r>
       <r>  -33.0281    1.0000 </r>
       <r>  -32.9942    1.0000 </r>
       <r>  -30.5950    1.0000 </r>
       <r>  -30.2183    1.0000 </r>
       <r>  -30.0281    1.0000 </r>
       <r>  -30.0090    1.0000 </r>
       <r>  -29.9739    1.0000 </r>
       <r>  -29.7424    1.0000 </r>
       <r>  -29.7071    1.0000 </r>
       <r>  -29.6077    1.0000 </r>
       <r>  -29.5070    1.0000 </r>
       <r>  -29.5027    1.0000 </r>
       <r>  -29.2598    1.0000 </r>
       <r>  -29.0937    1.0000 </r>
       <r>  -29.0855    1.0000 </r>
       <r>  -29.0364    1.0000 </r>
       <r>  -27.2294    1.0000 </r>
       <r>  -27.1342    1.0000 </r>
       <r>   -3.8312    1.0000 </r>
       <r>   -2.3161    1.0000 </r>
       <r>   -1.0121    1.0000 </r>
       <r>    0.7266    1.0000 </r>
       <r>    1.0255    1.0000 </r>
       <r>    1.3635    1.0000 </r>
       <r>    1.7205    1.0000 </r>
       <r>    2.0220    1.0000 </r>
       <r>    2.0887    1.0000 </r>
       <r>    2.3316    1.0000 </r>
       <r>    2.4403    1.0000 </r>
       <r>    2.4538    1.0000 </r>
       <r>    3.0603    1.0000 </r>
       <r>    4.2075    1.0000 </r>
       <r>    4.2413    1.0000 </r>
       <r>    4.3748    1.0000 </r>
       <r>    4.3857    1.0000 </r>
       <r>    4.4385    1.0000 </r>
       <r>    5.0616    1.0000 </r>
       <r>    5.1155    1.0000 </r>
       <r>    5.4672    1.0000 </r>
       <r>    5.5285    1.0000 </r>
       <r>    6.1546    1.0000 </r>
       <r>    6.1590    1.0000 </r>
       <r>    6.3424    1.0000 </r>
       <r>    6.7242    0.0000 </r>
       <r>    6.7715    0.0000 </r>
       <r>    6.8117    0.0000 </r>
       <r>    7.2189    0.0000 </r>
       <r>    7.3452    0.0000 </r>
       <r>    7.3795    0.0000 </r>
       <r>    7.8027    0.0000 </r>
       <r>    8.1164    0.0000 </r>
       <r>    8.4543    0.0000 </r>
       <r>    8.6720    0.0000 </r>
       <r>    9.1435    0.0000 </r>
      </set>
      <set comment="kpoint 15">
       <r>  -57.0185    1.0000 </r>
       <r>  -57.0110    1.0000 </r>
       <r>  -56.1985    1.0000 </r>
       <r>  -56.1980    1.0000 </r>
       <r>  -55.5693    1.0000 </r>
       <r>  -55.5617    1.0000 </r>
       <r>  -33.0261    1.0000 </r>
       <r>  -33.0199    1.0000 </r>
       <r>  -30.3474    1.0000 </r>
       <r>  -30.2256    1.0000 </r>
       <r>  -30.0089    1.0000 </r>
       <r>  -30.0060    1.0000 </r>
       <r>  -29.9968    1.0000 </r>
       <r>  -29.9062    1.0000 </r>
       <r>  -29.6594    1.0000 </r>
       <r>  -29.6467    1.0000 </r>
       <r>  -29.5063    1.0000 </r>
       <r>  -29.5051    1.0000 </r>
       <r>  -29.2597    1.0000 </r>
       <r>  -29.2303    1.0000 </r>
       <r>  -29.0625    1.0000 </r>
       <r>  -29.0570    1.0000 </r>
       <r>  -27.1529    1.0000 </r>
       <r>  -27.1349    1.0000 </r>
       <r>   -3.3922    1.0000 </r>
       <r>   -2.7982    1.0000 </r>
       <r>   -0.8645    1.0000 </r>
       <r>    0.7933    1.0000 </r>
       <r>    1.0757    1.0000 </r>
       <r>    1.1523    1.0000 </r>
       <r>    1.1697    1.0000 </r>
       <r>    1.5339    1.0000 </r>
       <r>    2.2621    1.0000 </r>
       <r>    2.4013    1.0000 </r>
       <r>    2.4823    1.0000 </r>
       <r>    2.7626    1.0000 </r>
       <r>    3.0470    1.0000 </r>
       <r>    4.0190    1.0000 </r>
       <r>    4.0596    1.0000 </r>
       <r>    4.4452    1.0000 </r>
       <r>    4.5233    1.0000 </r>
       <r>    4.6745    1.0000 </r>
       <r>    5.4196    1.0000 </r>
       <r>    5.4805    1.0000 </r>
       <r>    5.5319    1.0000 </r>
       <r>    5.6878    1.0000 </r>
       <r>    6.0629    1.0000 </r>
       <r>    6.0938    1.0000 </r>
       <r>    6.2091    1.0000 </r>
       <r>    6.4647    0.1307 </r>
       <r>    6.8076    0.0000 </r>
       <r>    7.2129    0.0000 </r>
       <r>    7.2729    0.0000 </r>
       <r>    7.4254    0.0000 </r>
       <r>    7.4779    0.0000 </r>
       <r>    7.6722    0.0000 </r>
       <r>    7.9683    0.0000 </r>
       <r>    8.2781    0.0000 </r>
       <r>    8.5062    0.0000 </r>
       <r>    9.1644    0.0000 </r>
      </set>
      <set comment="kpoint 16">
       <r>  -57.0186    1.0000 </r>
       <r>  -57.0109    1.0000 </r>
       <r>  -56.1985    1.0000 </r>
       <r>  -56.1980    1.0000 </r>
       <r>  -55.5693    1.0000 </r>
       <r>  -55.5617    1.0000 </r>
       <r>  -33.0265    1.0000 </r>
       <r>  -33.0196    1.0000 </r>
       <r>  -30.3475    1.0000 </r>
       <r>  -30.2255    1.0000 </r>
       <r>  -30.0090    1.0000 </r>
       <r>  -30.0039    1.0000 </r>
       <r>  -29.9988    1.0000 </r>
       <r>  -29.9062    1.0000 </r>
       <r>  -29.6593    1.0000 </r>
       <r>  -29.6467    1.0000 </r>
       <r>  -29.5071    1.0000 </r>
       <r>  -29.5045    1.0000 </r>
       <r>  -29.2596    1.0000 </r>
       <r>  -29.2304    1.0000 </r>
       <r>  -29.0632    1.0000 </r>
       <r>  -29.0562    1.0000 </r>
       <r>  -27.1528    1.0000 </r>
       <r>  -27.1350    1.0000 </r>
       <r>   -3.5050    1.0000 </r>
       <r>   -2.6228    1.0000 </r>
       <r>   -0.9905    1.0000 </r>
       <r>    0.8866    1.0000 </r>
       <r>    1.0395    1.0000 </r>
       <r>    1.0545    1.0000 </r>
       <r>    1.2121    1.0000 </r>
       <r>    1.9269    1.0000 </r>
       <r>    2.2984    1.0000 </r>
       <r>    2.3833    1.0000 </r>
       <r>    2.4846    1.0000 </r>
       <r>    2.5791    1.0000 </r>
       <r>    2.7830    1.0000 </r>
       <r>    4.0089    1.0000 </r>
       <r>    4.2264    1.0000 </r>
       <r>    4.3759    1.0000 </r>
       <r>    4.6012    1.0000 </r>
       <r>    4.6623    1.0000 </r>
       <r>    5.1003    1.0000 </r>
       <r>    5.3843    1.0000 </r>
       <r>    5.7240    1.0000 </r>
       <r>    5.7654    1.0000 </r>
       <r>    5.9824    1.0000 </r>
       <r>    6.3193    1.0000 </r>
       <r>    6.4064    0.9986 </r>
       <r>    6.4647    0.1296 </r>
       <r>    6.8856    0.0000 </r>
       <r>    6.9391    0.0000 </r>
       <r>    7.1389    0.0000 </r>
       <r>    7.3448    0.0000 </r>
       <r>    7.5027    0.0000 </r>
       <r>    7.6624    0.0000 </r>
       <r>    7.8047    0.0000 </r>
       <r>    8.1682    0.0000 </r>
       <r>    8.7948    0.0000 </r>
       <r>    9.5736    0.0000 </r>
      </set>
      <set comment="kpoint 17">
       <r>  -57.0776    1.0000 </r>
       <r>  -56.9464    1.0000 </r>
       <r>  -56.1981    1.0000 </r>
       <r>  -56.1969    1.0000 </r>
       <r>  -55.6354    1.0000 </r>
       <r>  -55.5026    1.0000 </r>
       <r>  -33.0301    1.0000 </r>
       <r>  -33.0130    1.0000 </r>
       <r>  -30.4579    1.0000 </r>
       <r>  -30.2029    1.0000 </r>
       <r>  -30.0589    1.0000 </r>
       <r>  -30.0094    1.0000 </r>
       <r>  -29.9365    1.0000 </r>
       <r>  -29.8061    1.0000 </r>
       <r>  -29.7730    1.0000 </r>
       <r>  -29.5499    1.0000 </r>
       <r>  -29.5069    1.0000 </r>
       <r>  -29.5049    1.0000 </r>
       <r>  -29.2697    1.0000 </r>
       <r>  -29.1892    1.0000 </r>
       <r>  -29.1170    1.0000 </r>
       <r>  -29.0096    1.0000 </r>
       <r>  -27.1814    1.0000 </r>
       <r>  -27.1330    1.0000 </r>
       <r>   -4.1959    1.0000 </r>
       <r>   -1.7674    1.0000 </r>
       <r>   -1.0415    1.0000 </r>
       <r>    0.3564    1.0000 </r>
       <r>    1.0609    1.0000 </r>
       <r>    1.3666    1.0000 </r>
       <r>    1.4634    1.0000 </r>
       <r>    1.7686    1.0000 </r>
       <r>    2.2352    1.0000 </r>
       <r>    2.2638    1.0000 </r>
       <r>    2.6627    1.0000 </r>
       <r>    2.7259    1.0000 </r>
       <r>    3.6212    1.0000 </r>
       <r>    3.9231    1.0000 </r>
       <r>    4.0576    1.0000 </r>
       <r>    4.2677    1.0000 </r>
       <r>    4.4868    1.0000 </r>
       <r>    4.6632    1.0000 </r>
       <r>    5.1981    1.0000 </r>
[...]
       <r>    0.3056    1.0000 </r>
       <r>    0.9217    1.0000 </r>
       <r>    1.0250    1.0000 </r>
       <r>    1.1997    1.0000 </r>
       <r>    1.3928    1.0000 </r>
       <r>    2.0181    1.0000 </r>
       <r>    2.0451    1.0000 </r>
       <r>    2.5388    1.0000 </r>
       <r>    3.6703    1.0000 </r>
       <r>    4.3383    1.0000 </r>
       <r>    4.3759    1.0000 </r>
       <r>    4.5618    1.0000 </r>
       <r>    4.6064    1.0000 </r>
       <r>    4.8493    1.0000 </r>
       <r>    5.0663    1.0000 </r>
       <r>    5.1473    1.0000 </r>
       <r>    5.1848    1.0000 </r>
       <r>    5.5512    1.0000 </r>
       <r>    5.5814    1.0000 </r>
       <r>    5.8827    1.0000 </r>
       <r>    6.1670    1.0000 </r>
       <r>    6.1769    1.0000 </r>
       <r>    6.3407    1.0000 </r>
       <r>    6.5643    0.0000 </r>
       <r>    6.7677    0.0000 </r>
       <r>    6.8455    0.0000 </r>
       <r>    7.2271    0.0000 </r>
       <r>    7.2544    0.0000 </r>
       <r>    7.7638    0.0000 </r>
       <r>    8.4917    0.0000 </r>
       <r>    8.6822    0.0000 </r>
       <r>    8.7869    0.0000 </r>
       <r>    9.1895    0.0000 </r>
      </set>
      <set comment="kpoint 116">
       <r>  -57.0843    1.0000 </r>
       <r>  -56.9380    1.0000 </r>
       <r>  -56.1981    1.0000 </r>
       <r>  -56.1976    1.0000 </r>
       <r>  -55.6434    1.0000 </r>
       <r>  -55.4955    1.0000 </r>
       <r>  -33.0307    1.0000 </r>
       <r>  -33.0240    1.0000 </r>
       <r>  -30.3300    1.0000 </r>
       <r>  -30.1986    1.0000 </r>
       <r>  -30.0680    1.0000 </r>
       <r>  -30.0109    1.0000 </r>
       <r>  -29.9271    1.0000 </r>
       <r>  -29.8938    1.0000 </r>
       <r>  -29.7876    1.0000 </r>
       <r>  -29.5368    1.0000 </r>
       <r>  -29.5049    1.0000 </r>
       <r>  -29.5043    1.0000 </r>
       <r>  -29.2734    1.0000 </r>
       <r>  -29.2451    1.0000 </r>
       <r>  -29.1240    1.0000 </r>
       <r>  -29.0055    1.0000 </r>
       <r>  -27.1506    1.0000 </r>
       <r>  -27.1329    1.0000 </r>
       <r>   -3.6418    1.0000 </r>
       <r>   -2.6683    1.0000 </r>
       <r>   -0.8729    1.0000 </r>
       <r>    0.3063    1.0000 </r>
       <r>    0.9120    1.0000 </r>
       <r>    1.0220    1.0000 </r>
       <r>    1.1961    1.0000 </r>
       <r>    1.5522    1.0000 </r>
       <r>    2.0072    1.0000 </r>
       <r>    2.0344    1.0000 </r>
       <r>    2.5387    1.0000 </r>
       <r>    3.6036    1.0000 </r>
       <r>    4.2938    1.0000 </r>
       <r>    4.3620    1.0000 </r>
       <r>    4.5750    1.0000 </r>
       <r>    4.6216    1.0000 </r>
       <r>    4.9032    1.0000 </r>
       <r>    5.1187    1.0000 </r>
       <r>    5.1213    1.0000 </r>
       <r>    5.1792    1.0000 </r>
       <r>    5.5416    1.0000 </r>
       <r>    5.5435    1.0000 </r>
       <r>    5.9064    1.0000 </r>
       <r>    6.1383    1.0000 </r>
       <r>    6.2365    1.0000 </r>
       <r>    6.2392    1.0000 </r>
       <r>    6.5724    0.0000 </r>
       <r>    6.7778    0.0000 </r>
       <r>    6.8073    0.0000 </r>
       <r>    7.2302    0.0000 </r>
       <r>    7.2587    0.0000 </r>
       <r>    7.9725    0.0000 </r>
       <r>    8.4607    0.0000 </r>
       <r>    8.5132    0.0000 </r>
       <r>    8.7943    0.0000 </r>
       <r>    9.2501    0.0000 </r>
      </set>
     </set>
    </set>
   </array>
  </eigenvalues>
  <separator name="orbital magnetization" >
   <v name="MAGDIPOLOUT">      0.00000000      0.00000000      0.00000000</v>
  </separator>
  <dos>
   <i name="efermi">      6.44878313 </i>
   <total>
    <array>
     <dimension dim="1">gridpoints</dimension>
     <dimension dim="2">spin</dimension>
     <field>energy</field>
     <field>total</field>
     <field>integrated</field>
     <set>
      <set comment="spin 1">
       <r>   -60.4237     0.0000     0.0000 </r>
       <r>   -60.1791     0.0000     0.0000 </r>
       <r>   -59.9344     0.0000     0.0000 </r>
       <r>   -59.6898     0.0000     0.0000 </r>
       <r>   -59.4451     0.0000     0.0000 </r>
       <r>   -59.2005     0.0000     0.0000 </r>
       <r>   -58.9559     0.0000     0.0000 </r>
       <r>   -58.7112     0.0000     0.0000 </r>
       <r>   -58.4666     0.0000     0.0000 </r>
       <r>   -58.2219     0.0000     0.0000 </r>
       <r>   -57.9773     0.0000     0.0000 </r>
       <r>   -57.7327     0.0000     0.0000 </r>
       <r>   -57.4880     0.0000     0.0000 </r>
       <r>   -57.2434     0.0000     0.0000 </r>
       <r>   -56.9987    10.6618     2.6083 </r>
       <r>   -56.7541     0.0000     4.0000 </r>
       <r>   -56.5094     0.0000     4.0000 </r>
       <r>   -56.2648     0.0000     4.0000 </r>
       <r>   -56.0202     0.0000     8.0000 </r>
       <r>   -55.7755     0.0000     8.0000 </r>
       <r>   -55.5309    12.9849    11.1767 </r>
       <r>   -55.2862     0.0000    12.0000 </r>
       <r>   -55.0416     0.0000    12.0000 </r>
       <r>   -54.7970     0.0000    12.0000 </r>
       <r>   -54.5523     0.0000    12.0000 </r>
       <r>   -54.3077     0.0000    12.0000 </r>
       <r>   -54.0630     0.0000    12.0000 </r>
       <r>   -53.8184     0.0000    12.0000 </r>
       <r>   -53.5737     0.0000    12.0000 </r>
       <r>   -53.3291     0.0000    12.0000 </r>
       <r>   -53.0845     0.0000    12.0000 </r>
       <r>   -52.8398     0.0000    12.0000 </r>
       <r>   -52.5952     0.0000    12.0000 </r>
       <r>   -52.3505     0.0000    12.0000 </r>
       <r>   -52.1059     0.0000    12.0000 </r>
       <r>   -51.8613     0.0000    12.0000 </r>
       <r>   -51.6166     0.0000    12.0000 </r>
       <r>   -51.3720     0.0000    12.0000 </r>
       <r>   -51.1273     0.0000    12.0000 </r>
       <r>   -50.8827     0.0000    12.0000 </r>
       <r>   -50.6380     0.0000    12.0000 </r>
       <r>   -50.3934     0.0000    12.0000 </r>
       <r>   -50.1488     0.0000    12.0000 </r>
       <r>   -49.9041     0.0000    12.0000 </r>
       <r>   -49.6595     0.0000    12.0000 </r>
       <r>   -49.4148     0.0000    12.0000 </r>
       <r>   -49.1702     0.0000    12.0000 </r>
       <r>   -48.9256     0.0000    12.0000 </r>
       <r>   -48.6809     0.0000    12.0000 </r>
       <r>   -48.4363     0.0000    12.0000 </r>
       <r>   -48.1916     0.0000    12.0000 </r>
       <r>   -47.9470     0.0000    12.0000 </r>
       <r>   -47.7023     0.0000    12.0000 </r>
       <r>   -47.4577     0.0000    12.0000 </r>
       <r>   -47.2131     0.0000    12.0000 </r>
       <r>   -46.9684     0.0000    12.0000 </r>
       <r>   -46.7238     0.0000    12.0000 </r>
       <r>   -46.4791     0.0000    12.0000 </r>
       <r>   -46.2345     0.0000    12.0000 </r>
       <r>   -45.9899     0.0000    12.0000 </r>
       <r>   -45.7452     0.0000    12.0000 </r>
       <r>   -45.5006     0.0000    12.0000 </r>
       <r>   -45.2559     0.0000    12.0000 </r>
       <r>   -45.0113     0.0000    12.0000 </r>
       <r>   -44.7666     0.0000    12.0000 </r>
       <r>   -44.5220     0.0000    12.0000 </r>
       <r>   -44.2774     0.0000    12.0000 </r>
       <r>   -44.0327     0.0000    12.0000 </r>
       <r>   -43.7881     0.0000    12.0000 </r>
       <r>   -43.5434     0.0000    12.0000 </r>
       <r>   -43.2988     0.0000    12.0000 </r>
       <r>   -43.0542     0.0000    12.0000 </r>
       <r>   -42.8095     0.0000    12.0000 </r>
       <r>   -42.5649     0.0000    12.0000 </r>
       <r>   -42.3202     0.0000    12.0000 </r>
       <r>   -42.0756     0.0000    12.0000 </r>
       <r>   -41.8310     0.0000    12.0000 </r>
       <r>   -41.5863     0.0000    12.0000 </r>
       <r>   -41.3417     0.0000    12.0000 </r>
       <r>   -41.0970     0.0000    12.0000 </r>
       <r>   -40.8524     0.0000    12.0000 </r>
       <r>   -40.6077     0.0000    12.0000 </r>
       <r>   -40.3631     0.0000    12.0000 </r>
       <r>   -40.1185     0.0000    12.0000 </r>
       <r>   -39.8738     0.0000    12.0000 </r>
       <r>   -39.6292     0.0000    12.0000 </r>
       <r>   -39.3845     0.0000    12.0000 </r>
       <r>   -39.1399     0.0000    12.0000 </r>
       <r>   -38.8953     0.0000    12.0000 </r>
       <r>   -38.6506     0.0000    12.0000 </r>
       <r>   -38.4060     0.0000    12.0000 </r>
       <r>   -38.1613     0.0000    12.0000 </r>
       <r>   -37.9167     0.0000    12.0000 </r>
       <r>   -37.6720     0.0000    12.0000 </r>
       <r>   -37.4274     0.0000    12.0000 </r>
       <r>   -37.1828     0.0000    12.0000 </r>
       <r>   -36.9381     0.0000    12.0000 </r>
       <r>   -36.6935     0.0000    12.0000 </r>
       <r>   -36.4488     0.0000    12.0000 </r>
       <r>   -36.2042     0.0000    12.0000 </r>
       <r>   -35.9596     0.0000    12.0000 </r>
       <r>   -35.7149     0.0000    12.0000 </r>
       <r>   -35.4703     0.0000    12.0000 </r>
       <r>   -35.2256     0.0000    12.0000 </r>
       <r>   -34.9810     0.0000    12.0000 </r>
       <r>   -34.7363     0.0000    12.0000 </r>
       <r>   -34.4917     0.0000    12.0000 </r>
       <r>   -34.2471     0.0000    12.0000 </r>
       <r>   -34.0024     0.0000    12.0000 </r>
       <r>   -33.7578     0.0000    12.0000 </r>
       <r>   -33.5131     0.0000    12.0000 </r>
       <r>   -33.2685     0.0000    12.0000 </r>
       <r>   -33.0239     4.2061    13.0290 </r>
       <r>   -32.7792     0.0000    16.0000 </r>
       <r>   -32.5346     0.0000    16.0000 </r>
       <r>   -32.2899     0.0000    16.0000 </r>
       <r>   -32.0453     0.0000    16.0000 </r>
       <r>   -31.8006     0.0000    16.0000 </r>
       <r>   -31.5560     0.0000    16.0000 </r>
       <r>   -31.3114     0.0000    16.0000 </r>
       <r>   -31.0667     0.0000    16.0000 </r>
       <r>   -30.8221     0.0000    16.0000 </r>
       <r>   -30.5774     3.7643    16.9209 </r>
       <r>   -30.3328     3.7868    18.9774 </r>
       <r>   -30.0882     2.2235    20.0134 </r>
       <r>   -29.8435    14.2101    25.7213 </r>
       <r>   -29.5989    14.9050    31.1107 </r>
       <r>   -29.3542    16.3504    36.0000 </r>
       <r>   -29.1096    13.6211    39.4547 </r>
       <r>   -28.8649     2.3983    44.0000 </r>
       <r>   -28.6203     0.0000    44.0000 </r>
       <r>   -28.3757     0.0000    44.0000 </r>
       <r>   -28.1310     0.0000    44.0000 </r>
       <r>   -27.8864     0.0000    44.0000 </r>
       <r>   -27.6417     0.0000    44.0000 </r>
       <r>   -27.3971     0.0000    44.0000 </r>
       <r>   -27.1525    11.8498    46.8989 </r>
       <r>   -26.9078     0.0000    48.0000 </r>
       <r>   -26.6632     0.0000    48.0000 </r>
       <r>   -26.4185     0.0000    48.0000 </r>
       <r>   -26.1739     0.0000    48.0000 </r>
       <r>   -25.9292     0.0000    48.0000 </r>
       <r>   -25.6846     0.0000    48.0000 </r>
       <r>   -25.4400     0.0000    48.0000 </r>
       <r>   -25.1953     0.0000    48.0000 </r>
       <r>   -24.9507     0.0000    48.0000 </r>
       <r>   -24.7060     0.0000    48.0000 </r>
       <r>   -24.4614     0.0000    48.0000 </r>
       <r>   -24.2168     0.0000    48.0000 </r>
       <r>   -23.9721     0.0000    48.0000 </r>
       <r>   -23.7275     0.0000    48.0000 </r>
       <r>   -23.4828     0.0000    48.0000 </r>
       <r>   -23.2382     0.0000    48.0000 </r>
       <r>   -22.9935     0.0000    48.0000 </r>
       <r>   -22.7489     0.0000    48.0000 </r>
       <r>   -22.5043     0.0000    48.0000 </r>
       <r>   -22.2596     0.0000    48.0000 </r>
       <r>   -22.0150     0.0000    48.0000 </r>
       <r>   -21.7703     0.0000    48.0000 </r>
       <r>   -21.5257     0.0000    48.0000 </r>
       <r>   -21.2811     0.0000    48.0000 </r>
       <r>   -21.0364     0.0000    48.0000 </r>
       <r>   -20.7918     0.0000    48.0000 </r>
       <r>   -20.5471     0.0000    48.0000 </r>
       <r>   -20.3025     0.0000    48.0000 </r>
       <r>   -20.0578     0.0000    48.0000 </r>
       <r>   -19.8132     0.0000    48.0000 </r>
       <r>   -19.5686     0.0000    48.0000 </r>
       <r>   -19.3239     0.0000    48.0000 </r>
       <r>   -19.0793     0.0000    48.0000 </r>
       <r>   -18.8346     0.0000    48.0000 </r>
       <r>   -18.5900     0.0000    48.0000 </r>
       <r>   -18.3454     0.0000    48.0000 </r>
       <r>   -18.1007     0.0000    48.0000 </r>
       <r>   -17.8561     0.0000    48.0000 </r>
       <r>   -17.6114     0.0000    48.0000 </r>
       <r>   -17.3668     0.0000    48.0000 </r>
       <r>   -17.1221     0.0000    48.0000 </r>
       <r>   -16.8775     0.0000    48.0000 </r>
       <r>   -16.6329     0.0000    48.0000 </r>
       <r>   -16.3882     0.0000    48.0000 </r>
       <r>   -16.1436     0.0000    48.0000 </r>
       <r>   -15.8989     0.0000    48.0000 </r>
       <r>   -15.6543     0.0000    48.0000 </r>
       <r>   -15.4097     0.0000    48.0000 </r>
       <r>   -15.1650     0.0000    48.0000 </r>
       <r>   -14.9204     0.0000    48.0000 </r>
       <r>   -14.6757     0.0000    48.0000 </r>
       <r>   -14.4311     0.0000    48.0000 </r>
       <r>   -14.1864     0.0000    48.0000 </r>
       <r>   -13.9418     0.0000    48.0000 </r>
       <r>   -13.6972     0.0000    48.0000 </r>
       <r>   -13.4525     0.0000    48.0000 </r>
       <r>   -13.2079     0.0000    48.0000 </r>
       <r>   -12.9632     0.0000    48.0000 </r>
       <r>   -12.7186     0.0000    48.0000 </r>
       <r>   -12.4740     0.0000    48.0000 </r>
       <r>   -12.2293     0.0000    48.0000 </r>
       <r>   -11.9847     0.0000    48.0000 </r>
       <r>   -11.7400     0.0000    48.0000 </r>
       <r>   -11.4954     0.0000    48.0000 </r>
       <r>   -11.2507     0.0000    48.0000 </r>
       <r>   -11.0061     0.0000    48.0000 </r>
       <r>   -10.7615     0.0000    48.0000 </r>
       <r>   -10.5168     0.0000    48.0000 </r>
       <r>   -10.2722     0.0000    48.0000 </r>
       <r>   -10.0275     0.0000    48.0000 </r>
       <r>    -9.7829     0.0000    48.0000 </r>
       <r>    -9.5383     0.0000    48.0000 </r>
       <r>    -9.2936     0.0000    48.0000 </r>
       <r>    -9.0490     0.0000    48.0000 </r>
       <r>    -8.8043     0.0000    48.0000 </r>
       <r>    -8.5597     0.0000    48.0000 </r>
       <r>    -8.3151     0.0000    48.0000 </r>
       <r>    -8.0704     0.0000    48.0000 </r>
       <r>    -7.8258     0.0000    48.0000 </r>
       <r>    -7.5811     0.0000    48.0000 </r>
       <r>    -7.3365     0.0000    48.0000 </r>
       <r>    -7.0918     0.0000    48.0000 </r>
       <r>    -6.8472     0.0000    48.0000 </r>
       <r>    -6.6026     0.0000    48.0000 </r>
       <r>    -6.3579     0.0000    48.0000 </r>
       <r>    -6.1133     0.0000    48.0000 </r>
       <r>    -5.8686     0.0000    48.0000 </r>
       <r>    -5.6240     0.0000    48.0000 </r>
       <r>    -5.3794     0.0000    48.0000 </r>
       <r>    -5.1347     0.0000    48.0000 </r>
       <r>    -4.8901     0.0000    48.0000 </r>
       <r>    -4.6454     0.0000    48.0000 </r>
       <r>    -4.4008     0.0000    48.0000 </r>
       <r>    -4.1561     0.3038    48.0743 </r>
       <r>    -3.9115     0.9422    48.3274 </r>
       <r>    -3.6669     1.4880    48.7365 </r>
       <r>    -3.4222     1.7008    49.3498 </r>
       <r>    -3.1776     1.8100    50.0346 </r>
       <r>    -2.9329     1.8926    50.7283 </r>
       <r>    -2.6883     1.4153    51.2136 </r>
       <r>    -2.4437     1.0390    51.6572 </r>
       <r>    -2.1990     0.5102    51.8238 </r>
       <r>    -1.9544     0.1627    51.9327 </r>
       <r>    -1.7097     0.2503    51.9949 </r>
       <r>    -1.4651     0.0209    52.0000 </r>
       <r>    -1.2204     0.0000    52.0000 </r>
       <r>    -0.9758     0.6361    52.1556 </r>
       <r>    -0.7312     2.3774    52.8571 </r>
       <r>    -0.4865     2.2228    53.4009 </r>
       <r>    -0.2419     0.0000    53.4286 </r>
       <r>     0.0028     2.3097    53.9936 </r>
       <r>     0.2474     0.0081    54.0020 </r>
       <r>     0.4920     3.2499    55.0451 </r>
       <r>     0.7367     1.9397    55.6939 </r>
       <r>     0.9813     6.0311    57.6081 </r>
       <r>     1.2260     6.4078    59.9197 </r>
       <r>     1.4706     4.0811    61.4372 </r>
       <r>     1.7153     2.0614    62.6676 </r>
       <r>     1.9599     2.9734    63.6305 </r>
       <r>     2.2045     3.2099    64.7955 </r>
       <r>     2.4492    11.0046    68.4116 </r>
       <r>     2.6938     3.6712    69.7400 </r>
       <r>     2.9385     3.8862    71.2926 </r>
       <r>     3.1831     1.1884    72.1530 </r>
       <r>     3.4277     1.2055    72.6265 </r>
       <r>     3.6724     2.4615    73.4950 </r>
       <r>     3.9170     4.4622    75.0457 </r>
       <r>     4.1617     7.2696    77.3958 </r>
       <r>     4.4063     7.8543    80.2276 </r>
       <r>     4.6510     7.1404    82.7775 </r>
       <r>     4.8956     3.7894    84.6311 </r>
       <r>     5.1402     3.5682    85.9137 </r>
       <r>     5.3849     4.0476    87.3627 </r>
       <r>     5.6295     6.4152    90.0184 </r>
       <r>     5.8742     6.7907    92.4215 </r>
       <r>     6.1188     7.2037    94.8644 </r>
       <r>     6.3634     5.5770    96.9562 </r>
       <r>     6.6081     8.6392   100.1084 </r>
       <r>     6.8527     6.1449   102.5339 </r>
       <r>     7.0974     6.4763   104.9823 </r>
       <r>     7.3420     6.6464   107.1770 </r>
       <r>     7.5867     4.2342   109.1634 </r>
       <r>     7.8313     4.9786   110.9629 </r>
       <r>     8.0759     5.3166   112.8415 </r>
       <r>     8.3206     3.0785   114.4011 </r>
       <r>     8.5652     4.2063   115.8913 </r>
       <r>     8.8099     2.3774   116.7704 </r>
       <r>     9.0545     3.1799   117.8698 </r>
       <r>     9.2991     3.2755   119.1125 </r>
       <r>     9.5438     1.6683   119.9132 </r>
       <r>     9.7884     0.1043   120.0000 </r>
       <r>    10.0331     0.0000   120.0000 </r>
       <r>    10.2777     0.0000   120.0000 </r>
       <r>    10.5224     0.0000   120.0000 </r>
       <r>    10.7670     0.0000   120.0000 </r>
       <r>    11.0116     0.0000   120.0000 </r>
       <r>    11.2563     0.0000   120.0000 </r>
       <r>    11.5009     0.0000   120.0000 </r>
       <r>    11.7456     0.0000   120.0000 </r>
       <r>    11.9902     0.0000   120.0000 </r>
       <r>    12.2348     0.0000   120.0000 </r>
       <r>    12.4795     0.0000   120.0000 </r>
       <r>    12.7241     0.0000   120.0000 </r>
       <r>    12.9688     0.0000   120.0000 </r>
      </set>
     </set>
    </array>
   </total>
  </dos>
 </calculation>
 <structure name="finalpos" >
  <crystal>
   <varray name="basis" >
    <v>       5.66371245       0.00000000      -3.23681608 </v>
    <v>      -1.90718825       5.33294213      -3.23681608 </v>
    <v>       0.00000000       0.00000000       6.52339000 </v>
   </varray>
   <i name="volume">    197.03410730 </i>
   <varray name="rec_basis" >
    <v>       0.17656264       0.06314304       0.00000000 </v>
    <v>       0.00000000       0.18751375       0.00000000 </v>
    <v>       0.08760794       0.12437244       0.15329453 </v>
   </varray>
  </crystal>
  <varray name="positions" >
   <v>       0.25000000       0.25000000       0.00000000 </v>
   <v>       0.75000000       0.75000000       0.00000000 </v>
   <v>       0.27807000       0.22193000       0.50000000 </v>
   <v>       0.00000000       0.50000000       0.50000000 </v>
   <v>       0.72193000       0.77807000       0.50000000 </v>
   <v>       0.22193000       0.72193000       0.94386000 </v>
   <v>       0.50000000       0.00000000       0.50000000 </v>
   <v>       0.77807000       0.27807000       0.05614000 </v>
   <v>       0.50000000       0.50000000       0.00000000 </v>
   <v>       0.00000000       0.00000000       0.00000000 </v>
  </varray>
 </structure>
</modeling>
