 vasp.6.2.0 18Jan21 (build Jan 05 2022 15:41:44) complex                        
  
 executed on             LinuxIFC date 2025.05.07  17:47:00
 running on   24 total cores
 distrk:  each k-point on   12 cores,    2 groups
 distr:  one band on NCORE=   2 cores,    6 groups


--------------------------------------------------------------------------------------------------------


 INCAR:
   SYSTEM = routine with relax: pwdword
   ICHARG = 2
   NPAR = 6
   KPAR = 2
   NCORE = 2
   ADDGRID = T
   PREC = Acc
   ENCUT = 600
   METAGGA = R2SCAN
   LASPH = .TRUE.
   LMIXTAU = .FALSE.
   ALGO = A
   EDIFF = 1E-9
   NELM = 100
   NELMIN = 6
   IALGO = 38
   LREAL = F
   NSW = 0
   ISIF = -1
   ISMEAR = 0
   SIGMA = 0.02

 POTCAR:    PAW_PBE B 06Sep2000                   
 POTCAR:    PAW_PBE Mo_sv 02Feb2006               
 POTCAR:    PAW_PBE Si 05Jan2001                  
 -----------------------------------------------------------------------------
|                                                                             |
|           W    W    AA    RRRRR   N    N  II  N    N   GGGG   !!!           |
|           W    W   A  A   R    R  NN   N  II  NN   N  G    G  !!!           |
|           W    W  A    A  R    R  N N  N  II  N N  N  G       !!!           |
|           W WW W  AAAAAA  RRRRR   N  N N  II  N  N N  G  GGG   !            |
|           WW  WW  A    A  R   R   N   NN  II  N   NN  G    G                |
|           W    W  A    A  R    R  N    N  II  N    N   GGGG   !!!           |
|                                                                             |
|     For optimal performance we recommend to set                             |
|       NCORE = 2 up to number-of-cores-per-socket                            |
|     NCORE specifies how many cores store one orbital (NPAR=cpu/NCORE).      |
|     This setting can greatly improve the performance of VASP for DFT.       |
|     The default, NCORE=1 might be grossly inefficient on modern             |
|     multi-core architectures or massively parallel machines. Do your        |
|     own testing! More info at https://www.vasp.at/wiki/index.php/NCORE      |
|     Unfortunately you need to use the default for GW and RPA                |
|     calculations (for HF NCORE is supported but not extensively tested      |
|     yet).                                                                   |
|                                                                             |
 -----------------------------------------------------------------------------

 POTCAR:    PAW_PBE B 06Sep2000                   
   VRHFIN =B: s2p1                                                                                  
   LEXCH  = PE                                                                                      
   EATOM  =    71.1703 eV,    5.2309 Ry                                                             
                                                                                                    
   TITEL  = PAW_PBE B 06Sep2000                                                                     
   LULTRA =        F    use ultrasoft PP ?                                                          
   IUNSCR =        1    unscreen: 0-lin 1-nonlin 2-no                                               
   RPACOR =    1.200    partial core radius                                                         
   POMASS =   10.811; ZVAL   =    3.000    mass and valenz                                          
   RCORE  =    1.700    outmost cutoff radius                                                       
   RWIGS  =    1.710; RWIGS  =    0.905    wigner-seitz radius (au A)                               
   ENMAX  =  318.614; ENMIN  =  238.960 eV                                                          
   ICORE  =        2    local potential                                                             
   LCOR   =        T    correct aug charges                                                         
   LPAW   =        T    paw PP                                                                      
   EAUG   =  535.514                                                                                
   DEXC   =    0.000                                                                                
   RMAX   =    1.732    core radius for proj-oper                                                   
   RAUG   =    1.300    factor for augmentation sphere                                              
   RDEP   =    1.757    radius for radial grids                                                     
   RDEPT  =    1.436    core radius for aug-charge                                                  
                                                                                                    
   Atomic configuration                                                                             
    4 entries                                                                                       
     n  l   j            E        occ.                                                              
     1  0  0.50      -180.5896   2.0000                                                             
     2  0  0.50        -9.4431   2.0000                                                             
     2  1  0.50        -3.6068   1.0000                                                             
     3  2  1.50        -4.0817   0.0000                                                             
   Description                                                                                      
     l       E           TYP  RCUT    TYP  RCUT                                                     
     0     -9.4430752     23  1.500                                                                 
     0      0.8675899     23  1.500                                                                 
     1     -3.6067955     23  1.700                                                                 
     1      6.1086146     23  1.700                                                                 
     2     -4.0817478      7  1.700                                                                 
  local pseudopotential read in
  partial core-charges read in
  partial kinetic energy density read in
  atomic valenz-charges read in
  non local Contribution for L=           0  read in
    real space projection operators read in
  non local Contribution for L=           0  read in
    real space projection operators read in
  non local Contribution for L=           1  read in
    real space projection operators read in
  non local Contribution for L=           1  read in
    real space projection operators read in
    PAW grid and wavefunctions read in
 
   number of l-projection  operators is LMAX  =           4
   number of lm-projection operators is LMMAX =           8
 
 POTCAR:    PAW_PBE Mo_sv 02Feb2006               
   VRHFIN =Mo: 4p5s4d                                                                               
   LEXCH  = PE                                                                                      
   EATOM  =  1862.2866 eV,  136.8742 Ry                                                             
                                                                                                    
   TITEL  = PAW_PBE Mo_sv 02Feb2006                                                                 
   LULTRA =        F    use ultrasoft PP ?                                                          
   IUNSCR =        1    unscreen: 0-lin 1-nonlin 2-no                                               
   RPACOR =    2.200    partial core radius                                                         
   POMASS =   95.940; ZVAL   =   14.000    mass and valenz                                          
   RCORE  =    2.500    outmost cutoff radius                                                       
   RWIGS  =    2.750; RWIGS  =    1.455    wigner-seitz radius (au A)                               
   ENMAX  =  242.676; ENMIN  =  182.007 eV                                                          
   ICORE  =        3    local potential                                                             
   LCOR   =        T    correct aug charges                                                         
   LPAW   =        T    paw PP                                                                      
   EAUG   =  446.014                                                                                
   DEXC   =    0.000                                                                                
   RMAX   =    2.563    core radius for proj-oper                                                   
   RAUG   =    1.300    factor for augmentation sphere                                              
   RDEP   =    2.641    radius for radial grids                                                     
   RDEPT  =    2.031    core radius for aug-charge                                                  
                                                                                                    
   Atomic configuration                                                                             
   11 entries                                                                                       
     n  l   j            E        occ.                                                              
     1  0  0.50    -19819.0341   2.0000                                                             
     2  0  0.50     -2799.0127   2.0000                                                             
     2  1  1.50     -2502.0276   6.0000                                                             
     3  0  0.50      -476.4449   2.0000                                                             
     3  1  1.50      -379.1496   6.0000                                                             
     3  2  2.50      -220.9367  10.0000                                                             
     4  0  0.50       -64.3378   2.0000                                                             
     5  0  0.50        -4.0862   1.0000                                                             
     4  1  1.50       -38.4773   6.0000                                                             
     4  2  2.50        -3.7535   5.0000                                                             
     4  3  2.50        -1.3606   0.0000                                                             
   Description                                                                                      
     l       E           TYP  RCUT    TYP  RCUT                                                     
     0    -64.3377829     23  2.100                                                                 
     0     -4.0861640     23  2.400                                                                 
     1    -38.4772993     23  2.100                                                                 
     1     13.6058260     23  2.100                                                                 
     2     -3.7534941     23  2.400                                                                 
     2     -5.1140767     23  2.400                                                                 
     3     -4.0817478     23  2.500                                                                 
  local pseudopotential read in
  partial core-charges read in
  partial kinetic energy density read in
  atomic valenz-charges read in
  non local Contribution for L=           0  read in
    real space projection operators read in
  non local Contribution for L=           0  read in
    real space projection operators read in
  non local Contribution for L=           1  read in
    real space projection operators read in
  non local Contribution for L=           1  read in
    real space projection operators read in
  non local Contribution for L=           2  read in
    real space projection operators read in
  non local Contribution for L=           2  read in
    real space projection operators read in
    PAW grid and wavefunctions read in
 
   number of l-projection  operators is LMAX  =           6
   number of lm-projection operators is LMMAX =          18
 
 POTCAR:    PAW_PBE Si 05Jan2001                  
   VRHFIN =Si: s2p2                                                                                 
   LEXCH  = PE                                                                                      
   EATOM  =   103.0669 eV,    7.5752 Ry                                                             
                                                                                                    
   TITEL  = PAW_PBE Si 05Jan2001                                                                    
   LULTRA =        F    use ultrasoft PP ?                                                          
   IUNSCR =        1    unscreen: 0-lin 1-nonlin 2-no                                               
   RPACOR =    1.500    partial core radius                                                         
   POMASS =   28.085; ZVAL   =    4.000    mass and valenz                                          
   RCORE  =    1.900    outmost cutoff radius                                                       
   RWIGS  =    2.480; RWIGS  =    1.312    wigner-seitz radius (au A)                               
   ENMAX  =  245.345; ENMIN  =  184.009 eV                                                          
   ICORE  =        2    local potential                                                             
   LCOR   =        T    correct aug charges                                                         
   LPAW   =        T    paw PP                                                                      
   EAUG   =  322.069                                                                                
   DEXC   =    0.000                                                                                
   RMAX   =    1.950    core radius for proj-oper                                                   
   RAUG   =    1.300    factor for augmentation sphere                                              
   RDEP   =    1.993    radius for radial grids                                                     
   RDEPT  =    1.837    core radius for aug-charge                                                  
                                                                                                    
   Atomic configuration                                                                             
    6 entries                                                                                       
     n  l   j            E        occ.                                                              
     1  0  0.50     -1785.8828   2.0000                                                             
     2  0  0.50      -139.4969   2.0000                                                             
     2  1  1.50       -95.5546   6.0000                                                             
     3  0  0.50       -10.8127   2.0000                                                             
     3  1  0.50        -4.0811   2.0000                                                             
     3  2  1.50        -4.0817   0.0000                                                             
   Description                                                                                      
     l       E           TYP  RCUT    TYP  RCUT                                                     
     0    -10.8127223     23  1.900                                                                 
     0     -7.6451159     23  1.900                                                                 
     1     -4.0811372     23  1.900                                                                 
     1      2.4879257     23  1.900                                                                 
     2     -4.0817478      7  1.900                                                                 
  local pseudopotential read in
  partial core-charges read in
  partial kinetic energy density read in
  atomic valenz-charges read in
  non local Contribution for L=           0  read in
    real space projection operators read in
  non local Contribution for L=           0  read in
    real space projection operators read in
  non local Contribution for L=           1  read in
    real space projection operators read in
  non local Contribution for L=           1  read in
    real space projection operators read in
    PAW grid and wavefunctions read in
 
   number of l-projection  operators is LMAX  =           4
   number of lm-projection operators is LMMAX =           8
 
  PAW_PBE B 06Sep2000                   :
 energy of atom  1       EATOM=  -71.1703
 kinetic energy error for atom=    0.0007 (will be added to EATOM!!)
  PAW_PBE Mo_sv 02Feb2006               :
 energy of atom  2       EATOM=-1862.2866
 kinetic energy error for atom=    0.0041 (will be added to EATOM!!)
  PAW_PBE Si 05Jan2001                  :
 energy of atom  3       EATOM= -103.0669
 kinetic energy error for atom=    0.0003 (will be added to EATOM!!)
 
 
 POSCAR: EA129
  positions in direct lattice
  No initial velocities read in

 METAGGA = R2SCA    LMAXTAU =  6    LMIXTAU =  F

 exchange correlation table for  LEXCH =        8
   RHO(1)=    0.500       N(1)  =     2000
   RHO(2)=  100.500       N(2)  =     4000
 


--------------------------------------------------------------------------------------------------------


 ion  position               nearest neighbor table
   1  0.000  0.000  0.000-   8 2.27   7 2.27   3 2.27   5 2.27   4 2.30   6 2.30
   2  0.500  0.500  0.000-   7 2.27   8 2.27   3 2.27   5 2.27   4 2.30   6 2.30
   3  0.219  0.719  0.938-   1 2.27   2 2.27  10 2.32  12 2.32   7 3.21   8 3.21   8 3.21   7 3.21
                             4 3.23   6 3.23   6 3.23   4 3.23
   4  0.250  0.250  0.000-  11 2.25   9 2.25  12 2.25  10 2.25   1 2.30   2 2.30   7 3.23   7 3.23
                             3 3.23   5 3.23   8 3.23   8 3.23   5 3.23   3 3.23
   5  0.781  0.281  0.062-   1 2.27   2 2.27  10 2.32  12 2.32   7 3.21   8 3.21   7 3.21   8 3.21
                             6 3.23   4 3.23   4 3.23   6 3.23
   6  0.750  0.750  0.000-   9 2.25  11 2.25  12 2.25  10 2.25   1 2.30   2 2.30   8 3.23   8 3.23
                             5 3.23   3 3.23   7 3.23   7 3.23   3 3.23   5 3.23
   7  0.719  0.781  0.500-   1 2.27   2 2.27  11 2.32   9 2.32   5 3.21   3 3.21   5 3.21   3 3.21
                             4 3.23   4 3.23   6 3.23   6 3.23
   8  0.281  0.219  0.500-   2 2.27   1 2.27  11 2.32   9 2.32   5 3.21   3 3.21   3 3.21   5 3.21
                             6 3.23   6 3.23   4 3.23   4 3.23
   9  0.000  0.000  0.500-   4 2.25   6 2.25   8 2.32   7 2.32
  10  0.000  0.500  0.000-   4 2.25   6 2.25   5 2.32   3 2.32
  11  0.500  0.500  0.500-   6 2.25   4 2.25   8 2.32   7 2.32
  12  0.500  0.000  0.000-   4 2.25   6 2.25   5 2.32   3 2.32
 
  Warning from LATTYP: Got some problem with cell dimensions!
  Tried to take original basis but could not verify dimensions!
  LATTYP: Found a base centered monoclinic cell.
 ALAT       =     9.0023239021
 B/A-ratio  =     1.0000153036
 C/A-ratio  =     0.7146436498
 COS(beta)  =    -0.6996386916
  
  Lattice vectors:
  
 A1 = (   1.7928733739,  -5.2334934753,  -3.1492362647)
 A2 = (  -5.5320745558,   0.0000000000,  -3.1492362647)
 A3 = (   3.7392011819,   5.2334934753,  -0.1350774706)


Analysis of symmetry for initial positions (statically):
=====================================================================
 Subroutine PRICEL returns:
 Original cell was already a primitive cell.
 

 Routine SETGRP: Setting up the symmetry group for a 
 base centered monoclinic supercell.


 Subroutine GETGRP returns: Found  4 space group operations
 (whereof  2 operations were pure point group operations)
 out of a pool of  4 trial point group operations.


The static configuration has the point symmetry S_2 .
 The point group associated with its full space group is C_2h.


Analysis of symmetry for dynamics (positions and initial velocities):
=====================================================================
 Subroutine PRICEL returns:
 Original cell was already a primitive cell.
 

 Routine SETGRP: Setting up the symmetry group for a 
 base centered monoclinic supercell.


 Subroutine GETGRP returns: Found  4 space group operations
 (whereof  2 operations were pure point group operations)
 out of a pool of  4 trial point group operations.


The dynamic configuration has the point symmetry S_2 .
 The point group associated with its full space group is C_2h.


 Subroutine INISYM returns: Found  4 space group operations
 (whereof  2 operations are pure point group operations),
 and found     1 'primitive' translations


----------------------------------------------------------------------------------------

                                     Primitive cell                                     

  volume of cell :     186.2646

  direct lattice vectors                    reciprocal lattice vectors
     5.532074556  0.000000000 -3.284313735     0.180764014  0.061925555  0.000000000
    -1.792873374  5.233493475 -3.284313735     0.000000000  0.191076956  0.000000000
     0.000000000  0.000000000  6.433550000     0.092279648  0.129157249  0.155435180

  length of vectors
     6.433550000  6.433550000  6.433550000     0.191076956  0.191076956  0.222164857

  position of ions in fractional coordinates (direct lattice)
     0.000000000  0.000000000  0.000000000
     0.500000000  0.500000000  0.000000000
     0.219140000  0.719140000  0.938290000
     0.250000000  0.250000000  0.000000000
     0.780860000  0.280860000  0.061710000
     0.750000000  0.750000000  0.000000000
     0.719140000  0.780860000  0.500000000
     0.280860000  0.219140000  0.500000000
     0.000000000  0.000000000  0.500000000
     0.000000000  0.500000000  0.000000000
     0.500000000  0.500000000  0.500000000
     0.500000000  0.000000000  0.000000000

  ion indices of the primitive-cell ions
   primitive index   ion index
                 1           1
                 2           2
                 3           3
                 4           4
                 5           5
                 6           6
                 7           7
                 8           8
                 9           9
                10          10
                11          11
                12          12

----------------------------------------------------------------------------------------

 
 
 KPOINTS: EA                                      

Automatic generation of k-mesh.
 Grid dimensions read from file:
 generate k-points for:    7    7    8

 Generating k-lattice:

  Cartesian coordinates                     Fractional coordinates (reciprocal lattice)
     0.025823431  0.008846508  0.000000000     0.142857143  0.000000000  0.000000000
     0.000000000  0.027296708  0.000000000     0.000000000  0.142857143  0.000000000
     0.011534956  0.016144656  0.019429397     0.000000000  0.000000000  0.125000000

  Length of vectors
     0.027296708  0.027296708  0.027770607

  Shift w.r.t. Gamma in fractional coordinates (k-lattice)
     0.000000000  0.000000000  0.000000000

 
 Subroutine IBZKPT returns following result:
 ===========================================
 
 Found    116 irreducible k-points:
 
 Following reciprocal coordinates:
            Coordinates               Weight
  0.000000  0.000000  0.000000      1.000000
  0.142857  0.000000  0.000000      4.000000
  0.285714 -0.000000  0.000000      4.000000
  0.428571  0.000000  0.000000      4.000000
  0.142857  0.142857  0.000000      2.000000
  0.285714  0.142857  0.000000      4.000000
  0.428571  0.142857  0.000000      4.000000
 -0.428571  0.142857  0.000000      4.000000
 -0.285714  0.142857  0.000000      4.000000
 -0.142857  0.142857  0.000000      2.000000
  0.285714  0.285714  0.000000      2.000000
  0.428571  0.285714  0.000000      4.000000
 -0.428571  0.285714  0.000000      4.000000
 -0.285714  0.285714  0.000000      2.000000
  0.428571  0.428571  0.000000      2.000000
 -0.428571  0.428571  0.000000      2.000000
 -0.000000  0.000000  0.125000      2.000000
  0.142857  0.000000  0.125000      4.000000
  0.285714  0.000000  0.125000      4.000000
  0.428571  0.000000  0.125000      4.000000
 -0.428571  0.000000  0.125000      4.000000
 -0.285714  0.000000  0.125000      4.000000
 -0.142857  0.000000  0.125000      4.000000
  0.142857  0.142857  0.125000      2.000000
  0.285714  0.142857  0.125000      4.000000
  0.428571  0.142857  0.125000      4.000000
 -0.428571  0.142857  0.125000      4.000000
 -0.285714  0.142857  0.125000      4.000000
 -0.142857  0.142857  0.125000      4.000000
  0.285714  0.285714  0.125000      2.000000
  0.428571  0.285714  0.125000      4.000000
 -0.428571  0.285714  0.125000      4.000000
 -0.285714  0.285714  0.125000      4.000000
 -0.142857  0.285714  0.125000      4.000000
  0.428571  0.428571  0.125000      2.000000
 -0.428571  0.428571  0.125000      4.000000
 -0.285714  0.428571  0.125000      4.000000
 -0.142857  0.428571  0.125000      4.000000
 -0.428571 -0.428571  0.125000      2.000000
 -0.285714 -0.428571  0.125000      4.000000
 -0.142857 -0.428571  0.125000      4.000000
 -0.285714 -0.285714  0.125000      2.000000
 -0.142857 -0.285714  0.125000      4.000000
 -0.142857 -0.142857  0.125000      2.000000
 -0.000000  0.000000  0.250000      2.000000
  0.142857  0.000000  0.250000      4.000000
  0.285714  0.000000  0.250000      4.000000
  0.428571  0.000000  0.250000      4.000000
 -0.428571  0.000000  0.250000      4.000000
 -0.285714  0.000000  0.250000      4.000000
 -0.142857  0.000000  0.250000      4.000000
  0.142857  0.142857  0.250000      2.000000
  0.285714  0.142857  0.250000      4.000000
  0.428571  0.142857  0.250000      4.000000
 -0.428571  0.142857  0.250000      4.000000
 -0.285714  0.142857  0.250000      4.000000
 -0.142857  0.142857  0.250000      4.000000
  0.285714  0.285714  0.250000      2.000000
  0.428571  0.285714  0.250000      4.000000
 -0.428571  0.285714  0.250000      4.000000
 -0.285714  0.285714  0.250000      4.000000
 -0.142857  0.285714  0.250000      4.000000
  0.428571  0.428571  0.250000      2.000000
 -0.428571  0.428571  0.250000      4.000000
 -0.285714  0.428571  0.250000      4.000000
 -0.142857  0.428571  0.250000      4.000000
 -0.428571 -0.428571  0.250000      2.000000
 -0.285714 -0.428571  0.250000      4.000000
 -0.142857 -0.428571  0.250000      4.000000
 -0.285714 -0.285714  0.250000      2.000000
 -0.142857 -0.285714  0.250000      4.000000
 -0.142857 -0.142857  0.250000      2.000000
 -0.000000  0.000000  0.375000      2.000000
  0.142857  0.000000  0.375000      4.000000
  0.285714  0.000000  0.375000      4.000000
  0.428571  0.000000  0.375000      4.000000
 -0.428571  0.000000  0.375000      4.000000
 -0.285714  0.000000  0.375000      4.000000
 -0.142857  0.000000  0.375000      4.000000
  0.142857  0.142857  0.375000      2.000000
  0.285714  0.142857  0.375000      4.000000
  0.428571  0.142857  0.375000      4.000000
 -0.428571  0.142857  0.375000      4.000000
 -0.285714  0.142857  0.375000      4.000000
 -0.142857  0.142857  0.375000      4.000000
  0.285714  0.285714  0.375000      2.000000
  0.428571  0.285714  0.375000      4.000000
 -0.428571  0.285714  0.375000      4.000000
 -0.285714  0.285714  0.375000      4.000000
 -0.142857  0.285714  0.375000      4.000000
  0.428571  0.428571  0.375000      2.000000
 -0.428571  0.428571  0.375000      4.000000
 -0.285714  0.428571  0.375000      4.000000
 -0.142857  0.428571  0.375000      4.000000
 -0.428571 -0.428571  0.375000      2.000000
 -0.285714 -0.428571  0.375000      4.000000
 -0.142857 -0.428571  0.375000      4.000000
 -0.285714 -0.285714  0.375000      2.000000
 -0.142857 -0.285714  0.375000      4.000000
 -0.142857 -0.142857  0.375000      2.000000
 -0.000000  0.000000  0.500000      1.000000
  0.142857  0.000000  0.500000      4.000000
  0.285714  0.000000  0.500000      4.000000
  0.428571  0.000000  0.500000      4.000000
  0.142857  0.142857  0.500000      2.000000
  0.285714  0.142857  0.500000      4.000000
  0.428571  0.142857  0.500000      4.000000
 -0.428571  0.142857  0.500000      4.000000
 -0.285714  0.142857  0.500000      4.000000
 -0.142857  0.142857  0.500000      2.000000
  0.285714  0.285714  0.500000      2.000000
  0.428571  0.285714  0.500000      4.000000
 -0.428571  0.285714  0.500000      4.000000
 -0.285714  0.285714  0.500000      2.000000
  0.428571  0.428571  0.500000      2.000000
 -0.428571  0.428571  0.500000      2.000000
 
 Following cartesian coordinates:
            Coordinates               Weight
  0.000000  0.000000  0.000000      1.000000
  0.025823  0.008847  0.000000      4.000000
  0.051647  0.017693  0.000000      4.000000
  0.077470  0.026540  0.000000      4.000000
  0.025823  0.036143  0.000000      2.000000
  0.051647  0.044990  0.000000      4.000000
  0.077470  0.053836  0.000000      4.000000
 -0.077470  0.000757  0.000000      4.000000
 -0.051647  0.009604  0.000000      4.000000
 -0.025823  0.018450  0.000000      2.000000
  0.051647  0.072286  0.000000      2.000000
  0.077470  0.081133  0.000000      4.000000
 -0.077470  0.028054  0.000000      4.000000
 -0.051647  0.036900  0.000000      2.000000
  0.077470  0.108430  0.000000      2.000000
 -0.077470  0.055351  0.000000      2.000000
  0.011535  0.016145  0.019429      2.000000
  0.037358  0.024991  0.019429      4.000000
  0.063182  0.033838  0.019429      4.000000
  0.089005  0.042684  0.019429      4.000000
 -0.065935 -0.010395  0.019429      4.000000
 -0.040112 -0.001548  0.019429      4.000000
 -0.014288  0.007298  0.019429      4.000000
  0.037358  0.052288  0.019429      2.000000
  0.063182  0.061134  0.019429      4.000000
  0.089005  0.069981  0.019429      4.000000
 -0.065935  0.016902  0.019429      4.000000
 -0.040112  0.025748  0.019429      4.000000
 -0.014288  0.034595  0.019429      4.000000
  0.063182  0.088431  0.019429      2.000000
  0.089005  0.097278  0.019429      4.000000
 -0.065935  0.044199  0.019429      4.000000
 -0.040112  0.053045  0.019429      4.000000
 -0.014288  0.061892  0.019429      4.000000
  0.089005  0.124574  0.019429      2.000000
 -0.065935  0.071495  0.019429      4.000000
 -0.040112  0.080342  0.019429      4.000000
 -0.014288  0.089188  0.019429      4.000000
 -0.065935 -0.092285  0.019429      2.000000
 -0.040112 -0.083438  0.019429      4.000000
 -0.014288 -0.074592  0.019429      4.000000
 -0.040112 -0.056142  0.019429      2.000000
 -0.014288 -0.047295  0.019429      4.000000
 -0.014288 -0.019999  0.019429      2.000000
  0.023070  0.032289  0.038859      2.000000
  0.048893  0.041136  0.038859      4.000000
  0.074717  0.049982  0.038859      4.000000
  0.100540  0.058829  0.038859      4.000000
 -0.054400  0.005750  0.038859      4.000000
 -0.028577  0.014596  0.038859      4.000000
 -0.002754  0.023443  0.038859      4.000000
  0.048893  0.068433  0.038859      2.000000
  0.074717  0.077279  0.038859      4.000000
  0.100540  0.086126  0.038859      4.000000
 -0.054400  0.033046  0.038859      4.000000
 -0.028577  0.041893  0.038859      4.000000
 -0.002754  0.050740  0.038859      4.000000
  0.074717  0.104576  0.038859      2.000000
  0.100540  0.113422  0.038859      4.000000
 -0.054400  0.060343  0.038859      4.000000
 -0.028577  0.069190  0.038859      4.000000
 -0.002754  0.078036  0.038859      4.000000
  0.100540  0.140719  0.038859      2.000000
 -0.054400  0.087640  0.038859      4.000000
 -0.028577  0.096486  0.038859      4.000000
 -0.002754  0.105333  0.038859      4.000000
 -0.054400 -0.076140  0.038859      2.000000
 -0.028577 -0.067294  0.038859      4.000000
 -0.002754 -0.058447  0.038859      4.000000
 -0.028577 -0.039997  0.038859      2.000000
 -0.002754 -0.031151  0.038859      4.000000
 -0.002754 -0.003854  0.038859      2.000000
  0.034605  0.048434  0.058288      2.000000
  0.060428  0.057280  0.058288      4.000000
  0.086252  0.066127  0.058288      4.000000
  0.112075  0.074973  0.058288      4.000000
 -0.042865  0.021894  0.058288      4.000000
 -0.017042  0.030741  0.058288      4.000000
  0.008781  0.039587  0.058288      4.000000
  0.060428  0.084577  0.058288      2.000000
  0.086252  0.093424  0.058288      4.000000
  0.112075  0.102270  0.058288      4.000000
 -0.042865  0.049191  0.058288      4.000000
 -0.017042  0.058038  0.058288      4.000000
  0.008781  0.066884  0.058288      4.000000
  0.086252  0.120720  0.058288      2.000000
  0.112075  0.129567  0.058288      4.000000
 -0.042865  0.076488  0.058288      4.000000
 -0.017042  0.085334  0.058288      4.000000
  0.008781  0.094181  0.058288      4.000000
  0.112075  0.156864  0.058288      2.000000
 -0.042865  0.103785  0.058288      4.000000
 -0.017042  0.112631  0.058288      4.000000
  0.008781  0.121478  0.058288      4.000000
 -0.042865 -0.059996  0.058288      2.000000
 -0.017042 -0.051149  0.058288      4.000000
  0.008781 -0.042303  0.058288      4.000000
 -0.017042 -0.023852  0.058288      2.000000
  0.008781 -0.015006  0.058288      4.000000
  0.008781  0.012291  0.058288      2.000000
  0.046140  0.064579  0.077718      1.000000
  0.071963  0.073425  0.077718      4.000000
  0.097787  0.082272  0.077718      4.000000
  0.123610  0.091118  0.077718      4.000000
  0.071963  0.100722  0.077718      2.000000
  0.097787  0.109568  0.077718      4.000000
  0.123610  0.118415  0.077718      4.000000
 -0.031330  0.065336  0.077718      4.000000
 -0.005507  0.074182  0.077718      4.000000
  0.020316  0.083029  0.077718      2.000000
  0.097787  0.136865  0.077718      2.000000
  0.123610  0.145712  0.077718      4.000000
 -0.031330  0.092633  0.077718      4.000000
 -0.005507  0.101479  0.077718      2.000000
  0.123610  0.173008  0.077718      2.000000
 -0.031330  0.119929  0.077718      2.000000
 


--------------------------------------------------------------------------------------------------------




 Dimension of arrays:
   k-points           NKPTS =    116   k-points in BZ     NKDIM =    116   number of bands    NBANDS=     66
   number of dos      NEDOS =    301   number of ions     NIONS =     12
   non local maximal  LDIM  =      6   non local SUM 2l+1 LMDIM =     18
   total plane-waves  NPLWV = 157464
   max r-space proj   IRMAX =      1   max aug-charges    IRDMAX= 295923
   dimension x,y,z NGX =    54 NGY =   54 NGZ =   54
   dimension x,y,z NGXF=   108 NGYF=  108 NGZF=  108
   support grid    NGXF=   216 NGYF=  216 NGZF=  216
   ions per type =               2   6   4
   NGX,Y,Z   is equivalent  to a cutoff of  13.95, 13.95, 13.95 a.u.
   NGXF,Y,Z  is equivalent  to a cutoff of  27.91, 27.91, 27.91 a.u.

 SYSTEM =  routine with relax: pwdword             
 POSCAR =  EA129                                   

 Startparameter for this run:
   NWRITE =      2    write-flag & timer
   PREC   = acc       normal or accurate (medium, high low for compatibility)
   ISTART =      0    job   : 0-new  1-cont  2-samecut
   ICHARG =      2    charge: 1-file 2-atom 10-const
   ISPIN  =      1    spin polarized calculation?
   LNONCOLLINEAR =      F non collinear calculations
   LSORBIT =      F    spin-orbit coupling
   INIWAV =      1    electr: 0-lowe 1-rand  2-diag
   LASPH  =      T    aspherical Exc in radial PAW
   METAGGA=      F    non-selfconsistent MetaGGA calc.

 Electronic Relaxation 1
   ENCUT  =  600.0 eV  44.10 Ry    6.64 a.u.  12.85 12.85 12.85*2*pi/ulx,y,z
   ENINI  =  600.0     initial cutoff
   ENAUG  =  535.5 eV  augmentation charge cutoff
   NELM   =    100;   NELMIN=  6; NELMDL= -5     # of ELM steps 
   EDIFF  = 0.1E-08   stopping-criterion for ELM
   LREAL  =      F    real-space projection
   NLSPLINE    = F    spline interpolate recip. space projectors
   LCOMPAT=      F    compatible to vasp.4.4
   GGA_COMPAT  = T    GGA compatible to vasp.4.4-vasp.4.6
   LMAXPAW     = -100 max onsite density
   LMAXMIX     =    2 max onsite mixed and CHGCAR
   VOSKOWN=      0    Vosko Wilk Nusair interpolation
   ROPT   =    0.00000   0.00000   0.00000
 Ionic relaxation
   EDIFFG = 0.1E-07   stopping-criterion for IOM
   NSW    =      0    number of steps for IOM
   NBLOCK =      1;   KBLOCK =      1    inner block; outer block 
   IBRION =     -1    ionic relax: 0-MD 1-quasi-New 2-CG
   NFREE  =      0    steps in history (QN), initial steepest desc. (CG)
   ISIF   =     -1    stress and relaxation
   IWAVPR =     10    prediction:  0-non 1-charg 2-wave 3-comb
   ISYM   =      2    0-nonsym 1-usesym 2-fastsym
   LCORR  =      T    Harris-Foulkes like correction to forces

   POTIM  = 0.5000    time-step for ionic-motion
   TEIN   =    0.0    initial temperature
   TEBEG  =    0.0;   TEEND  =   0.0 temperature during run
   SMASS  =  -3.00    Nose mass-parameter (am)
   estimated Nose-frequenzy (Omega)   =  0.10E-29 period in steps = 0.13E+47 mass=  -0.946E-27a.u.
   SCALEE = 1.0000    scale energy and forces
   NPACO  =    256;   APACO  = 16.0  distance and # of slots for P.C.
   PSTRESS=    0.0 pullay stress

  Mass of Ions in am
   POMASS =  10.81 95.94 28.09
  Ionic Valenz
   ZVAL   =   3.00 14.00  4.00
  Atomic Wigner-Seitz radii
   RWIGS  =  -1.00 -1.00 -1.00
  virtual crystal weights 
   VCA    =   1.00  1.00  1.00
   NELECT =     106.0000    total number of electrons
   NUPDOWN=      -1.0000    fix difference up-down

 DOS related values:
   EMIN   =  10.00;   EMAX   =-10.00  energy-range for DOS
   EFERMI =   0.00
   ISMEAR =     0;   SIGMA  =   0.02  broadening in eV -4-tet -1-fermi 0-gaus

 Electronic relaxation 2 (details)
   IALGO  =     58    algorithm
   LDIAG  =      T    sub-space diagonalisation (order eigenvalues)
   LSUBROT=      F    optimize rotation matrix (better conditioning)
   TURBO    =      0    0=normal 1=particle mesh
   IRESTART =      0    0=no restart 2=restart with 2 vectors
   NREBOOT  =      0    no. of reboots
   NMIN     =      0    reboot dimension
   EREF     =   0.00    reference energy to select bands
   IMIX   =      4    mixing-type and parameters
     AMIX     =   0.40;   BMIX     =  1.00
     AMIX_MAG =   1.60;   BMIX_MAG =  1.00
     AMIN     =   0.10
     WC   =   100.;   INIMIX=   1;  MIXPRE=   1;  MAXMIX= -45

 Intra band minimization:
   WEIMIN = 0.0000     energy-eigenvalue tresh-hold
   EBREAK =  0.38E-11  absolut break condition
   DEPER  =   0.30     relativ break condition  

   TIME   =   0.40     timestep for ELM

  volume/ion in A,a.u.               =      15.52       104.75
  Fermi-wavevector in a.u.,A,eV,Ry     =   1.356646  2.563690 25.041378  1.840489
  Thomas-Fermi vector in A             =   2.483632
 
 Write flags
   LWAVE        =      T    write WAVECAR
   LDOWNSAMPLE  =      F    k-point downsampling of WAVECAR
   LCHARG       =      T    write CHGCAR
   LVTOT        =      F    write LOCPOT, total local potential
   LVHAR        =      F    write LOCPOT, Hartree potential only
   LELF         =      F    write electronic localiz. function (ELF)
   LORBIT       =      0    0 simple, 1 ext, 2 COOP (PROOUT), +10 PAW based schemes


 Dipole corrections
   LMONO  =      F    monopole corrections only (constant potential shift)
   LDIPOL =      F    correct potential (dipole corrections)
   IDIPOL =      0    1-x, 2-y, 3-z, 4-all directions 
   EPSILON=  1.0000000 bulk dielectric constant

 Exchange correlation treatment:
   GGA     =    --    GGA type
   LEXCH   =     8    internal setting for exchange type
   VOSKOWN=      0    Vosko Wilk Nusair interpolation
   LHFCALC =     F    Hartree Fock is set to
   LHFONE  =     F    Hartree Fock one center treatment
   AEXX    =    0.0000 exact exchange contribution

 Linear response parameters
   LEPSILON=     F    determine dielectric tensor
   LRPA    =     F    only Hartree local field effects (RPA)
   LNABLA  =     F    use nabla operator in PAW spheres
   LVEL    =     F    velocity operator in full k-point grid
   LINTERFAST=   F  fast interpolation
   KINTER  =     0    interpolate to denser k-point grid
   CSHIFT  =0.1000    complex shift for real part using Kramers Kronig
   OMEGAMAX=  -1.0    maximum frequency
   DEG_THRESHOLD= 0.2000000E-02 threshold for treating states as degnerate
   RTIME   =   -0.100 relaxation time in fs
  (WPLASMAI=    0.000 imaginary part of plasma frequency in eV, 0.658/RTIME)
   DFIELD  = 0.0000000 0.0000000 0.0000000 field for delta impulse in time
 
 Orbital magnetization related:
   ORBITALMAG=     F  switch on orbital magnetization
   LCHIMAG   =     F  perturbation theory with respect to B field
   DQ        =  0.001000  dq finite difference perturbation B field
   LLRAUG    =     F  two centre corrections for induced B field



--------------------------------------------------------------------------------------------------------


 Static calculation
 charge density and potential will be updated during run
 non-spin polarized calculation
 Conjugate gradient for all bands (Freysoldt, et al. PRB 79, 241103 (2009))
 preconditioned conjugated gradient                                        
 perform sub-space diagonalisation
    before iterative eigenvector-optimisation
 modified Broyden-mixing scheme, WC =      100.0
 initial mixing is a Kerker type mixing with AMIX =  0.4000 and BMIX =      1.0000
 Hartree-type preconditioning will be used
 using additional bands           13
 reciprocal scheme for non local part
 use partial core corrections
 no Harris-corrections to forces 
 use gradient corrections 
 use of overlap-Matrix (Vanderbilt PP)
 Gauss-broadening in eV      SIGMA  =   0.02


--------------------------------------------------------------------------------------------------------


  energy-cutoff  :      600.00
  volume of cell :      186.26
      direct lattice vectors                 reciprocal lattice vectors
     5.532074556  0.000000000 -3.284313735     0.180764014  0.061925555  0.000000000
    -1.792873374  5.233493475 -3.284313735     0.000000000  0.191076956  0.000000000
     0.000000000  0.000000000  6.433550000     0.092279648  0.129157249  0.155435180

  length of vectors
     6.433550000  6.433550000  6.433550000     0.191076956  0.191076956  0.222164857


 
 k-points in units of 2pi/SCALE and weight: EA                                      
   0.00000000  0.00000000  0.00000000       0.003
   0.02582343  0.00884651  0.00000000       0.010
   0.05164686  0.01769302  0.00000000       0.010
   0.07747029  0.02653952  0.00000000       0.010
   0.02582343  0.03614322  0.00000000       0.005
   0.05164686  0.04498972  0.00000000       0.010
   0.07747029  0.05383623  0.00000000       0.010
  -0.07747029  0.00075718  0.00000000       0.010
  -0.05164686  0.00960369  0.00000000       0.010
  -0.02582343  0.01845020  0.00000000       0.005
   0.05164686  0.07228643  0.00000000       0.005
   0.07747029  0.08113294  0.00000000       0.010
  -0.07747029  0.02805389  0.00000000       0.010
  -0.05164686  0.03690040  0.00000000       0.005
   0.07747029  0.10842965  0.00000000       0.005
  -0.07747029  0.05535060  0.00000000       0.005
   0.01153496  0.01614466  0.01942940       0.005
   0.03735839  0.02499116  0.01942940       0.010
   0.06318182  0.03383767  0.01942940       0.010
   0.08900525  0.04268418  0.01942940       0.010
  -0.06593534 -0.01039487  0.01942940       0.010
  -0.04011190 -0.00154836  0.01942940       0.010
  -0.01428847  0.00729815  0.01942940       0.010
   0.03735839  0.05228787  0.01942940       0.005
   0.06318182  0.06113438  0.01942940       0.010
   0.08900525  0.06998089  0.01942940       0.010
  -0.06593534  0.01690184  0.01942940       0.010
  -0.04011190  0.02574835  0.01942940       0.010
  -0.01428847  0.03459486  0.01942940       0.010
   0.06318182  0.08843109  0.01942940       0.005
   0.08900525  0.09727760  0.01942940       0.010
  -0.06593534  0.04419855  0.01942940       0.010
  -0.04011190  0.05304506  0.01942940       0.010
  -0.01428847  0.06189156  0.01942940       0.010
   0.08900525  0.12457430  0.01942940       0.005
  -0.06593534  0.07149526  0.01942940       0.010
  -0.04011190  0.08034176  0.01942940       0.010
  -0.01428847  0.08918827  0.01942940       0.010
  -0.06593534 -0.09228499  0.01942940       0.005
  -0.04011190 -0.08343848  0.01942940       0.010
  -0.01428847 -0.07459198  0.01942940       0.010
  -0.04011190 -0.05614178  0.01942940       0.005
  -0.01428847 -0.04729527  0.01942940       0.010
  -0.01428847 -0.01999856  0.01942940       0.005
   0.02306991  0.03228931  0.03885879       0.005
   0.04889334  0.04113582  0.03885879       0.010
   0.07471677  0.04998233  0.03885879       0.010
   0.10054020  0.05882884  0.03885879       0.010
  -0.05440038  0.00574979  0.03885879       0.010
  -0.02857695  0.01459630  0.03885879       0.010
  -0.00275352  0.02344280  0.03885879       0.010
   0.04889334  0.06843253  0.03885879       0.005
   0.07471677  0.07727904  0.03885879       0.010
   0.10054020  0.08612554  0.03885879       0.010
  -0.05440038  0.03304650  0.03885879       0.010
  -0.02857695  0.04189300  0.03885879       0.010
  -0.00275352  0.05073951  0.03885879       0.010
   0.07471677  0.10457574  0.03885879       0.005
   0.10054020  0.11342225  0.03885879       0.010
  -0.05440038  0.06034320  0.03885879       0.010
  -0.02857695  0.06918971  0.03885879       0.010
  -0.00275352  0.07803622  0.03885879       0.010
   0.10054020  0.14071896  0.03885879       0.005
  -0.05440038  0.08763991  0.03885879       0.010
  -0.02857695  0.09648642  0.03885879       0.010
  -0.00275352  0.10533293  0.03885879       0.010
  -0.05440038 -0.07614034  0.03885879       0.005
  -0.02857695 -0.06729383  0.03885879       0.010
  -0.00275352 -0.05844732  0.03885879       0.010
  -0.02857695 -0.03999712  0.03885879       0.005
  -0.00275352 -0.03115061  0.03885879       0.010
  -0.00275352 -0.00385390  0.03885879       0.005
   0.03460487  0.04843397  0.05828819       0.005
   0.06042830  0.05728048  0.05828819       0.010
   0.08625173  0.06612698  0.05828819       0.010
   0.11207516  0.07497349  0.05828819       0.010
  -0.04286542  0.02189444  0.05828819       0.010
  -0.01704199  0.03074095  0.05828819       0.010
   0.00878144  0.03958746  0.05828819       0.010
   0.06042830  0.08457718  0.05828819       0.005
   0.08625173  0.09342369  0.05828819       0.010
   0.11207516  0.10227020  0.05828819       0.010
  -0.04286542  0.04919115  0.05828819       0.010
  -0.01704199  0.05803766  0.05828819       0.010
   0.00878144  0.06688417  0.05828819       0.010
   0.08625173  0.12072040  0.05828819       0.005
   0.11207516  0.12956691  0.05828819       0.010
  -0.04286542  0.07648786  0.05828819       0.010
  -0.01704199  0.08533437  0.05828819       0.010
   0.00878144  0.09418088  0.05828819       0.010
   0.11207516  0.15686362  0.05828819       0.005
  -0.04286542  0.10378457  0.05828819       0.010
  -0.01704199  0.11263108  0.05828819       0.010
   0.00878144  0.12147758  0.05828819       0.010
  -0.04286542 -0.05999568  0.05828819       0.005
  -0.01704199 -0.05114917  0.05828819       0.010
   0.00878144 -0.04230266  0.05828819       0.010
  -0.01704199 -0.02385246  0.05828819       0.005
   0.00878144 -0.01500596  0.05828819       0.010
   0.00878144  0.01229075  0.05828819       0.005
   0.04613982  0.06457862  0.07771759       0.003
   0.07196325  0.07342513  0.07771759       0.010
   0.09778669  0.08227164  0.07771759       0.010
   0.12361012  0.09111815  0.07771759       0.010
   0.07196325  0.10072184  0.07771759       0.005
   0.09778669  0.10956835  0.07771759       0.010
   0.12361012  0.11841486  0.07771759       0.010
  -0.03133047  0.06533581  0.07771759       0.010
  -0.00550704  0.07418232  0.07771759       0.010
   0.02031639  0.08302882  0.07771759       0.005
   0.09778669  0.13686506  0.07771759       0.005
   0.12361012  0.14571156  0.07771759       0.010
  -0.03133047  0.09263252  0.07771759       0.010
  -0.00550704  0.10147902  0.07771759       0.005
   0.12361012  0.17300827  0.07771759       0.005
  -0.03133047  0.11992922  0.07771759       0.005
 
 k-points in reciprocal lattice and weights: EA                                      
   0.00000000  0.00000000  0.00000000       0.003
   0.14285714  0.00000000  0.00000000       0.010
   0.28571429 -0.00000000  0.00000000       0.010
   0.42857143  0.00000000  0.00000000       0.010
   0.14285714  0.14285714  0.00000000       0.005
   0.28571429  0.14285714  0.00000000       0.010
   0.42857143  0.14285714  0.00000000       0.010
  -0.42857143  0.14285714  0.00000000       0.010
  -0.28571429  0.14285714  0.00000000       0.010
  -0.14285714  0.14285714  0.00000000       0.005
   0.28571429  0.28571429  0.00000000       0.005
   0.42857143  0.28571429  0.00000000       0.010
  -0.42857143  0.28571429  0.00000000       0.010
  -0.28571429  0.28571429  0.00000000       0.005
   0.42857143  0.42857143  0.00000000       0.005
  -0.42857143  0.42857143  0.00000000       0.005
  -0.00000000  0.00000000  0.12500000       0.005
   0.14285714  0.00000000  0.12500000       0.010
   0.28571429  0.00000000  0.12500000       0.010
   0.42857143  0.00000000  0.12500000       0.010
  -0.42857143  0.00000000  0.12500000       0.010
  -0.28571429  0.00000000  0.12500000       0.010
  -0.14285714  0.00000000  0.12500000       0.010
   0.14285714  0.14285714  0.12500000       0.005
   0.28571429  0.14285714  0.12500000       0.010
   0.42857143  0.14285714  0.12500000       0.010
  -0.42857143  0.14285714  0.12500000       0.010
  -0.28571429  0.14285714  0.12500000       0.010
  -0.14285714  0.14285714  0.12500000       0.010
   0.28571429  0.28571429  0.12500000       0.005
   0.42857143  0.28571429  0.12500000       0.010
  -0.42857143  0.28571429  0.12500000       0.010
  -0.28571429  0.28571429  0.12500000       0.010
  -0.14285714  0.28571429  0.12500000       0.010
   0.42857143  0.42857143  0.12500000       0.005
  -0.42857143  0.42857143  0.12500000       0.010
  -0.28571429  0.42857143  0.12500000       0.010
  -0.14285714  0.42857143  0.12500000       0.010
  -0.42857143 -0.42857143  0.12500000       0.005
  -0.28571429 -0.42857143  0.12500000       0.010
  -0.14285714 -0.42857143  0.12500000       0.010
  -0.28571429 -0.28571429  0.12500000       0.005
  -0.14285714 -0.28571429  0.12500000       0.010
  -0.14285714 -0.14285714  0.12500000       0.005
  -0.00000000  0.00000000  0.25000000       0.005
   0.14285714  0.00000000  0.25000000       0.010
   0.28571429  0.00000000  0.25000000       0.010
   0.42857143  0.00000000  0.25000000       0.010
  -0.42857143  0.00000000  0.25000000       0.010
  -0.28571429  0.00000000  0.25000000       0.010
  -0.14285714  0.00000000  0.25000000       0.010
   0.14285714  0.14285714  0.25000000       0.005
   0.28571429  0.14285714  0.25000000       0.010
   0.42857143  0.14285714  0.25000000       0.010
  -0.42857143  0.14285714  0.25000000       0.010
  -0.28571429  0.14285714  0.25000000       0.010
  -0.14285714  0.14285714  0.25000000       0.010
   0.28571429  0.28571429  0.25000000       0.005
   0.42857143  0.28571429  0.25000000       0.010
  -0.42857143  0.28571429  0.25000000       0.010
  -0.28571429  0.28571429  0.25000000       0.010
  -0.14285714  0.28571429  0.25000000       0.010
   0.42857143  0.42857143  0.25000000       0.005
  -0.42857143  0.42857143  0.25000000       0.010
  -0.28571429  0.42857143  0.25000000       0.010
  -0.14285714  0.42857143  0.25000000       0.010
  -0.42857143 -0.42857143  0.25000000       0.005
  -0.28571429 -0.42857143  0.25000000       0.010
  -0.14285714 -0.42857143  0.25000000       0.010
  -0.28571429 -0.28571429  0.25000000       0.005
  -0.14285714 -0.28571429  0.25000000       0.010
  -0.14285714 -0.14285714  0.25000000       0.005
  -0.00000000  0.00000000  0.37500000       0.005
   0.14285714  0.00000000  0.37500000       0.010
   0.28571429  0.00000000  0.37500000       0.010
   0.42857143  0.00000000  0.37500000       0.010
  -0.42857143  0.00000000  0.37500000       0.010
  -0.28571429  0.00000000  0.37500000       0.010
  -0.14285714  0.00000000  0.37500000       0.010
   0.14285714  0.14285714  0.37500000       0.005
   0.28571429  0.14285714  0.37500000       0.010
   0.42857143  0.14285714  0.37500000       0.010
  -0.42857143  0.14285714  0.37500000       0.010
  -0.28571429  0.14285714  0.37500000       0.010
  -0.14285714  0.14285714  0.37500000       0.010
   0.28571429  0.28571429  0.37500000       0.005
   0.42857143  0.28571429  0.37500000       0.010
  -0.42857143  0.28571429  0.37500000       0.010
  -0.28571429  0.28571429  0.37500000       0.010
  -0.14285714  0.28571429  0.37500000       0.010
   0.42857143  0.42857143  0.37500000       0.005
  -0.42857143  0.42857143  0.37500000       0.010
  -0.28571429  0.42857143  0.37500000       0.010
  -0.14285714  0.42857143  0.37500000       0.010
  -0.42857143 -0.42857143  0.37500000       0.005
  -0.28571429 -0.42857143  0.37500000       0.010
  -0.14285714 -0.42857143  0.37500000       0.010
  -0.28571429 -0.28571429  0.37500000       0.005
  -0.14285714 -0.28571429  0.37500000       0.010
  -0.14285714 -0.14285714  0.37500000       0.005
  -0.00000000  0.00000000  0.50000000       0.003
   0.14285714  0.00000000  0.50000000       0.010
   0.28571429  0.00000000  0.50000000       0.010
   0.42857143  0.00000000  0.50000000       0.010
   0.14285714  0.14285714  0.50000000       0.005
   0.28571429  0.14285714  0.50000000       0.010
   0.42857143  0.14285714  0.50000000       0.010
  -0.42857143  0.14285714  0.50000000       0.010
  -0.28571429  0.14285714  0.50000000       0.010
  -0.14285714  0.14285714  0.50000000       0.005
   0.28571429  0.28571429  0.50000000       0.005
   0.42857143  0.28571429  0.50000000       0.010
  -0.42857143  0.28571429  0.50000000       0.010
  -0.28571429  0.28571429  0.50000000       0.005
   0.42857143  0.42857143  0.50000000       0.005
  -0.42857143  0.42857143  0.50000000       0.005
 
 position of ions in fractional coordinates (direct lattice) 
   0.00000000  0.00000000  0.00000000
   0.50000000  0.50000000  0.00000000
   0.21914000  0.71914000  0.93829000
   0.25000000  0.25000000  0.00000000
   0.78086000  0.28086000  0.06171000
   0.75000000  0.75000000  0.00000000
   0.71914000  0.78086000  0.50000000
   0.28086000  0.21914000  0.50000000
   0.00000000  0.00000000  0.50000000
   0.00000000  0.50000000  0.00000000
   0.50000000  0.50000000  0.50000000
   0.50000000  0.00000000  0.00000000
 
 position of ions in cartesian coordinates  (Angst):
   0.00000000  0.00000000  0.00000000
   1.86960059  2.61674674 -3.28431374
  -0.07702814  3.76361450  2.95492974
   0.93480030  1.30837337 -1.64215687
   3.81622932  1.46987898 -3.09000721
   2.80440089  3.92512011 -4.92647060
   2.57835299  4.08662572 -1.70969560
   1.16084819  1.14686776  1.57461813
   0.00000000  0.00000000  3.21677500
  -0.89643669  2.61674674 -1.64215687
   1.86960059  2.61674674 -0.06753874
   2.76603728  0.00000000 -1.64215687
 


--------------------------------------------------------------------------------------------------------


 k-point   1 :   0.0000 0.0000 0.0000  plane waves:    6203
 k-point   2 :   0.1429 0.0000 0.0000  plane waves:    6207
 k-point   3 :   0.2857-0.0000 0.0000  plane waves:    6222
 k-point   4 :   0.4286 0.0000 0.0000  plane waves:    6220
 k-point   5 :   0.1429 0.1429 0.0000  plane waves:    6211
 k-point   6 :   0.2857 0.1429 0.0000  plane waves:    6206
 k-point   7 :   0.4286 0.1429 0.0000  plane waves:    6221
 k-point   8 :  -0.4286 0.1429 0.0000  plane waves:    6218
 k-point   9 :  -0.2857 0.1429 0.0000  plane waves:    6211
 k-point  10 :  -0.1429 0.1429 0.0000  plane waves:    6200
 k-point  11 :   0.2857 0.2857 0.0000  plane waves:    6215
 k-point  12 :   0.4286 0.2857 0.0000  plane waves:    6209
 k-point  13 :  -0.4286 0.2857 0.0000  plane waves:    6220
 k-point  14 :  -0.2857 0.2857 0.0000  plane waves:    6212
 k-point  15 :   0.4286 0.4286 0.0000  plane waves:    6207
 k-point  16 :  -0.4286 0.4286 0.0000  plane waves:    6214
 k-point  17 :  -0.0000 0.0000 0.1250  plane waves:    6190
 k-point  18 :   0.1429 0.0000 0.1250  plane waves:    6207
 k-point  19 :   0.2857 0.0000 0.1250  plane waves:    6211
 k-point  20 :   0.4286 0.0000 0.1250  plane waves:    6220
 k-point  21 :  -0.4286 0.0000 0.1250  plane waves:    6205
 k-point  22 :  -0.2857 0.0000 0.1250  plane waves:    6211
 k-point  23 :  -0.1429 0.0000 0.1250  plane waves:    6201
 k-point  24 :   0.1429 0.1429 0.1250  plane waves:    6206
 k-point  25 :   0.2857 0.1429 0.1250  plane waves:    6216
 k-point  26 :   0.4286 0.1429 0.1250  plane waves:    6217
 k-point  27 :  -0.4286 0.1429 0.1250  plane waves:    6207
 k-point  28 :  -0.2857 0.1429 0.1250  plane waves:    6208
 k-point  29 :  -0.1429 0.1429 0.1250  plane waves:    6203
 k-point  30 :   0.2857 0.2857 0.1250  plane waves:    6211
 k-point  31 :   0.4286 0.2857 0.1250  plane waves:    6208
 k-point  32 :  -0.4286 0.2857 0.1250  plane waves:    6223
 k-point  33 :  -0.2857 0.2857 0.1250  plane waves:    6226
 k-point  34 :  -0.1429 0.2857 0.1250  plane waves:    6215
 k-point  35 :   0.4286 0.4286 0.1250  plane waves:    6200
 k-point  36 :  -0.4286 0.4286 0.1250  plane waves:    6201
 k-point  37 :  -0.2857 0.4286 0.1250  plane waves:    6219
 k-point  38 :  -0.1429 0.4286 0.1250  plane waves:    6225
 k-point  39 :  -0.4286-0.4286 0.1250  plane waves:    6203
 k-point  40 :  -0.2857-0.4286 0.1250  plane waves:    6223
 k-point  41 :  -0.1429-0.4286 0.1250  plane waves:    6215
 k-point  42 :  -0.2857-0.2857 0.1250  plane waves:    6214
 k-point  43 :  -0.1429-0.2857 0.1250  plane waves:    6207
 k-point  44 :  -0.1429-0.1429 0.1250  plane waves:    6188
 k-point  45 :  -0.0000 0.0000 0.2500  plane waves:    6210
 k-point  46 :   0.1429 0.0000 0.2500  plane waves:    6223
 k-point  47 :   0.2857 0.0000 0.2500  plane waves:    6214
 k-point  48 :   0.4286 0.0000 0.2500  plane waves:    6217
 k-point  49 :  -0.4286 0.0000 0.2500  plane waves:    6208
 k-point  50 :  -0.2857 0.0000 0.2500  plane waves:    6216
 k-point  51 :  -0.1429 0.0000 0.2500  plane waves:    6204
 k-point  52 :   0.1429 0.1429 0.2500  plane waves:    6207
 k-point  53 :   0.2857 0.1429 0.2500  plane waves:    6211
 k-point  54 :   0.4286 0.1429 0.2500  plane waves:    6205
 k-point  55 :  -0.4286 0.1429 0.2500  plane waves:    6216
 k-point  56 :  -0.2857 0.1429 0.2500  plane waves:    6216
 k-point  57 :  -0.1429 0.1429 0.2500  plane waves:    6221
 k-point  58 :   0.2857 0.2857 0.2500  plane waves:    6211
 k-point  59 :   0.4286 0.2857 0.2500  plane waves:    6216
 k-point  60 :  -0.4286 0.2857 0.2500  plane waves:    6215
 k-point  61 :  -0.2857 0.2857 0.2500  plane waves:    6233
 k-point  62 :  -0.1429 0.2857 0.2500  plane waves:    6219
 k-point  63 :   0.4286 0.4286 0.2500  plane waves:    6201
 k-point  64 :  -0.4286 0.4286 0.2500  plane waves:    6225
 k-point  65 :  -0.2857 0.4286 0.2500  plane waves:    6224
 k-point  66 :  -0.1429 0.4286 0.2500  plane waves:    6218
 k-point  67 :  -0.4286-0.4286 0.2500  plane waves:    6229
 k-point  68 :  -0.2857-0.4286 0.2500  plane waves:    6227
 k-point  69 :  -0.1429-0.4286 0.2500  plane waves:    6208
 k-point  70 :  -0.2857-0.2857 0.2500  plane waves:    6223
 k-point  71 :  -0.1429-0.2857 0.2500  plane waves:    6208
 k-point  72 :  -0.1429-0.1429 0.2500  plane waves:    6223
 k-point  73 :  -0.0000 0.0000 0.3750  plane waves:    6224
 k-point  74 :   0.1429 0.0000 0.3750  plane waves:    6209
 k-point  75 :   0.2857 0.0000 0.3750  plane waves:    6218
 k-point  76 :   0.4286 0.0000 0.3750  plane waves:    6224
 k-point  77 :  -0.4286 0.0000 0.3750  plane waves:    6217
 k-point  78 :  -0.2857 0.0000 0.3750  plane waves:    6214
 k-point  79 :  -0.1429 0.0000 0.3750  plane waves:    6221
 k-point  80 :   0.1429 0.1429 0.3750  plane waves:    6204
 k-point  81 :   0.2857 0.1429 0.3750  plane waves:    6211
 k-point  82 :   0.4286 0.1429 0.3750  plane waves:    6228
 k-point  83 :  -0.4286 0.1429 0.3750  plane waves:    6225
 k-point  84 :  -0.2857 0.1429 0.3750  plane waves:    6221
 k-point  85 :  -0.1429 0.1429 0.3750  plane waves:    6208
 k-point  86 :   0.2857 0.2857 0.3750  plane waves:    6207
 k-point  87 :   0.4286 0.2857 0.3750  plane waves:    6211
 k-point  88 :  -0.4286 0.2857 0.3750  plane waves:    6224
 k-point  89 :  -0.2857 0.2857 0.3750  plane waves:    6230
 k-point  90 :  -0.1429 0.2857 0.3750  plane waves:    6218
 k-point  91 :   0.4286 0.4286 0.3750  plane waves:    6223
 k-point  92 :  -0.4286 0.4286 0.3750  plane waves:    6237
 k-point  93 :  -0.2857 0.4286 0.3750  plane waves:    6237
 k-point  94 :  -0.1429 0.4286 0.3750  plane waves:    6214
 k-point  95 :  -0.4286-0.4286 0.3750  plane waves:    6236
 k-point  96 :  -0.2857-0.4286 0.3750  plane waves:    6228
 k-point  97 :  -0.1429-0.4286 0.3750  plane waves:    6208
 k-point  98 :  -0.2857-0.2857 0.3750  plane waves:    6208
 k-point  99 :  -0.1429-0.2857 0.3750  plane waves:    6213
 k-point 100 :  -0.1429-0.1429 0.3750  plane waves:    6215
 k-point 101 :  -0.0000 0.0000 0.5000  plane waves:    6206
 k-point 102 :   0.1429 0.0000 0.5000  plane waves:    6215
 k-point 103 :   0.2857 0.0000 0.5000  plane waves:    6218
 k-point 104 :   0.4286 0.0000 0.5000  plane waves:    6225
 k-point 105 :   0.1429 0.1429 0.5000  plane waves:    6213
 k-point 106 :   0.2857 0.1429 0.5000  plane waves:    6223
 k-point 107 :   0.4286 0.1429 0.5000  plane waves:    6216
 k-point 108 :  -0.4286 0.1429 0.5000  plane waves:    6222
 k-point 109 :  -0.2857 0.1429 0.5000  plane waves:    6219
 k-point 110 :  -0.1429 0.1429 0.5000  plane waves:    6186
 k-point 111 :   0.2857 0.2857 0.5000  plane waves:    6212
 k-point 112 :   0.4286 0.2857 0.5000  plane waves:    6222
 k-point 113 :  -0.4286 0.2857 0.5000  plane waves:    6235
 k-point 114 :  -0.2857 0.2857 0.5000  plane waves:    6222
 k-point 115 :   0.4286 0.4286 0.5000  plane waves:    6234
 k-point 116 :  -0.4286 0.4286 0.5000  plane waves:    6248

 maximum and minimum number of plane-waves per node :      3144     3071

 maximum number of plane-waves:      6248
 maximum index in each direction: 
   IXMAX=   13   IYMAX=   13   IZMAX=   12
   IXMIN=  -13   IYMIN=  -13   IZMIN=  -13


 parallel 3D FFT for wavefunctions:
    minimum data exchange during FFTs selected (reduces bandwidth)
 parallel 3D FFT for charge:
    minimum data exchange during FFTs selected (reduces bandwidth)


 total amount of memory used by VASP MPI-rank0   416710. kBytes
=======================================================================

   base      :      30000. kBytes
   nonl-proj :     158155. kBytes
   fftplans  :      17764. kBytes
   grid      :      13358. kBytes
   one-center:         93. kBytes
   wavefun   :     197340. kBytes
 
     INWAV:  cpu time    0.0001: real time    0.0001
 Broyden mixing: mesh for mixing (old mesh)
   NGX = 25   NGY = 25   NGZ = 25
  (NGX  =108   NGY  =108   NGZ  =108)
  gives a total of  15625 points

 initial charge density was supplied:
 charge density of overlapping atoms calculated
 number of electron     106.0000000 magnetization 
 keeping initial charge density in first step


--------------------------------------------------------------------------------------------------------


 Maximum index for augmentation-charges        23971 (set IRDMAX)


--------------------------------------------------------------------------------------------------------


 First call to EWALD:  gamma=   0.310
 Maximum number of real-space cells 3x 3x 3
 Maximum number of reciprocal cells 3x 3x 3

    FEWALD:  cpu time    0.0091: real time    0.0092


--------------------------------------- Iteration      1(   1)  ---------------------------------------


    POTLOK:  cpu time    0.2609: real time    0.2631
    SETDIJ:  cpu time    0.7124: real time    0.7182
    TRIAL :  cpu time   30.9928: real time   31.2518
    CORREC:  cpu time    0.0022: real time    0.0022
    --------------------------------------------
      LOOP:  cpu time   32.0339: real time   32.3189

 eigenvalue-minimisations  : 15540
 total energy-change (2. order) : 0.1089846E+04  (-0.7119785E+04)
 number of electron     106.0000000 magnetization 
 augmentation part      106.0000000 magnetization 

 Free energy of the ion-electron system (eV)
  ---------------------------------------------------
  alpha Z        PSCENC =       494.71843772
  Ewald energy   TEWEN  =     -8837.22561415
  -Hartree energ DENC   =     -2890.33152768
  -exchange      EXHF   =         0.00000000
  -V(xc)+E(xc)   XCENC  =       457.42721928
  PAW double counting   =      9333.50011946    -9270.82734050
  entropy T*S    EENTRO =        -0.00063984
  eigenvalues    EBANDS =        74.28449313
  atomic energy  EATOM  =     11728.30056431
  ---------------------------------------------------
  free energy    TOTEN  =      1089.84571173 eV

  energy without entropy =     1089.84635156  energy(sigma->0) =     1089.84603165


--------------------------------------------------------------------------------------------------------




--------------------------------------- Iteration      1(   2)  ---------------------------------------


    TRIAL :  cpu time   35.7072: real time   36.5755
    CORREC:  cpu time    0.0023: real time    0.0023
    --------------------------------------------
      LOOP:  cpu time   35.7128: real time   36.5815

 eigenvalue-minimisations  : 17160
 total energy-change (2. order) :-0.1278949E+04  (-0.1253794E+04)
 number of electron     106.0000000 magnetization 
 augmentation part      106.0000000 magnetization 

 Free energy of the ion-electron system (eV)
  ---------------------------------------------------
  alpha Z        PSCENC =       494.71843772
  Ewald energy   TEWEN  =     -8837.22561415
  -Hartree energ DENC   =     -2890.33152768
  -exchange      EXHF   =         0.00000000
  -V(xc)+E(xc)   XCENC  =       457.42721928
  PAW double counting   =      9333.50011946    -9270.82734050
  entropy T*S    EENTRO =        -0.00139025
  eigenvalues    EBANDS =     -1204.66393048
  atomic energy  EATOM  =     11728.30056431
  ---------------------------------------------------
  free energy    TOTEN  =      -189.10346230 eV

  energy without entropy =     -189.10207204  energy(sigma->0) =     -189.10276717


--------------------------------------------------------------------------------------------------------




--------------------------------------- Iteration      1(   3)  ---------------------------------------


    TRIAL :  cpu time   40.1962: real time   40.9401
    CORREC:  cpu time    0.0021: real time    0.0021
    --------------------------------------------
      LOOP:  cpu time   40.1995: real time   40.9454

 eigenvalue-minimisations  : 20532
 total energy-change (2. order) :-0.5228137E+02  (-0.5104053E+02)
 number of electron     106.0000000 magnetization 
 augmentation part      106.0000000 magnetization 

 Free energy of the ion-electron system (eV)
  ---------------------------------------------------
  alpha Z        PSCENC =       494.71843772
  Ewald energy   TEWEN  =     -8837.22561415
  -Hartree energ DENC   =     -2890.33152768
  -exchange      EXHF   =         0.00000000
  -V(xc)+E(xc)   XCENC  =       457.42721928
  PAW double counting   =      9333.50011946    -9270.82734050
  entropy T*S    EENTRO =        -0.00194519
  eigenvalues    EBANDS =     -1256.94474116
  atomic energy  EATOM  =     11728.30056431
  ---------------------------------------------------
  free energy    TOTEN  =      -241.38482792 eV

  energy without entropy =     -241.38288272  energy(sigma->0) =     -241.38385532


--------------------------------------------------------------------------------------------------------




--------------------------------------- Iteration      1(   4)  ---------------------------------------


    TRIAL :  cpu time   38.6979: real time   39.4308
    CORREC:  cpu time    0.0021: real time    0.0021
    --------------------------------------------
      LOOP:  cpu time   38.7012: real time   39.4365

 eigenvalue-minimisations  : 18720
 total energy-change (2. order) :-0.1116420E+01  (-0.1102826E+01)
 number of electron     106.0000000 magnetization 
 augmentation part      106.0000000 magnetization 

 Free energy of the ion-electron system (eV)
  ---------------------------------------------------
  alpha Z        PSCENC =       494.71843772
  Ewald energy   TEWEN  =     -8837.22561415
  -Hartree energ DENC   =     -2890.33152768
  -exchange      EXHF   =         0.00000000
  -V(xc)+E(xc)   XCENC  =       457.42721928
  PAW double counting   =      9333.50011946    -9270.82734050
  entropy T*S    EENTRO =        -0.00204674
  eigenvalues    EBANDS =     -1258.06105991
  atomic energy  EATOM  =     11728.30056431
  ---------------------------------------------------
  free energy    TOTEN  =      -242.50124821 eV

  energy without entropy =     -242.49920147  energy(sigma->0) =     -242.50022484


--------------------------------------------------------------------------------------------------------




--------------------------------------- Iteration      1(   5)  ---------------------------------------


    TRIAL :  cpu time   38.6918: real time   39.5314
    CORREC:  cpu time    0.0022: real time    0.0022
    CHARGE:  cpu time    2.4304: real time    2.4486
    --------------------------------------------
      LOOP:  cpu time   41.1256: real time   41.9852

 eigenvalue-minimisations  : 19386
 total energy-change (2. order) :-0.2168263E-01  (-0.2161859E-01)
 number of electron     106.0000001 magnetization 
 augmentation part       11.7927776 magnetization 

 Free energy of the ion-electron system (eV)
  ---------------------------------------------------
  alpha Z        PSCENC =       494.71843772
  Ewald energy   TEWEN  =     -8837.22561415
  -Hartree energ DENC   =     -2890.33152768
  -exchange      EXHF   =         0.00000000
  -V(xc)+E(xc)   XCENC  =       457.42721928
  PAW double counting   =      9333.50011946    -9270.82734050
  entropy T*S    EENTRO =        -0.00204803
  eigenvalues    EBANDS =     -1258.08274125
  atomic energy  EATOM  =     11728.30056431
  ---------------------------------------------------
  free energy    TOTEN  =      -242.52293084 eV

  energy without entropy =     -242.52088281  energy(sigma->0) =     -242.52190683


--------------------------------------------------------------------------------------------------------




--------------------------------------- Iteration      1(   6)  ---------------------------------------


    POTLOK:  cpu time    0.1830: real time    0.1843
    SETDIJ:  cpu time    0.6606: real time    0.6647
    TRIAL :  cpu time   26.1652: real time   26.4762
    CORREC:  cpu time    9.4572: real time    9.5326
    CHARGE:  cpu time    2.8331: real time    2.8534
    --------------------------------------------
      LOOP:  cpu time   39.3030: real time   39.7153

 eigenvalue-minimisations  :     0
 total energy-change (2. order) : 0.6218937E+02  (-0.1445222E+02)
 number of electron     106.0000001 magnetization 
 augmentation part       13.8210715 magnetization 

 Free energy of the ion-electron system (eV)
  ---------------------------------------------------
  alpha Z        PSCENC =       494.71843772
  Ewald energy   TEWEN  =     -8837.22561415
  -Hartree energ DENC   =     -2510.83593540
  -exchange      EXHF   =         0.00000000
  -V(xc)+E(xc)   XCENC  =       454.82955948
  PAW double counting   =     14965.47251856   -14943.17233925
  entropy T*S    EENTRO =        -0.00170667
  eigenvalues    EBANDS =     -1532.41870584
  atomic energy  EATOM  =     11728.30056431
  ---------------------------------------------------
  free energy    TOTEN  =      -180.33356262 eV

  energy without entropy =     -180.33185595  energy(sigma->0) =     -180.33270928


--------------------------------------------------------------------------------------------------------




--------------------------------------- Iteration      1(   7)  ---------------------------------------


    POTLOK:  cpu time    0.1471: real time    0.1482
    SETDIJ:  cpu time    0.6639: real time    0.6687
    TRIAL :  cpu time   31.4732: real time   31.7904
    CORREC:  cpu time    9.6553: real time    9.7303
    CHARGE:  cpu time    2.3345: real time    2.3504
    --------------------------------------------
      LOOP:  cpu time   44.2748: real time   44.6896

 eigenvalue-minimisations  :     0
 total energy-change (2. order) :-0.1423643E+02  (-0.2724612E+01)
 number of electron     106.0000001 magnetization 
 augmentation part       13.8218357 magnetization 

 Free energy of the ion-electron system (eV)
  ---------------------------------------------------
  alpha Z        PSCENC =       494.71843772
  Ewald energy   TEWEN  =     -8837.22561415
  -Hartree energ DENC   =     -2729.29391821
  -exchange      EXHF   =         0.00000000
  -V(xc)+E(xc)   XCENC  =       465.37890387
  PAW double counting   =     14248.92124922   -14211.64388034
  entropy T*S    EENTRO =        -0.00135969
  eigenvalues    EBANDS =     -1353.72403158
  atomic energy  EATOM  =     11728.30056431
  ---------------------------------------------------
  free energy    TOTEN  =      -194.56999582 eV

  energy without entropy =     -194.56863614  energy(sigma->0) =     -194.56931598


--------------------------------------------------------------------------------------------------------




--------------------------------------- Iteration      1(   8)  ---------------------------------------


    POTLOK:  cpu time    0.1466: real time    0.1476
    SETDIJ:  cpu time    0.6441: real time    0.6484
    TRIAL :  cpu time   33.9327: real time   34.2250
    CORREC:  cpu time   12.2689: real time   12.3704
    CHARGE:  cpu time    2.9639: real time    2.9844
    --------------------------------------------
      LOOP:  cpu time   49.9571: real time   50.3776

 eigenvalue-minimisations  :     0
 total energy-change (2. order) :-0.2717219E+01  (-0.7485844E+00)
 number of electron     106.0000001 magnetization 
 augmentation part       13.8079963 magnetization 

 Free energy of the ion-electron system (eV)
  ---------------------------------------------------
  alpha Z        PSCENC =       494.71843772
  Ewald energy   TEWEN  =     -8837.22561415
  -Hartree energ DENC   =     -2762.29230230
  -exchange      EXHF   =         0.00000000
  -V(xc)+E(xc)   XCENC  =       467.14319853
  PAW double counting   =     14040.38932612   -13999.40131651
  entropy T*S    EENTRO =        -0.00136951
  eigenvalues    EBANDS =     -1328.91814919
  atomic energy  EATOM  =     11728.30056431
  ---------------------------------------------------
  free energy    TOTEN  =      -197.28721515 eV

  energy without entropy =     -197.28584564  energy(sigma->0) =     -197.28653039


--------------------------------------------------------------------------------------------------------




--------------------------------------- Iteration      1(   9)  ---------------------------------------


    POTLOK:  cpu time    0.1434: real time    0.1442
    SETDIJ:  cpu time    0.6428: real time    0.6463
    TRIAL :  cpu time   30.6572: real time   31.1246
    CORREC:  cpu time   11.5096: real time   11.5961
    CHARGE:  cpu time    2.9702: real time    2.9911
    --------------------------------------------
      LOOP:  cpu time   45.9260: real time   46.5058

 eigenvalue-minimisations  :     0
 total energy-change (2. order) :-0.7482918E+00  (-0.2510267E+00)
 number of electron     106.0000001 magnetization 
 augmentation part       13.7978869 magnetization 

 Free energy of the ion-electron system (eV)
  ---------------------------------------------------
  alpha Z        PSCENC =       494.71843772
  Ewald energy   TEWEN  =     -8837.22561415
  -Hartree energ DENC   =     -2768.45085233
  -exchange      EXHF   =         0.00000000
  -V(xc)+E(xc)   XCENC  =       467.52757599
  PAW double counting   =     14027.75440008   -13984.40647314
  entropy T*S    EENTRO =        -0.00154421
  eigenvalues    EBANDS =     -1326.25217591
  atomic energy  EATOM  =     11728.30056431
  ---------------------------------------------------
  free energy    TOTEN  =      -198.03550694 eV

  energy without entropy =     -198.03396273  energy(sigma->0) =     -198.03473483


--------------------------------------------------------------------------------------------------------




--------------------------------------- Iteration      1(  10)  ---------------------------------------


    POTLOK:  cpu time    0.1522: real time    0.1531
    SETDIJ:  cpu time    0.6510: real time    0.6553
    TRIAL :  cpu time   33.9322: real time   34.2027
    CORREC:  cpu time   10.1200: real time   10.1998
    CHARGE:  cpu time    3.3530: real time    3.3765
    --------------------------------------------
      LOOP:  cpu time   48.2095: real time   48.5898

 eigenvalue-minimisations  :     0
 total energy-change (2. order) :-0.2511127E+00  (-0.9062235E-01)
 number of electron     106.0000001 magnetization 
 augmentation part       13.7939098 magnetization 

 Free energy of the ion-electron system (eV)
  ---------------------------------------------------
  alpha Z        PSCENC =       494.71843772
  Ewald energy   TEWEN  =     -8837.22561415
  -Hartree energ DENC   =     -2771.80512166
  -exchange      EXHF   =         0.00000000
  -V(xc)+E(xc)   XCENC  =       467.70913717
  PAW double counting   =     14082.99834323   -14038.31288225
  entropy T*S    EENTRO =        -0.00161017
  eigenvalues    EBANDS =     -1324.66793985
  atomic energy  EATOM  =     11728.30056431
  ---------------------------------------------------
  free energy    TOTEN  =      -198.28661968 eV

  energy without entropy =     -198.28500952  energy(sigma->0) =     -198.28581460


--------------------------------------------------------------------------------------------------------




--------------------------------------- Iteration      1(  11)  ---------------------------------------


    POTLOK:  cpu time    0.1481: real time    0.1490
    SETDIJ:  cpu time    0.8559: real time    0.8610
    TRIAL :  cpu time   30.5692: real time   30.8212
    CORREC:  cpu time   10.5338: real time   10.6119
    CHARGE:  cpu time    2.7685: real time    2.7872
    --------------------------------------------
      LOOP:  cpu time   44.8775: real time   45.2330

 eigenvalue-minimisations  :     0
 total energy-change (2. order) :-0.9063520E-01  (-0.3339361E-01)
 number of electron     106.0000001 magnetization 
 augmentation part       13.8026445 magnetization 

 Free energy of the ion-electron system (eV)
  ---------------------------------------------------
  alpha Z        PSCENC =       494.71843772
  Ewald energy   TEWEN  =     -8837.22561415
  -Hartree energ DENC   =     -2774.44214263
  -exchange      EXHF   =         0.00000000
  -V(xc)+E(xc)   XCENC  =       467.82510248
  PAW double counting   =     14134.95473354   -14089.78966043
  entropy T*S    EENTRO =        -0.00161935
  eigenvalues    EBANDS =     -1322.71706557
  atomic energy  EATOM  =     11728.30056431
  ---------------------------------------------------
  free energy    TOTEN  =      -198.37725489 eV

  energy without entropy =     -198.37563554  energy(sigma->0) =     -198.37644521


--------------------------------------------------------------------------------------------------------




[...]
     58      10.2522      0.00000
     59      10.7767      0.00000
     60      10.8024      0.00000
     61      11.3882      0.00000
     62      11.4974      0.00000
     63      11.7796      0.00000
     64      12.0297      0.00000
     65      12.5047      0.00000
     66      12.8635      0.00000

 k-point   110 :      -0.1429    0.1429    0.5000
  band No.  band energies     occupation 
      1     -53.6417      2.00000
      2     -53.6402      2.00000
      3     -53.4907      2.00000
      4     -53.4830      2.00000
      5     -53.4816      2.00000
      6     -53.4749      2.00000
      7     -27.3559      2.00000
      8     -27.3212      2.00000
      9     -27.3025      2.00000
     10     -27.2820      2.00000
     11     -27.1815      2.00000
     12     -27.1447      2.00000
     13     -27.0837      2.00000
     14     -27.0415      2.00000
     15     -27.0321      2.00000
     16     -27.0185      2.00000
     17     -26.9674      2.00000
     18     -26.9612      2.00000
     19     -26.9324      2.00000
     20     -26.9280      2.00000
     21     -26.7622      2.00000
     22     -26.7074      2.00000
     23     -26.6999      2.00000
     24     -26.6615      2.00000
     25      -0.8872      2.00000
     26      -0.1103      2.00000
     27       0.2948      2.00000
     28       0.9752      2.00000
     29       0.9881      2.00000
     30       1.5553      2.00000
     31       3.4667      2.00000
     32       3.8668      2.00000
     33       4.6209      2.00000
     34       4.6387      2.00000
     35       4.9775      2.00000
     36       5.0960      2.00000
     37       5.1675      2.00000
     38       5.3046      2.00000
     39       5.4757      2.00000
     40       5.5596      2.00000
     41       5.6078      2.00000
     42       5.7822      2.00000
     43       5.8650      2.00000
     44       6.0631      2.00000
     45       6.5004      2.00000
     46       7.4498      2.00000
     47       7.7042      2.00000
     48       7.7830      2.00000
     49       7.8161      2.00000
     50       7.8303      2.00000
     51       8.1657      2.00000
     52       8.9032      2.00000
     53       9.1130      1.97245
     54       9.1591      0.29234
     55       9.7031      0.00000
     56      10.0829      0.00000
     57      10.3051      0.00000
     58      10.3484      0.00000
     59      10.6223      0.00000
     60      10.8600      0.00000
     61      10.9735      0.00000
     62      11.3864      0.00000
     63      11.8147      0.00000
     64      12.2234      0.00000
     65      12.7116      0.00000
     66      12.9337      0.00000

 k-point   111 :       0.2857    0.2857    0.5000
  band No.  band energies     occupation 
      1     -53.6421      2.00000
      2     -53.6401      2.00000
      3     -53.4957      2.00000
      4     -53.4835      2.00000
      5     -53.4819      2.00000
      6     -53.4688      2.00000
      7     -27.3330      2.00000
      8     -27.3293      2.00000
      9     -27.3213      2.00000
     10     -27.3009      2.00000
     11     -27.2134      2.00000
     12     -27.1550      2.00000
     13     -27.0544      2.00000
     14     -27.0469      2.00000
     15     -27.0352      2.00000
     16     -26.9956      2.00000
     17     -26.9909      2.00000
     18     -26.9410      2.00000
     19     -26.9329      2.00000
     20     -26.9231      2.00000
     21     -26.8044      2.00000
     22     -26.6922      2.00000
     23     -26.6861      2.00000
     24     -26.6241      2.00000
     25      -1.2485      2.00000
     26       0.0144      2.00000
     27       0.6395      2.00000
     28       0.8184      2.00000
     29       0.9961      2.00000
     30       1.5384      2.00000
     31       3.8899      2.00000
     32       3.9106      2.00000
     33       4.2656      2.00000
     34       4.4506      2.00000
     35       4.7018      2.00000
     36       5.0387      2.00000
     37       5.1652      2.00000
     38       5.3190      2.00000
     39       5.4106      2.00000
     40       5.7678      2.00000
     41       5.8200      2.00000
     42       6.0006      2.00000
     43       6.1553      2.00000
     44       6.4047      2.00000
     45       6.5015      2.00000
     46       6.5457      2.00000
     47       7.1512      2.00000
     48       7.9005      2.00000
     49       8.0208      2.00000
     50       8.1683      2.00000
     51       8.6044      2.00000
     52       8.9459      2.00000
     53       9.1512      0.61795
     54       9.1626      0.19252
     55       9.7210      0.00000
     56       9.7950      0.00000
     57       9.8281      0.00000
     58      10.5148      0.00000
     59      10.7049      0.00000
     60      10.8865      0.00000
     61      11.2240      0.00000
     62      11.4806      0.00000
     63      11.5842      0.00000
     64      12.0985      0.00000
     65      12.1493      0.00000
     66      12.4512      0.00000

 k-point   112 :       0.4286    0.2857    0.5000
  band No.  band energies     occupation 
      1     -53.6415      2.00000
      2     -53.6398      2.00000
      3     -53.4981      2.00000
      4     -53.4845      2.00000
      5     -53.4811      2.00000
      6     -53.4670      2.00000
      7     -27.3228      2.00000
      8     -27.3184      2.00000
      9     -27.3062      2.00000
     10     -27.2957      2.00000
     11     -27.1986      2.00000
     12     -27.1391      2.00000
     13     -27.0643      2.00000
     14     -27.0589      2.00000
     15     -27.0412      2.00000
     16     -27.0040      2.00000
     17     -26.9978      2.00000
     18     -26.9636      2.00000
     19     -26.9629      2.00000
     20     -26.9116      2.00000
     21     -26.8162      2.00000
     22     -26.6949      2.00000
     23     -26.6727      2.00000
     24     -26.6131      2.00000
     25      -1.0874      2.00000
     26       0.0501      2.00000
     27       0.5096      2.00000
     28       0.7238      2.00000
     29       1.2298      2.00000
     30       1.4590      2.00000
     31       3.7645      2.00000
     32       4.0629      2.00000
     33       4.3064      2.00000
     34       4.4923      2.00000
     35       4.7875      2.00000
     36       4.9660      2.00000
     37       5.1851      2.00000
     38       5.2751      2.00000
     39       5.3345      2.00000
     40       5.6677      2.00000
     41       5.7607      2.00000
     42       5.9905      2.00000
     43       6.0533      2.00000
     44       6.1901      2.00000
     45       6.3830      2.00000
     46       6.6043      2.00000
     47       7.0373      2.00000
     48       7.6449      2.00000
     49       7.7362      2.00000
     50       8.3428      2.00000
     51       8.6538      2.00000
     52       8.8030      2.00000
     53       8.9620      2.00000
     54       9.4042      0.00000
     55       9.7364      0.00000
     56       9.8294      0.00000
     57      10.0602      0.00000
     58      10.8156      0.00000
     59      10.9153      0.00000
     60      11.0023      0.00000
     61      11.2532      0.00000
     62      11.3273      0.00000
     63      11.7629      0.00000
     64      12.3298      0.00000
     65      12.4262      0.00000
     66      12.8365      0.00000

 k-point   113 :      -0.4286    0.2857    0.5000
  band No.  band energies     occupation 
      1     -53.6409      2.00000
      2     -53.6399      2.00000
      3     -53.4986      2.00000
      4     -53.4844      2.00000
      5     -53.4813      2.00000
      6     -53.4669      2.00000
      7     -27.3134      2.00000
      8     -27.3089      2.00000
      9     -27.3025      2.00000
     10     -27.2901      2.00000
     11     -27.1694      2.00000
     12     -27.1349      2.00000
     13     -27.0848      2.00000
     14     -27.0550      2.00000
     15     -27.0447      2.00000
     16     -27.0126      2.00000
     17     -26.9990      2.00000
     18     -26.9860      2.00000
     19     -26.9749      2.00000
     20     -26.9114      2.00000
     21     -26.8163      2.00000
     22     -26.6947      2.00000
     23     -26.6728      2.00000
     24     -26.6129      2.00000
     25      -0.8112      2.00000
     26      -0.0681      2.00000
     27       0.4237      2.00000
     28       0.5957      2.00000
     29       1.3511      2.00000
     30       1.4294      2.00000
     31       3.7775      2.00000
     32       4.2154      2.00000
     33       4.3204      2.00000
     34       4.5862      2.00000
     35       4.7845      2.00000
     36       4.9866      2.00000
     37       5.1855      2.00000
     38       5.2211      2.00000
     39       5.2592      2.00000
     40       5.4651      2.00000
     41       5.5997      2.00000
     42       5.9835      2.00000
     43       6.0724      2.00000
     44       6.2069      2.00000
     45       6.2697      2.00000
     46       6.6915      2.00000
     47       7.0453      2.00000
     48       7.4882      2.00000
     49       7.5528      2.00000
     50       8.3487      2.00000
     51       8.5700      2.00000
     52       8.7459      2.00000
     53       8.9551      2.00000
     54       9.4574      0.00000
     55       9.6863      0.00000
     56       9.8796      0.00000
     57      10.1329      0.00000
     58      10.8540      0.00000
     59      10.9533      0.00000
     60      11.1501      0.00000
     61      11.4509      0.00000
     62      11.5984      0.00000
     63      11.8595      0.00000
     64      12.3858      0.00000
     65      12.6731      0.00000
     66      12.9910      0.00000

 k-point   114 :      -0.2857    0.2857    0.5000
  band No.  band energies     occupation 
      1     -53.6406      2.00000
      2     -53.6404      2.00000
      3     -53.4970      2.00000
      4     -53.4828      2.00000
      5     -53.4826      2.00000
      6     -53.4686      2.00000
      7     -27.3215      2.00000
      8     -27.3140      2.00000
      9     -27.3027      2.00000
     10     -27.2826      2.00000
     11     -27.1467      2.00000
     12     -27.1363      2.00000
     13     -27.1137      2.00000
     14     -27.0545      2.00000
     15     -27.0393      2.00000
     16     -27.0179      2.00000
     17     -26.9892      2.00000
     18     -26.9749      2.00000
     19     -26.9635      2.00000
     20     -26.9222      2.00000
     21     -26.8045      2.00000
     22     -26.6898      2.00000
     23     -26.6879      2.00000
     24     -26.6236      2.00000
     25      -0.5517      2.00000
     26      -0.3340      2.00000
     27       0.4248      2.00000
     28       0.5197      2.00000
     29       1.2534      2.00000
     30       1.5264      2.00000
     31       3.8769      2.00000
     32       4.1704      2.00000
     33       4.4171      2.00000
     34       4.5619      2.00000
     35       4.8730      2.00000
     36       4.9849      2.00000
     37       5.0629      2.00000
     38       5.1813      2.00000
     39       5.3305      2.00000
     40       5.4002      2.00000
     41       5.6595      2.00000
     42       5.8947      2.00000
     43       6.1774      2.00000
     44       6.2016      2.00000
     45       6.3625      2.00000
     46       6.6550      2.00000
     47       7.1833      2.00000
     48       7.5007      2.00000
     49       7.6432      2.00000
     50       8.1686      2.00000
     51       8.2913      2.00000
     52       8.8262      2.00000
     53       9.1716      0.05222
     54       9.4339      0.00000
     55       9.7636      0.00000
     56       9.8301      0.00000
     57      10.1185      0.00000
     58      10.5539      0.00000
     59      10.8160      0.00000
     60      11.1611      0.00000
     61      11.5308      0.00000
     62      11.8850      0.00000
     63      12.0408      0.00000
     64      12.2740      0.00000
     65      12.3505      0.00000
     66      13.2066      0.00000

 k-point   115 :       0.4286    0.4286    0.5000
  band No.  band energies     occupation 
      1     -53.6411      2.00000
      2     -53.6393      2.00000
      3     -53.5004      2.00000
      4     -53.4835      2.00000
      5     -53.4825      2.00000
      6     -53.4652      2.00000
      7     -27.3087      2.00000
      8     -27.3072      2.00000
      9     -27.2900      2.00000
     10     -27.2850      2.00000
     11     -27.1877      2.00000
     12     -27.1048      2.00000
     13     -27.0631      2.00000
     14     -27.0619      2.00000
     15     -27.0586      2.00000
     16     -27.0149      2.00000
     17     -27.0112      2.00000
     18     -27.0032      2.00000
     19     -27.0001      2.00000
     20     -26.9001      2.00000
     21     -26.8289      2.00000
     22     -26.6793      2.00000
     23     -26.6772      2.00000
     24     -26.6030      2.00000
     25      -0.9611      2.00000
     26       0.2838      2.00000
     27       0.4407      2.00000
     28       0.6197      2.00000
     29       1.3182      2.00000
     30       1.3956      2.00000
     31       3.5801      2.00000
     32       4.2372      2.00000
     33       4.3467      2.00000
     34       4.5664      2.00000
     35       4.6621      2.00000
     36       4.9360      2.00000
     37       5.0819      2.00000
     38       5.1785      2.00000
     39       5.2919      2.00000
     40       5.4586      2.00000
     41       5.6305      2.00000
     42       5.9999      2.00000
     43       6.1438      2.00000
     44       6.2203      2.00000
     45       6.2534      2.00000
     46       6.7944      2.00000
     47       6.9129      2.00000
     48       7.3604      2.00000
     49       7.3678      2.00000
     50       8.5499      2.00000
     51       8.6555      2.00000
     52       8.6598      2.00000
     53       8.7506      2.00000
     54       9.5009      0.00000
     55       9.5521      0.00000
     56       9.9705      0.00000
     57      10.4539      0.00000
     58      11.1044      0.00000
     59      11.2994      0.00000
     60      11.3624      0.00000
     61      11.4392      0.00000
     62      11.7413      0.00000
     63      11.8662      0.00000
     64      12.2020      0.00000
     65      12.4023      0.00000
     66      12.9541      0.00000

 k-point   116 :      -0.4286    0.4286    0.5000
  band No.  band energies     occupation 
      1     -53.6408      2.00000
      2     -53.6393      2.00000
      3     -53.5006      2.00000
      4     -53.4834      2.00000
      5     -53.4826      2.00000
      6     -53.4652      2.00000
      7     -27.3045      2.00000
      8     -27.3027      2.00000
      9     -27.2884      2.00000
     10     -27.2830      2.00000
     11     -27.1731      2.00000
     12     -27.0949      2.00000
     13     -27.0726      2.00000
     14     -27.0645      2.00000
     15     -27.0531      2.00000
     16     -27.0343      2.00000
     17     -27.0170      2.00000
     18     -27.0050      2.00000
     19     -27.0045      2.00000
     20     -26.9001      2.00000
     21     -26.8289      2.00000
     22     -26.6789      2.00000
     23     -26.6776      2.00000
     24     -26.6029      2.00000
     25      -0.8342      2.00000
     26       0.2217      2.00000
     27       0.3988      2.00000
     28       0.5756      2.00000
     29       1.2824      2.00000
     30       1.4720      2.00000
     31       3.5750      2.00000
     32       4.3378      2.00000
     33       4.3439      2.00000
     34       4.6327      2.00000
     35       4.7248      2.00000
     36       4.9719      2.00000
     37       5.0010      2.00000
     38       5.1281      2.00000
     39       5.1924      2.00000
     40       5.3346      2.00000
     41       5.5853      2.00000
     42       6.0362      2.00000
     43       6.1620      2.00000
     44       6.2023      2.00000
     45       6.2571      2.00000
     46       6.8692      2.00000
     47       6.9188      2.00000
     48       7.2652      2.00000
     49       7.2811      2.00000
     50       8.5813      2.00000
     51       8.5903      2.00000
     52       8.6549      2.00000
     53       8.7270      2.00000
     54       9.5055      0.00000
     55       9.5134      0.00000
     56       9.9718      0.00000
     57      10.4725      0.00000
     58      11.1619      0.00000
     59      11.3864      0.00000
     60      11.3965      0.00000
     61      11.6122      0.00000
     62      11.7568      0.00000
     63      11.9941      0.00000
     64      12.2198      0.00000
     65      12.7160      0.00000
     66      13.1124      0.00000


--------------------------------------------------------------------------------------------------------


 soft charge-density along one line, spin component           1
         0         1         2         3         4         5         6         7         8         9
 total charge-density along one line
 
 pseudopotential strength for first ion, spin component:           1
  5.951   9.014  -0.000   0.000   0.000  -0.000   0.000   0.000
  9.014  13.646  -0.000   0.000   0.000  -0.000   0.000   0.000
 -0.000  -0.000  -1.960  -0.002   0.001  -3.266  -0.003   0.002
  0.000   0.000  -0.002  -1.959  -0.001  -0.003  -3.265  -0.002
  0.000   0.000   0.001  -0.001  -1.960   0.002  -0.002  -3.268
 -0.000  -0.000  -3.266  -0.003   0.002  -5.232  -0.005   0.003
  0.000   0.000  -0.003  -3.265  -0.002  -0.005  -5.230  -0.004
  0.000   0.000   0.002  -0.002  -3.268   0.003  -0.004  -5.234
 total augmentation occupancy for first ion, spin component:           1
  3.478  -0.827   0.000   0.000   0.000   0.000   0.000   0.000
 -0.827   0.206   0.000   0.000   0.000   0.000   0.000   0.000
  0.000   0.000   2.435   0.041  -0.023  -0.620  -0.005   0.003
  0.000   0.000   0.041   2.416   0.029  -0.005  -0.617  -0.004
  0.000   0.000  -0.023   0.029   2.450   0.003  -0.004  -0.622
  0.000   0.000  -0.620  -0.005   0.003   0.161   0.000  -0.000
  0.000   0.000  -0.005  -0.617  -0.004   0.000   0.161   0.000
  0.000   0.000   0.003  -0.004  -0.622  -0.000   0.000   0.161


------------------------ aborting loop because EDIFF is reached ----------------------------------------




--------------------------------------------------------------------------------------------------------



  FREE ENERGIE OF THE ION-ELECTRON SYSTEM (eV)
  ---------------------------------------------------
  free  energy   TOTEN  =      -198.43538229 eV

  energy  without entropy=     -198.43387421  energy(sigma->0) =     -198.43462825
 


--------------------------------------------------------------------------------------------------------


    POTLOK:  cpu time    0.8840: real time    0.8906


--------------------------------------------------------------------------------------------------------


 writing wavefunctions
     LOOP+:  cpu time 1577.7425: real time 1596.1915
    4ORBIT:  cpu time    0.0000: real time    0.0000

 total amount of memory used by VASP MPI-rank0   416710. kBytes
=======================================================================

   base      :      30000. kBytes
   nonl-proj :     158155. kBytes
   fftplans  :      17764. kBytes
   grid      :      13358. kBytes
   one-center:         93. kBytes
   wavefun   :     197340. kBytes
 
  
  
 General timing and accounting informations for this job:
 ========================================================
  
                  Total CPU time used (sec):     1588.058
                            User time (sec):     1539.819
                          System time (sec):       48.239
                         Elapsed time (sec):     1615.103
  
                   Maximum memory used (kb):      643064.
                   Average memory used (kb):          N/A
  
                          Minor page faults:      5393121
                          Major page faults:           27
                 Voluntary context switches:        15644
