 vasp.6.2.0 18Jan21 (build Jan 05 2022 15:41:44) complex                        
  
 executed on             LinuxIFC date 2025.05.07  17:18:54
 running on   24 total cores
 distrk:  each k-point on   12 cores,    2 groups
 distr:  one band on NCORE=   2 cores,    6 groups


--------------------------------------------------------------------------------------------------------


 INCAR:
   SYSTEM = routine with relax: pwdword
   ICHARG = 2
   NPAR = 6
   KPAR = 2
   NCORE = 2
   ADDGRID = T
   PREC = Acc
   ENCUT = 600
   METAGGA = R2SCAN
   LASPH = .TRUE.
   LMIXTAU = .FALSE.
   ALGO = A
   EDIFF = 1E-9
   NELM = 100
   NELMIN = 6
   IALGO = 38
   LREAL = F
   NSW = 0
   ISIF = -1
   ISMEAR = 0
   SIGMA = 0.02
   SYMPREC = 1E-4

 POTCAR:    PAW_PBE B 06Sep2000                   
 POTCAR:    PAW_PBE Mo_sv 02Feb2006               
 POTCAR:    PAW_PBE Si 05Jan2001                  
 -----------------------------------------------------------------------------
|                                                                             |
|           W    W    AA    RRRRR   N    N  II  N    N   GGGG   !!!           |
|           W    W   A  A   R    R  NN   N  II  NN   N  G    G  !!!           |
|           W    W  A    A  R    R  N N  N  II  N N  N  G       !!!           |
|           W WW W  AAAAAA  RRRRR   N  N N  II  N  N N  G  GGG   !            |
|           WW  WW  A    A  R   R   N   NN  II  N   NN  G    G                |
|           W    W  A    A  R    R  N    N  II  N    N   GGGG   !!!           |
|                                                                             |
|     For optimal performance we recommend to set                             |
|       NCORE = 2 up to number-of-cores-per-socket                            |
|     NCORE specifies how many cores store one orbital (NPAR=cpu/NCORE).      |
|     This setting can greatly improve the performance of VASP for DFT.       |
|     The default, NCORE=1 might be grossly inefficient on modern             |
|     multi-core architectures or massively parallel machines. Do your        |
|     own testing! More info at https://www.vasp.at/wiki/index.php/NCORE      |
|     Unfortunately you need to use the default for GW and RPA                |
|     calculations (for HF NCORE is supported but not extensively tested      |
|     yet).                                                                   |
|                                                                             |
 -----------------------------------------------------------------------------

 POTCAR:    PAW_PBE B 06Sep2000                   
   VRHFIN =B: s2p1                                                                                  
   LEXCH  = PE                                                                                      
   EATOM  =    71.1703 eV,    5.2309 Ry                                                             
                                                                                                    
   TITEL  = PAW_PBE B 06Sep2000                                                                     
   LULTRA =        F    use ultrasoft PP ?                                                          
   IUNSCR =        1    unscreen: 0-lin 1-nonlin 2-no                                               
   RPACOR =    1.200    partial core radius                                                         
   POMASS =   10.811; ZVAL   =    3.000    mass and valenz                                          
   RCORE  =    1.700    outmost cutoff radius                                                       
   RWIGS  =    1.710; RWIGS  =    0.905    wigner-seitz radius (au A)                               
   ENMAX  =  318.614; ENMIN  =  238.960 eV                                                          
   ICORE  =        2    local potential                                                             
   LCOR   =        T    correct aug charges                                                         
   LPAW   =        T    paw PP                                                                      
   EAUG   =  535.514                                                                                
   DEXC   =    0.000                                                                                
   RMAX   =    1.732    core radius for proj-oper                                                   
   RAUG   =    1.300    factor for augmentation sphere                                              
   RDEP   =    1.757    radius for radial grids                                                     
   RDEPT  =    1.436    core radius for aug-charge                                                  
                                                                                                    
   Atomic configuration                                                                             
    4 entries                                                                                       
     n  l   j            E        occ.                                                              
     1  0  0.50      -180.5896   2.0000                                                             
     2  0  0.50        -9.4431   2.0000                                                             
     2  1  0.50        -3.6068   1.0000                                                             
     3  2  1.50        -4.0817   0.0000                                                             
   Description                                                                                      
     l       E           TYP  RCUT    TYP  RCUT                                                     
     0     -9.4430752     23  1.500                                                                 
     0      0.8675899     23  1.500                                                                 
     1     -3.6067955     23  1.700                                                                 
     1      6.1086146     23  1.700                                                                 
     2     -4.0817478      7  1.700                                                                 
  local pseudopotential read in
  partial core-charges read in
  partial kinetic energy density read in
  atomic valenz-charges read in
  non local Contribution for L=           0  read in
    real space projection operators read in
  non local Contribution for L=           0  read in
    real space projection operators read in
  non local Contribution for L=           1  read in
    real space projection operators read in
  non local Contribution for L=           1  read in
    real space projection operators read in
    PAW grid and wavefunctions read in
 
   number of l-projection  operators is LMAX  =           4
   number of lm-projection operators is LMMAX =           8
 
 POTCAR:    PAW_PBE Mo_sv 02Feb2006               
   VRHFIN =Mo: 4p5s4d                                                                               
   LEXCH  = PE                                                                                      
   EATOM  =  1862.2866 eV,  136.8742 Ry                                                             
                                                                                                    
   TITEL  = PAW_PBE Mo_sv 02Feb2006                                                                 
   LULTRA =        F    use ultrasoft PP ?                                                          
   IUNSCR =        1    unscreen: 0-lin 1-nonlin 2-no                                               
   RPACOR =    2.200    partial core radius                                                         
   POMASS =   95.940; ZVAL   =   14.000    mass and valenz                                          
   RCORE  =    2.500    outmost cutoff radius                                                       
   RWIGS  =    2.750; RWIGS  =    1.455    wigner-seitz radius (au A)                               
   ENMAX  =  242.676; ENMIN  =  182.007 eV                                                          
   ICORE  =        3    local potential                                                             
   LCOR   =        T    correct aug charges                                                         
   LPAW   =        T    paw PP                                                                      
   EAUG   =  446.014                                                                                
   DEXC   =    0.000                                                                                
   RMAX   =    2.563    core radius for proj-oper                                                   
   RAUG   =    1.300    factor for augmentation sphere                                              
   RDEP   =    2.641    radius for radial grids                                                     
   RDEPT  =    2.031    core radius for aug-charge                                                  
                                                                                                    
   Atomic configuration                                                                             
   11 entries                                                                                       
     n  l   j            E        occ.                                                              
     1  0  0.50    -19819.0341   2.0000                                                             
     2  0  0.50     -2799.0127   2.0000                                                             
     2  1  1.50     -2502.0276   6.0000                                                             
     3  0  0.50      -476.4449   2.0000                                                             
     3  1  1.50      -379.1496   6.0000                                                             
     3  2  2.50      -220.9367  10.0000                                                             
     4  0  0.50       -64.3378   2.0000                                                             
     5  0  0.50        -4.0862   1.0000                                                             
     4  1  1.50       -38.4773   6.0000                                                             
     4  2  2.50        -3.7535   5.0000                                                             
     4  3  2.50        -1.3606   0.0000                                                             
   Description                                                                                      
     l       E           TYP  RCUT    TYP  RCUT                                                     
     0    -64.3377829     23  2.100                                                                 
     0     -4.0861640     23  2.400                                                                 
     1    -38.4772993     23  2.100                                                                 
     1     13.6058260     23  2.100                                                                 
     2     -3.7534941     23  2.400                                                                 
     2     -5.1140767     23  2.400                                                                 
     3     -4.0817478     23  2.500                                                                 
  local pseudopotential read in
  partial core-charges read in
  partial kinetic energy density read in
  atomic valenz-charges read in
  non local Contribution for L=           0  read in
    real space projection operators read in
  non local Contribution for L=           0  read in
    real space projection operators read in
  non local Contribution for L=           1  read in
    real space projection operators read in
  non local Contribution for L=           1  read in
    real space projection operators read in
  non local Contribution for L=           2  read in
    real space projection operators read in
  non local Contribution for L=           2  read in
    real space projection operators read in
    PAW grid and wavefunctions read in
 
   number of l-projection  operators is LMAX  =           6
   number of lm-projection operators is LMMAX =          18
 
 POTCAR:    PAW_PBE Si 05Jan2001                  
   VRHFIN =Si: s2p2                                                                                 
   LEXCH  = PE                                                                                      
   EATOM  =   103.0669 eV,    7.5752 Ry                                                             
                                                                                                    
   TITEL  = PAW_PBE Si 05Jan2001                                                                    
   LULTRA =        F    use ultrasoft PP ?                                                          
   IUNSCR =        1    unscreen: 0-lin 1-nonlin 2-no                                               
   RPACOR =    1.500    partial core radius                                                         
   POMASS =   28.085; ZVAL   =    4.000    mass and valenz                                          
   RCORE  =    1.900    outmost cutoff radius                                                       
   RWIGS  =    2.480; RWIGS  =    1.312    wigner-seitz radius (au A)                               
   ENMAX  =  245.345; ENMIN  =  184.009 eV                                                          
   ICORE  =        2    local potential                                                             
   LCOR   =        T    correct aug charges                                                         
   LPAW   =        T    paw PP                                                                      
   EAUG   =  322.069                                                                                
   DEXC   =    0.000                                                                                
   RMAX   =    1.950    core radius for proj-oper                                                   
   RAUG   =    1.300    factor for augmentation sphere                                              
   RDEP   =    1.993    radius for radial grids                                                     
   RDEPT  =    1.837    core radius for aug-charge                                                  
                                                                                                    
   Atomic configuration                                                                             
    6 entries                                                                                       
     n  l   j            E        occ.                                                              
     1  0  0.50     -1785.8828   2.0000                                                             
     2  0  0.50      -139.4969   2.0000                                                             
     2  1  1.50       -95.5546   6.0000                                                             
     3  0  0.50       -10.8127   2.0000                                                             
     3  1  0.50        -4.0811   2.0000                                                             
     3  2  1.50        -4.0817   0.0000                                                             
   Description                                                                                      
     l       E           TYP  RCUT    TYP  RCUT                                                     
     0    -10.8127223     23  1.900                                                                 
     0     -7.6451159     23  1.900                                                                 
     1     -4.0811372     23  1.900                                                                 
     1      2.4879257     23  1.900                                                                 
     2     -4.0817478      7  1.900                                                                 
  local pseudopotential read in
  partial core-charges read in
  partial kinetic energy density read in
  atomic valenz-charges read in
  non local Contribution for L=           0  read in
    real space projection operators read in
  non local Contribution for L=           0  read in
    real space projection operators read in
  non local Contribution for L=           1  read in
    real space projection operators read in
  non local Contribution for L=           1  read in
    real space projection operators read in
    PAW grid and wavefunctions read in
 
   number of l-projection  operators is LMAX  =           4
   number of lm-projection operators is LMMAX =           8
 
  PAW_PBE B 06Sep2000                   :
 energy of atom  1       EATOM=  -71.1703
 kinetic energy error for atom=    0.0007 (will be added to EATOM!!)
  PAW_PBE Mo_sv 02Feb2006               :
 energy of atom  2       EATOM=-1862.2866
 kinetic energy error for atom=    0.0041 (will be added to EATOM!!)
  PAW_PBE Si 05Jan2001                  :
 energy of atom  3       EATOM= -103.0669
 kinetic energy error for atom=    0.0003 (will be added to EATOM!!)
 
 
 POSCAR: EA113
  positions in direct lattice
  No initial velocities read in

 METAGGA = R2SCA    LMAXTAU =  6    LMIXTAU =  F

 exchange correlation table for  LEXCH =        8
   RHO(1)=    0.500       N(1)  =     2000
   RHO(2)=  100.500       N(2)  =     4000
 


--------------------------------------------------------------------------------------------------------


 ion  position               nearest neighbor table
   1  0.750  0.250  0.500-   3 2.17   6 2.17
   2  0.250  0.750  0.500-   3 2.17   6 2.17
   3  0.000  0.500  0.500-   1 2.17   2 2.17
   4  0.250  0.250  0.000-   7 2.17   8 2.17
   5  0.750  0.750  0.000-   7 2.17   8 2.17
   6  0.500  0.000  0.500-   1 2.17   2 2.17
   7  0.500  0.500  0.000-   4 2.17   5 2.17
   8  0.000  0.000  0.000-   4 2.17   5 2.17
 
  LATTYP: Found a body centered tetragonal cell.
 ALAT       =     6.7130024798
 C/A-ratio  =     1.2912820641
  
  Lattice vectors:
  
 A1 = (   5.7250913221,   0.0000000000,  -2.9224939089)
 A2 = (  -2.1463777521,   5.3075166690,  -2.9224939089)
 A3 = (   0.0000000000,   0.0000000000,   6.4278800000)


Analysis of symmetry for initial positions (statically):
=====================================================================
 Subroutine PRICEL returns following result:
 
  LATTYP: Found a simple tetragonal cell.
 ALAT       =     4.7468346974
 C/A-ratio  =     0.9130694717
  
  Lattice vectors:
  
 A1 = (  -3.9357345371,   2.6537583345,   0.0000000000)
 A2 = (   1.7893567850,   2.6537583345,   3.5053860911)
 A3 = (   1.7893567850,   2.6537583345,  -2.9224939089)
 
   2 primitive cells build up your supercell.
 

 Routine SETGRP: Setting up the symmetry group for a 
 body centered tetragonal supercell.


 Subroutine GETGRP returns: Found 16 space group operations
 (whereof 16 operations were pure point group operations)
 out of a pool of 16 trial point group operations.


The static configuration has the point symmetry D_4h.


Analysis of symmetry for dynamics (positions and initial velocities):
=====================================================================
 Subroutine PRICEL returns following result:
 
  LATTYP: Found a simple tetragonal cell.
 ALAT       =     4.7468346974
 C/A-ratio  =     0.9130694717
  
  Lattice vectors:
  
 A1 = (  -3.9357345371,   2.6537583345,   0.0000000000)
 A2 = (   1.7893567850,   2.6537583345,   3.5053860911)
 A3 = (   1.7893567850,   2.6537583345,  -2.9224939089)
 
   2 primitive cells build up your supercell.
 

 Routine SETGRP: Setting up the symmetry group for a 
 body centered tetragonal supercell.


 Subroutine GETGRP returns: Found 16 space group operations
 (whereof 16 operations were pure point group operations)
 out of a pool of 16 trial point group operations.


The dynamic configuration has the point symmetry D_4h.


 Subroutine INISYM returns: Found 16 space group operations
 (whereof 16 operations are pure point group operations),
 and found     2 'primitive' translations


----------------------------------------------------------------------------------------

                                     Primitive cell                                     

  volume of cell :      97.6588

  direct lattice vectors                    reciprocal lattice vectors
    -3.935734537  2.653758335  0.000000000    -0.174669703  0.117775011  0.000000000
     1.789356785  2.653758335  3.505386091     0.079415164  0.117779000  0.155572288
     1.789356785  2.653758335 -2.922493909     0.095254539  0.141270053 -0.155572288

  length of vectors
     4.746834697  4.746784454  4.334189849     0.210666700  0.210668930  0.230723627

  position of ions in fractional coordinates (direct lattice)
     0.500000000  0.500000000  0.500000000
     0.500000000  0.500000000  0.000000000
     0.000000000  0.000000000  0.500000000
     0.000000000  0.000000000  0.000000000

  ion indices of the primitive-cell ions
   primitive index   ion index
                 1           1
                 2           3
                 3           4
                 4           7

----------------------------------------------------------------------------------------

 
 
 KPOINTS: EA                                      

Automatic generation of k-mesh.
 Grid dimensions read from file:
 generate k-points for:    7    7    8

 Generating k-lattice:

  Cartesian coordinates                     Fractional coordinates (reciprocal lattice)
     0.024952815  0.010091003  0.000000000     0.142857143  0.000000000  0.000000000
     0.000000000  0.026916005  0.000000000     0.000000000  0.142857143  0.000000000
     0.009926895  0.014722375  0.019446536     0.000000000  0.000000000  0.125000000

  Length of vectors
     0.026916005  0.026916005  0.026333616

  Shift w.r.t. Gamma in fractional coordinates (k-lattice)
     0.000000000  0.000000000  0.000000000

 -----------------------------------------------------------------------------
|                                                                             |
|           W    W    AA    RRRRR   N    N  II  N    N   GGGG   !!!           |
|           W    W   A  A   R    R  NN   N  II  NN   N  G    G  !!!           |
|           W    W  A    A  R    R  N N  N  II  N N  N  G       !!!           |
|           W WW W  AAAAAA  RRRRR   N  N N  II  N  N N  G  GGG   !            |
|           WW  WW  A    A  R   R   N   NN  II  N   NN  G    G                |
|           W    W  A    A  R    R  N    N  II  N    N   GGGG   !!!           |
|                                                                             |
|     Your reciprocal lattice and k-lattice belong to different lattice       |
|     classes:                                                                |
|                                                                             |
|        The reciprocal lattice is body-centered tetragonal,                  |
|        whereas your k-lattice is base-centered monoclinic.                  |
|                                                                             |
|     Results are often still useful ...                                      |
|                                                                             |
 -----------------------------------------------------------------------------

 WARNING: IBZKPT: internal override: KBLOWUP is changed to .FALSE.
      ... skipping the blow-up phase ...

 
 Subroutine IBZKPT returns following result:
 ===========================================
 
 Found    116 irreducible k-points:
 
 Following reciprocal coordinates:
            Coordinates               Weight
  0.000000  0.000000  0.000000      1.000000
  0.142857  0.000000  0.000000      4.000000
  0.285714  0.000000  0.000000      4.000000
  0.428571  0.000000  0.000000      4.000000
  0.142857  0.142857  0.000000      2.000000
  0.285714  0.142857  0.000000      4.000000
  0.428571  0.142857  0.000000      4.000000
 -0.428571  0.142857  0.000000      4.000000
 -0.285714  0.142857  0.000000      4.000000
 -0.142857  0.142857  0.000000      2.000000
  0.285714  0.285714  0.000000      2.000000
  0.428571  0.285714  0.000000      4.000000
 -0.428571  0.285714  0.000000      4.000000
 -0.285714  0.285714  0.000000      2.000000
  0.428571  0.428571  0.000000      2.000000
 -0.428571  0.428571  0.000000      2.000000
  0.000000 -0.000000  0.125000      2.000000
  0.142857 -0.000000  0.125000      4.000000
  0.285714  0.000000  0.125000      4.000000
  0.428571  0.000000  0.125000      4.000000
 -0.428571  0.000000  0.125000      4.000000
 -0.285714 -0.000000  0.125000      4.000000
 -0.142857 -0.000000  0.125000      4.000000
  0.142857  0.142857  0.125000      2.000000
  0.285714  0.142857  0.125000      4.000000
  0.428571  0.142857  0.125000      4.000000
 -0.428571  0.142857  0.125000      4.000000
 -0.285714  0.142857  0.125000      4.000000
 -0.142857  0.142857  0.125000      4.000000
  0.285714  0.285714  0.125000      2.000000
  0.428571  0.285714  0.125000      4.000000
 -0.428571  0.285714  0.125000      4.000000
 -0.285714  0.285714  0.125000      4.000000
 -0.142857  0.285714  0.125000      4.000000
  0.428571  0.428571  0.125000      2.000000
 -0.428571  0.428571  0.125000      4.000000
 -0.285714  0.428571  0.125000      4.000000
 -0.142857  0.428571  0.125000      4.000000
 -0.428571 -0.428571  0.125000      2.000000
 -0.285714 -0.428571  0.125000      4.000000
 -0.142857 -0.428571  0.125000      4.000000
 -0.285714 -0.285714  0.125000      2.000000
 -0.142857 -0.285714  0.125000      4.000000
 -0.142857 -0.142857  0.125000      2.000000
  0.000000 -0.000000  0.250000      2.000000
  0.142857 -0.000000  0.250000      4.000000
  0.285714 -0.000000  0.250000      4.000000
  0.428571 -0.000000  0.250000      4.000000
 -0.428571 -0.000000  0.250000      4.000000
 -0.285714 -0.000000  0.250000      4.000000
 -0.142857 -0.000000  0.250000      4.000000
  0.142857  0.142857  0.250000      2.000000
  0.285714  0.142857  0.250000      4.000000
  0.428571  0.142857  0.250000      4.000000
 -0.428571  0.142857  0.250000      4.000000
 -0.285714  0.142857  0.250000      4.000000
 -0.142857  0.142857  0.250000      4.000000
  0.285714  0.285714  0.250000      2.000000
  0.428571  0.285714  0.250000      4.000000
 -0.428571  0.285714  0.250000      4.000000
 -0.285714  0.285714  0.250000      4.000000
 -0.142857  0.285714  0.250000      4.000000
  0.428571  0.428571  0.250000      2.000000
 -0.428571  0.428571  0.250000      4.000000
 -0.285714  0.428571  0.250000      4.000000
 -0.142857  0.428571  0.250000      4.000000
 -0.428571 -0.428571  0.250000      2.000000
 -0.285714 -0.428571  0.250000      4.000000
 -0.142857 -0.428571  0.250000      4.000000
 -0.285714 -0.285714  0.250000      2.000000
 -0.142857 -0.285714  0.250000      4.000000
 -0.142857 -0.142857  0.250000      2.000000
  0.000000 -0.000000  0.375000      2.000000
  0.142857  0.000000  0.375000      4.000000
  0.285714  0.000000  0.375000      4.000000
  0.428571 -0.000000  0.375000      4.000000
 -0.428571 -0.000000  0.375000      4.000000
 -0.285714 -0.000000  0.375000      4.000000
 -0.142857 -0.000000  0.375000      4.000000
  0.142857  0.142857  0.375000      2.000000
  0.285714  0.142857  0.375000      4.000000
  0.428571  0.142857  0.375000      4.000000
 -0.428571  0.142857  0.375000      4.000000
 -0.285714  0.142857  0.375000      4.000000
 -0.142857  0.142857  0.375000      4.000000
  0.285714  0.285714  0.375000      2.000000
  0.428571  0.285714  0.375000      4.000000
 -0.428571  0.285714  0.375000      4.000000
 -0.285714  0.285714  0.375000      4.000000
 -0.142857  0.285714  0.375000      4.000000
  0.428571  0.428571  0.375000      2.000000
 -0.428571  0.428571  0.375000      4.000000
 -0.285714  0.428571  0.375000      4.000000
 -0.142857  0.428571  0.375000      4.000000
 -0.428571 -0.428571  0.375000      2.000000
 -0.285714 -0.428571  0.375000      4.000000
 -0.142857 -0.428571  0.375000      4.000000
 -0.285714 -0.285714  0.375000      2.000000
 -0.142857 -0.285714  0.375000      4.000000
 -0.142857 -0.142857  0.375000      2.000000
  0.000000 -0.000000  0.500000      1.000000
  0.142857 -0.000000  0.500000      4.000000
  0.285714 -0.000000  0.500000      4.000000
  0.428571 -0.000000  0.500000      4.000000
  0.142857  0.142857  0.500000      2.000000
  0.285714  0.142857  0.500000      4.000000
  0.428571  0.142857  0.500000      4.000000
 -0.428571  0.142857  0.500000      4.000000
 -0.285714  0.142857  0.500000      4.000000
 -0.142857  0.142857  0.500000      2.000000
  0.285714  0.285714  0.500000      2.000000
  0.428571  0.285714  0.500000      4.000000
 -0.428571  0.285714  0.500000      4.000000
 -0.285714  0.285714  0.500000      2.000000
  0.428571  0.428571  0.500000      2.000000
 -0.428571  0.428571  0.500000      2.000000
 
 Following cartesian coordinates:
            Coordinates               Weight
  0.000000  0.000000  0.000000      1.000000
  0.024953  0.010091  0.000000      4.000000
  0.049906  0.020182  0.000000      4.000000
  0.074858  0.030273  0.000000      4.000000
  0.024953  0.037007  0.000000      2.000000
  0.049906  0.047098  0.000000      4.000000
  0.074858  0.057189  0.000000      4.000000
 -0.074858 -0.003357  0.000000      4.000000
 -0.049906  0.006734  0.000000      4.000000
 -0.024953  0.016825  0.000000      2.000000
  0.049906  0.074014  0.000000      2.000000
  0.074858  0.084105  0.000000      4.000000
 -0.074858  0.023559  0.000000      4.000000
 -0.049906  0.033650  0.000000      2.000000
  0.074858  0.111021  0.000000      2.000000
 -0.074858  0.050475  0.000000      2.000000
  0.009927  0.014722  0.019447      2.000000
  0.034880  0.024813  0.019447      4.000000
  0.059833  0.034904  0.019447      4.000000
  0.084785  0.044995  0.019447      4.000000
 -0.064932 -0.015551  0.019447      4.000000
 -0.039979 -0.005460  0.019447      4.000000
 -0.015026  0.004631  0.019447      4.000000
  0.034880  0.051729  0.019447      2.000000
  0.059833  0.061820  0.019447      4.000000
  0.084785  0.071911  0.019447      4.000000
 -0.064932  0.011365  0.019447      4.000000
 -0.039979  0.021456  0.019447      4.000000
 -0.015026  0.031547  0.019447      4.000000
  0.059833  0.088736  0.019447      2.000000
  0.084785  0.098827  0.019447      4.000000
 -0.064932  0.038281  0.019447      4.000000
 -0.039979  0.048372  0.019447      4.000000
 -0.015026  0.058463  0.019447      4.000000
  0.084785  0.125743  0.019447      2.000000
 -0.064932  0.065197  0.019447      4.000000
 -0.039979  0.075288  0.019447      4.000000
 -0.015026  0.085379  0.019447      4.000000
 -0.064932 -0.096299  0.019447      2.000000
 -0.039979 -0.086208  0.019447      4.000000
 -0.015026 -0.076117  0.019447      4.000000
 -0.039979 -0.059292  0.019447      2.000000
 -0.015026 -0.049201  0.019447      4.000000
 -0.015026 -0.022285  0.019447      2.000000
  0.019854  0.029445  0.038893      2.000000
  0.044807  0.039536  0.038893      4.000000
  0.069759  0.049627  0.038893      4.000000
  0.094712  0.059718  0.038893      4.000000
 -0.055005 -0.000828  0.038893      4.000000
 -0.030052  0.009263  0.038893      4.000000
 -0.005099  0.019354  0.038893      4.000000
  0.044807  0.066452  0.038893      2.000000
  0.069759  0.076543  0.038893      4.000000
  0.094712  0.086634  0.038893      4.000000
 -0.055005  0.026088  0.038893      4.000000
 -0.030052  0.036179  0.038893      4.000000
 -0.005099  0.046270  0.038893      4.000000
  0.069759  0.103459  0.038893      2.000000
  0.094712  0.113550  0.038893      4.000000
 -0.055005  0.053004  0.038893      4.000000
 -0.030052  0.063095  0.038893      4.000000
 -0.005099  0.073186  0.038893      4.000000
  0.094712  0.140466  0.038893      2.000000
 -0.055005  0.079920  0.038893      4.000000
 -0.030052  0.090011  0.038893      4.000000
 -0.005099  0.100102  0.038893      4.000000
 -0.055005 -0.081576  0.038893      2.000000
 -0.030052 -0.071485  0.038893      4.000000
 -0.005099 -0.061394  0.038893      4.000000
 -0.030052 -0.044569  0.038893      2.000000
 -0.005099 -0.034478  0.038893      4.000000
 -0.005099 -0.007562  0.038893      2.000000
  0.029781  0.044167  0.058340      2.000000
  0.054734  0.054258  0.058340      4.000000
  0.079686  0.064349  0.058340      4.000000
  0.104639  0.074440  0.058340      4.000000
 -0.045078  0.013894  0.058340      4.000000
 -0.020125  0.023985  0.058340      4.000000
  0.004828  0.034076  0.058340      4.000000
  0.054734  0.081174  0.058340      2.000000
  0.079686  0.091265  0.058340      4.000000
  0.104639  0.101356  0.058340      4.000000
 -0.045078  0.040810  0.058340      4.000000
 -0.020125  0.050901  0.058340      4.000000
  0.004828  0.060992  0.058340      4.000000
  0.079686  0.118181  0.058340      2.000000
  0.104639  0.128272  0.058340      4.000000
 -0.045078  0.067726  0.058340      4.000000
 -0.020125  0.077817  0.058340      4.000000
  0.004828  0.087908  0.058340      4.000000
  0.104639  0.155188  0.058340      2.000000
 -0.045078  0.094642  0.058340      4.000000
 -0.020125  0.104733  0.058340      4.000000
  0.004828  0.114824  0.058340      4.000000
 -0.045078 -0.066854  0.058340      2.000000
 -0.020125 -0.056763  0.058340      4.000000
  0.004828 -0.046672  0.058340      4.000000
 -0.020125 -0.029847  0.058340      2.000000
  0.004828 -0.019756  0.058340      4.000000
  0.004828  0.007160  0.058340      2.000000
  0.039708  0.058889  0.077786      1.000000
  0.064660  0.068981  0.077786      4.000000
  0.089613  0.079072  0.077786      4.000000
  0.114566  0.089163  0.077786      4.000000
  0.064660  0.095897  0.077786      2.000000
  0.089613  0.105988  0.077786      4.000000
  0.114566  0.116079  0.077786      4.000000
 -0.035151  0.055532  0.077786      4.000000
 -0.010198  0.065623  0.077786      4.000000
  0.014755  0.075715  0.077786      2.000000
  0.089613  0.132904  0.077786      2.000000
  0.114566  0.142995  0.077786      4.000000
 -0.035151  0.082449  0.077786      4.000000
 -0.010198  0.092540  0.077786      2.000000
  0.114566  0.169911  0.077786      2.000000
 -0.035151  0.109365  0.077786      2.000000
 


--------------------------------------------------------------------------------------------------------




 Dimension of arrays:
   k-points           NKPTS =    116   k-points in BZ     NKDIM =    116   number of bands    NBANDS=     42
   number of dos      NEDOS =    301   number of ions     NIONS =      8
   non local maximal  LDIM  =      6   non local SUM 2l+1 LMDIM =     18
   total plane-waves  NPLWV = 157464
   max r-space proj   IRMAX =      1   max aug-charges    IRDMAX= 282216
   dimension x,y,z NGX =    54 NGY =   54 NGZ =   54
   dimension x,y,z NGXF=   108 NGYF=  108 NGZF=  108
   support grid    NGXF=   216 NGYF=  216 NGZF=  216
   ions per type =               2   4   2
   NGX,Y,Z   is equivalent  to a cutoff of  13.97, 13.97, 13.97 a.u.
   NGXF,Y,Z  is equivalent  to a cutoff of  27.93, 27.93, 27.93 a.u.

 SYSTEM =  routine with relax: pwdword             
 POSCAR =  EA113                                   

 Startparameter for this run:
   NWRITE =      2    write-flag & timer
   PREC   = acc       normal or accurate (medium, high low for compatibility)
   ISTART =      0    job   : 0-new  1-cont  2-samecut
   ICHARG =      2    charge: 1-file 2-atom 10-const
   ISPIN  =      1    spin polarized calculation?
   LNONCOLLINEAR =      F non collinear calculations
   LSORBIT =      F    spin-orbit coupling
   INIWAV =      1    electr: 0-lowe 1-rand  2-diag
   LASPH  =      T    aspherical Exc in radial PAW
   METAGGA=      F    non-selfconsistent MetaGGA calc.

 Electronic Relaxation 1
   ENCUT  =  600.0 eV  44.10 Ry    6.64 a.u.  12.84 12.84 12.84*2*pi/ulx,y,z
   ENINI  =  600.0     initial cutoff
   ENAUG  =  535.5 eV  augmentation charge cutoff
   NELM   =    100;   NELMIN=  6; NELMDL= -5     # of ELM steps 
   EDIFF  = 0.1E-08   stopping-criterion for ELM
   LREAL  =      F    real-space projection
   NLSPLINE    = F    spline interpolate recip. space projectors
   LCOMPAT=      F    compatible to vasp.4.4
   GGA_COMPAT  = T    GGA compatible to vasp.4.4-vasp.4.6
   LMAXPAW     = -100 max onsite density
   LMAXMIX     =    2 max onsite mixed and CHGCAR
   VOSKOWN=      0    Vosko Wilk Nusair interpolation
   ROPT   =    0.00000   0.00000   0.00000
 Ionic relaxation
   EDIFFG = 0.1E-07   stopping-criterion for IOM
   NSW    =      0    number of steps for IOM
   NBLOCK =      1;   KBLOCK =      1    inner block; outer block 
   IBRION =     -1    ionic relax: 0-MD 1-quasi-New 2-CG
   NFREE  =      0    steps in history (QN), initial steepest desc. (CG)
   ISIF   =     -1    stress and relaxation
   IWAVPR =     10    prediction:  0-non 1-charg 2-wave 3-comb
   ISYM   =      2    0-nonsym 1-usesym 2-fastsym
   LCORR  =      T    Harris-Foulkes like correction to forces

   POTIM  = 0.5000    time-step for ionic-motion
   TEIN   =    0.0    initial temperature
   TEBEG  =    0.0;   TEEND  =   0.0 temperature during run
   SMASS  =  -3.00    Nose mass-parameter (am)
   estimated Nose-frequenzy (Omega)   =  0.10E-29 period in steps = 0.13E+47 mass=  -0.944E-27a.u.
   SCALEE = 1.0000    scale energy and forces
   NPACO  =    256;   APACO  = 16.0  distance and # of slots for P.C.
   PSTRESS=    0.0 pullay stress

  Mass of Ions in am
   POMASS =  10.81 95.94 28.09
  Ionic Valenz
   ZVAL   =   3.00 14.00  4.00
  Atomic Wigner-Seitz radii
   RWIGS  =  -1.00 -1.00 -1.00
  virtual crystal weights 
   VCA    =   1.00  1.00  1.00
   NELECT =      70.0000    total number of electrons
   NUPDOWN=      -1.0000    fix difference up-down

 DOS related values:
   EMIN   =  10.00;   EMAX   =-10.00  energy-range for DOS
   EFERMI =   0.00
   ISMEAR =     0;   SIGMA  =   0.02  broadening in eV -4-tet -1-fermi 0-gaus

 Electronic relaxation 2 (details)
   IALGO  =     58    algorithm
   LDIAG  =      T    sub-space diagonalisation (order eigenvalues)
   LSUBROT=      F    optimize rotation matrix (better conditioning)
   TURBO    =      0    0=normal 1=particle mesh
   IRESTART =      0    0=no restart 2=restart with 2 vectors
   NREBOOT  =      0    no. of reboots
   NMIN     =      0    reboot dimension
   EREF     =   0.00    reference energy to select bands
   IMIX   =      4    mixing-type and parameters
     AMIX     =   0.40;   BMIX     =  1.00
     AMIX_MAG =   1.60;   BMIX_MAG =  1.00
     AMIN     =   0.10
     WC   =   100.;   INIMIX=   1;  MIXPRE=   1;  MAXMIX= -45

 Intra band minimization:
   WEIMIN = 0.0000     energy-eigenvalue tresh-hold
   EBREAK =  0.60E-11  absolut break condition
   DEPER  =   0.30     relativ break condition  

   TIME   =   0.40     timestep for ELM

  volume/ion in A,a.u.               =      24.41       164.76
  Fermi-wavevector in a.u.,A,eV,Ry     =   1.162859  2.197485 18.398351  1.352241
  Thomas-Fermi vector in A             =   2.299415
 
 Write flags
   LWAVE        =      T    write WAVECAR
   LDOWNSAMPLE  =      F    k-point downsampling of WAVECAR
   LCHARG       =      T    write CHGCAR
   LVTOT        =      F    write LOCPOT, total local potential
   LVHAR        =      F    write LOCPOT, Hartree potential only
   LELF         =      F    write electronic localiz. function (ELF)
   LORBIT       =      0    0 simple, 1 ext, 2 COOP (PROOUT), +10 PAW based schemes


 Dipole corrections
   LMONO  =      F    monopole corrections only (constant potential shift)
   LDIPOL =      F    correct potential (dipole corrections)
   IDIPOL =      0    1-x, 2-y, 3-z, 4-all directions 
   EPSILON=  1.0000000 bulk dielectric constant

 Exchange correlation treatment:
   GGA     =    --    GGA type
   LEXCH   =     8    internal setting for exchange type
   VOSKOWN=      0    Vosko Wilk Nusair interpolation
   LHFCALC =     F    Hartree Fock is set to
   LHFONE  =     F    Hartree Fock one center treatment
   AEXX    =    0.0000 exact exchange contribution

 Linear response parameters
   LEPSILON=     F    determine dielectric tensor
   LRPA    =     F    only Hartree local field effects (RPA)
   LNABLA  =     F    use nabla operator in PAW spheres
   LVEL    =     F    velocity operator in full k-point grid
   LINTERFAST=   F  fast interpolation
   KINTER  =     0    interpolate to denser k-point grid
   CSHIFT  =0.1000    complex shift for real part using Kramers Kronig
   OMEGAMAX=  -1.0    maximum frequency
   DEG_THRESHOLD= 0.2000000E-02 threshold for treating states as degnerate
   RTIME   =   -0.100 relaxation time in fs
  (WPLASMAI=    0.000 imaginary part of plasma frequency in eV, 0.658/RTIME)
   DFIELD  = 0.0000000 0.0000000 0.0000000 field for delta impulse in time
 
 Orbital magnetization related:
   ORBITALMAG=     F  switch on orbital magnetization
   LCHIMAG   =     F  perturbation theory with respect to B field
   DQ        =  0.001000  dq finite difference perturbation B field
   LLRAUG    =     F  two centre corrections for induced B field



--------------------------------------------------------------------------------------------------------


 Static calculation
 charge density and potential will be updated during run
 non-spin polarized calculation
 Conjugate gradient for all bands (Freysoldt, et al. PRB 79, 241103 (2009))
 preconditioned conjugated gradient                                        
 perform sub-space diagonalisation
    before iterative eigenvector-optimisation
 modified Broyden-mixing scheme, WC =      100.0
 initial mixing is a Kerker type mixing with AMIX =  0.4000 and BMIX =      1.0000
 Hartree-type preconditioning will be used
 using additional bands            7
 reciprocal scheme for non local part
 use partial core corrections
 no Harris-corrections to forces 
 use gradient corrections 
 use of overlap-Matrix (Vanderbilt PP)
 Gauss-broadening in eV      SIGMA  =   0.02


--------------------------------------------------------------------------------------------------------


  energy-cutoff  :      600.00
  volume of cell :      195.32
      direct lattice vectors                 reciprocal lattice vectors
     5.725091322  0.000000000 -2.922493909     0.174669703  0.070637021  0.000000000
    -2.146377752  5.307516669 -2.922493909     0.000000000  0.188412032  0.000000000
     0.000000000  0.000000000  6.427880000     0.079415164  0.117779000  0.155572288

  length of vectors
     6.427880000  6.427880000  6.427880000     0.188412032  0.188412032  0.210668930


 
 k-points in units of 2pi/SCALE and weight: EA                                      
   0.00000000  0.00000000  0.00000000       0.003
   0.02495281  0.01009100  0.00000000       0.010
   0.04990563  0.02018201  0.00000000       0.010
   0.07485844  0.03027301  0.00000000       0.010
   0.02495281  0.03700701  0.00000000       0.005
   0.04990563  0.04709801  0.00000000       0.010
   0.07485844  0.05718901  0.00000000       0.010
  -0.07485844 -0.00335700  0.00000000       0.010
  -0.04990563  0.00673400  0.00000000       0.010
  -0.02495281  0.01682500  0.00000000       0.005
   0.04990563  0.07401401  0.00000000       0.005
   0.07485844  0.08410502  0.00000000       0.010
  -0.07485844  0.02355900  0.00000000       0.010
  -0.04990563  0.03365000  0.00000000       0.005
   0.07485844  0.11102102  0.00000000       0.005
  -0.07485844  0.05047500  0.00000000       0.005
   0.00992690  0.01472237  0.01944654       0.005
   0.03487971  0.02481338  0.01944654       0.010
   0.05983252  0.03490438  0.01944654       0.010
   0.08478534  0.04499538  0.01944654       0.010
  -0.06493155 -0.01555063  0.01944654       0.010
  -0.03997873 -0.00545963  0.01944654       0.010
  -0.01502592  0.00463137  0.01944654       0.010
   0.03487971  0.05172938  0.01944654       0.005
   0.05983252  0.06182039  0.01944654       0.010
   0.08478534  0.07191139  0.01944654       0.010
  -0.06493155  0.01136537  0.01944654       0.010
  -0.03997873  0.02145637  0.01944654       0.010
  -0.01502592  0.03154738  0.01944654       0.010
   0.05983252  0.08873639  0.01944654       0.005
   0.08478534  0.09882739  0.01944654       0.010
  -0.06493155  0.03828138  0.01944654       0.010
  -0.03997873  0.04837238  0.01944654       0.010
  -0.01502592  0.05846338  0.01944654       0.010
   0.08478534  0.12574340  0.01944654       0.005
  -0.06493155  0.06519738  0.01944654       0.010
  -0.03997873  0.07528838  0.01944654       0.010
  -0.01502592  0.08537939  0.01944654       0.010
  -0.06493155 -0.09629865  0.01944654       0.005
  -0.03997873 -0.08620764  0.01944654       0.010
  -0.01502592 -0.07611664  0.01944654       0.010
  -0.03997873 -0.05929164  0.01944654       0.005
  -0.01502592 -0.04920064  0.01944654       0.010
  -0.01502592 -0.02228463  0.01944654       0.005
   0.01985379  0.02944475  0.03889307       0.005
   0.04480661  0.03953575  0.03889307       0.010
   0.06975942  0.04962676  0.03889307       0.010
   0.09471224  0.05971776  0.03889307       0.010
  -0.05500465 -0.00082826  0.03889307       0.010
  -0.03005184  0.00926274  0.03889307       0.010
  -0.00509902  0.01935375  0.03889307       0.010
   0.04480661  0.06645176  0.03889307       0.005
   0.06975942  0.07654276  0.03889307       0.010
   0.09471224  0.08663376  0.03889307       0.010
  -0.05500465  0.02608775  0.03889307       0.010
  -0.03005184  0.03617875  0.03889307       0.010
  -0.00509902  0.04626975  0.03889307       0.010
   0.06975942  0.10345876  0.03889307       0.005
   0.09471224  0.11354977  0.03889307       0.010
  -0.05500465  0.05300375  0.03889307       0.010
  -0.03005184  0.06309475  0.03889307       0.010
  -0.00509902  0.07318576  0.03889307       0.010
   0.09471224  0.14046577  0.03889307       0.005
  -0.05500465  0.07991975  0.03889307       0.010
  -0.03005184  0.09001076  0.03889307       0.010
  -0.00509902  0.10010176  0.03889307       0.010
  -0.05500465 -0.08157627  0.03889307       0.005
  -0.03005184 -0.07148527  0.03889307       0.010
  -0.00509902 -0.06139427  0.03889307       0.010
  -0.03005184 -0.04456927  0.03889307       0.005
  -0.00509902 -0.03447826  0.03889307       0.010
  -0.00509902 -0.00756226  0.03889307       0.005
   0.02978069  0.04416712  0.05833961       0.005
   0.05473350  0.05425813  0.05833961       0.010
   0.07968632  0.06434913  0.05833961       0.010
   0.10463913  0.07444013  0.05833961       0.010
  -0.04507776  0.01389412  0.05833961       0.010
  -0.02012494  0.02398512  0.05833961       0.010
   0.00482787  0.03407612  0.05833961       0.010
   0.05473350  0.08117413  0.05833961       0.005
   0.07968632  0.09126514  0.05833961       0.010
   0.10463913  0.10135614  0.05833961       0.010
  -0.04507776  0.04081012  0.05833961       0.010
  -0.02012494  0.05090112  0.05833961       0.010
   0.00482787  0.06099213  0.05833961       0.010
   0.07968632  0.11818114  0.05833961       0.005
   0.10463913  0.12827214  0.05833961       0.010
  -0.04507776  0.06772613  0.05833961       0.010
  -0.02012494  0.07781713  0.05833961       0.010
   0.00482787  0.08790813  0.05833961       0.010
   0.10463913  0.15518815  0.05833961       0.005
  -0.04507776  0.09464213  0.05833961       0.010
  -0.02012494  0.10473313  0.05833961       0.010
   0.00482787  0.11482414  0.05833961       0.010
  -0.04507776 -0.06685390  0.05833961       0.005
  -0.02012494 -0.05676289  0.05833961       0.010
   0.00482787 -0.04667189  0.05833961       0.010
  -0.02012494 -0.02984689  0.05833961       0.005
   0.00482787 -0.01975589  0.05833961       0.010
   0.00482787  0.00716012  0.05833961       0.005
   0.03970758  0.05888950  0.07778614       0.003
   0.06466040  0.06898050  0.07778614       0.010
   0.08961321  0.07907151  0.07778614       0.010
   0.11456603  0.08916251  0.07778614       0.010
   0.06466040  0.09589651  0.07778614       0.005
   0.08961321  0.10598751  0.07778614       0.010
   0.11456603  0.11607851  0.07778614       0.010
  -0.03515086  0.05553250  0.07778614       0.010
  -0.01019805  0.06562350  0.07778614       0.010
   0.01475477  0.07571450  0.07778614       0.005
   0.08961321  0.13290351  0.07778614       0.005
   0.11456603  0.14299452  0.07778614       0.010
  -0.03515086  0.08244850  0.07778614       0.010
  -0.01019805  0.09253950  0.07778614       0.005
   0.11456603  0.16991052  0.07778614       0.005
  -0.03515086  0.10936450  0.07778614       0.005
 
 k-points in reciprocal lattice and weights: EA                                      
   0.00000000  0.00000000  0.00000000       0.003
   0.14285714  0.00000000  0.00000000       0.010
   0.28571429  0.00000000  0.00000000       0.010
   0.42857143  0.00000000  0.00000000       0.010
   0.14285714  0.14285714  0.00000000       0.005
   0.28571429  0.14285714  0.00000000       0.010
   0.42857143  0.14285714  0.00000000       0.010
  -0.42857143  0.14285714  0.00000000       0.010
  -0.28571429  0.14285714  0.00000000       0.010
  -0.14285714  0.14285714  0.00000000       0.005
   0.28571429  0.28571429  0.00000000       0.005
   0.42857143  0.28571429  0.00000000       0.010
  -0.42857143  0.28571429  0.00000000       0.010
  -0.28571429  0.28571429  0.00000000       0.005
   0.42857143  0.42857143  0.00000000       0.005
  -0.42857143  0.42857143  0.00000000       0.005
   0.00000000 -0.00000000  0.12500000       0.005
   0.14285714 -0.00000000  0.12500000       0.010
   0.28571429  0.00000000  0.12500000       0.010
   0.42857143  0.00000000  0.12500000       0.010
  -0.42857143  0.00000000  0.12500000       0.010
  -0.28571429 -0.00000000  0.12500000       0.010
  -0.14285714 -0.00000000  0.12500000       0.010
   0.14285714  0.14285714  0.12500000       0.005
   0.28571429  0.14285714  0.12500000       0.010
   0.42857143  0.14285714  0.12500000       0.010
  -0.42857143  0.14285714  0.12500000       0.010
  -0.28571429  0.14285714  0.12500000       0.010
  -0.14285714  0.14285714  0.12500000       0.010
   0.28571429  0.28571429  0.12500000       0.005
   0.42857143  0.28571429  0.12500000       0.010
  -0.42857143  0.28571429  0.12500000       0.010
  -0.28571429  0.28571429  0.12500000       0.010
  -0.14285714  0.28571429  0.12500000       0.010
   0.42857143  0.42857143  0.12500000       0.005
  -0.42857143  0.42857143  0.12500000       0.010
  -0.28571429  0.42857143  0.12500000       0.010
  -0.14285714  0.42857143  0.12500000       0.010
  -0.42857143 -0.42857143  0.12500000       0.005
  -0.28571429 -0.42857143  0.12500000       0.010
  -0.14285714 -0.42857143  0.12500000       0.010
  -0.28571429 -0.28571429  0.12500000       0.005
  -0.14285714 -0.28571429  0.12500000       0.010
  -0.14285714 -0.14285714  0.12500000       0.005
   0.00000000 -0.00000000  0.25000000       0.005
   0.14285714 -0.00000000  0.25000000       0.010
   0.28571429 -0.00000000  0.25000000       0.010
   0.42857143 -0.00000000  0.25000000       0.010
  -0.42857143 -0.00000000  0.25000000       0.010
  -0.28571429 -0.00000000  0.25000000       0.010
  -0.14285714 -0.00000000  0.25000000       0.010
   0.14285714  0.14285714  0.25000000       0.005
   0.28571429  0.14285714  0.25000000       0.010
   0.42857143  0.14285714  0.25000000       0.010
  -0.42857143  0.14285714  0.25000000       0.010
  -0.28571429  0.14285714  0.25000000       0.010
  -0.14285714  0.14285714  0.25000000       0.010
   0.28571429  0.28571429  0.25000000       0.005
   0.42857143  0.28571429  0.25000000       0.010
  -0.42857143  0.28571429  0.25000000       0.010
  -0.28571429  0.28571429  0.25000000       0.010
  -0.14285714  0.28571429  0.25000000       0.010
   0.42857143  0.42857143  0.25000000       0.005
  -0.42857143  0.42857143  0.25000000       0.010
  -0.28571429  0.42857143  0.25000000       0.010
  -0.14285714  0.42857143  0.25000000       0.010
  -0.42857143 -0.42857143  0.25000000       0.005
  -0.28571429 -0.42857143  0.25000000       0.010
  -0.14285714 -0.42857143  0.25000000       0.010
  -0.28571429 -0.28571429  0.25000000       0.005
  -0.14285714 -0.28571429  0.25000000       0.010
  -0.14285714 -0.14285714  0.25000000       0.005
   0.00000000 -0.00000000  0.37500000       0.005
   0.14285714  0.00000000  0.37500000       0.010
   0.28571429  0.00000000  0.37500000       0.010
   0.42857143 -0.00000000  0.37500000       0.010
  -0.42857143 -0.00000000  0.37500000       0.010
  -0.28571429 -0.00000000  0.37500000       0.010
  -0.14285714 -0.00000000  0.37500000       0.010
   0.14285714  0.14285714  0.37500000       0.005
   0.28571429  0.14285714  0.37500000       0.010
   0.42857143  0.14285714  0.37500000       0.010
  -0.42857143  0.14285714  0.37500000       0.010
  -0.28571429  0.14285714  0.37500000       0.010
  -0.14285714  0.14285714  0.37500000       0.010
   0.28571429  0.28571429  0.37500000       0.005
   0.42857143  0.28571429  0.37500000       0.010
  -0.42857143  0.28571429  0.37500000       0.010
  -0.28571429  0.28571429  0.37500000       0.010
  -0.14285714  0.28571429  0.37500000       0.010
   0.42857143  0.42857143  0.37500000       0.005
  -0.42857143  0.42857143  0.37500000       0.010
  -0.28571429  0.42857143  0.37500000       0.010
  -0.14285714  0.42857143  0.37500000       0.010
  -0.42857143 -0.42857143  0.37500000       0.005
  -0.28571429 -0.42857143  0.37500000       0.010
  -0.14285714 -0.42857143  0.37500000       0.010
  -0.28571429 -0.28571429  0.37500000       0.005
  -0.14285714 -0.28571429  0.37500000       0.010
  -0.14285714 -0.14285714  0.37500000       0.005
   0.00000000 -0.00000000  0.50000000       0.003
   0.14285714 -0.00000000  0.50000000       0.010
   0.28571429 -0.00000000  0.50000000       0.010
   0.42857143 -0.00000000  0.50000000       0.010
   0.14285714  0.14285714  0.50000000       0.005
   0.28571429  0.14285714  0.50000000       0.010
   0.42857143  0.14285714  0.50000000       0.010
  -0.42857143  0.14285714  0.50000000       0.010
  -0.28571429  0.14285714  0.50000000       0.010
  -0.14285714  0.14285714  0.50000000       0.005
   0.28571429  0.28571429  0.50000000       0.005
   0.42857143  0.28571429  0.50000000       0.010
  -0.42857143  0.28571429  0.50000000       0.010
  -0.28571429  0.28571429  0.50000000       0.005
   0.42857143  0.42857143  0.50000000       0.005
  -0.42857143  0.42857143  0.50000000       0.005
 
 position of ions in fractional coordinates (direct lattice) 
   0.75000000  0.25000000  0.50000000
   0.25000000  0.75000000  0.50000000
   0.00000000  0.50000000  0.50000000
   0.25000000  0.25000000  0.00000000
   0.75000000  0.75000000  0.00000000
   0.50000000  0.00000000  0.50000000
   0.50000000  0.50000000  0.00000000
   0.00000000  0.00000000  0.00000000
 
 position of ions in cartesian coordinates  (Angst):
   3.75722405  1.32687917  0.29144609
  -0.17851048  3.98063750  0.29144609
  -1.07318888  2.65375833  1.75269305
   0.89467839  1.32687917 -1.46124695
   2.68403518  3.98063750 -4.38374086
   2.86254566  0.00000000  1.75269305
   1.78935679  2.65375833 -2.92249391
   0.00000000  0.00000000  0.00000000
 


--------------------------------------------------------------------------------------------------------


 k-point   1 :   0.0000 0.0000 0.0000  plane waves:    6501
 k-point   2 :   0.1429 0.0000 0.0000  plane waves:    6505
 k-point   3 :   0.2857 0.0000 0.0000  plane waves:    6532
 k-point   4 :   0.4286 0.0000 0.0000  plane waves:    6539
 k-point   5 :   0.1429 0.1429 0.0000  plane waves:    6494
 k-point   6 :   0.2857 0.1429 0.0000  plane waves:    6520
 k-point   7 :   0.4286 0.1429 0.0000  plane waves:    6514
 k-point   8 :  -0.4286 0.1429 0.0000  plane waves:    6527
 k-point   9 :  -0.2857 0.1429 0.0000  plane waves:    6520
 k-point  10 :  -0.1429 0.1429 0.0000  plane waves:    6523
 k-point  11 :   0.2857 0.2857 0.0000  plane waves:    6504
 k-point  12 :   0.4286 0.2857 0.0000  plane waves:    6499
 k-point  13 :  -0.4286 0.2857 0.0000  plane waves:    6523
 k-point  14 :  -0.2857 0.2857 0.0000  plane waves:    6515
 k-point  15 :   0.4286 0.4286 0.0000  plane waves:    6514
 k-point  16 :  -0.4286 0.4286 0.0000  plane waves:    6523
 k-point  17 :   0.0000-0.0000 0.1250  plane waves:    6523
 k-point  18 :   0.1429-0.0000 0.1250  plane waves:    6516
 k-point  19 :   0.2857 0.0000 0.1250  plane waves:    6523
 k-point  20 :   0.4286 0.0000 0.1250  plane waves:    6521
 k-point  21 :  -0.4286 0.0000 0.1250  plane waves:    6522
 k-point  22 :  -0.2857-0.0000 0.1250  plane waves:    6497
 k-point  23 :  -0.1429-0.0000 0.1250  plane waves:    6502
 k-point  24 :   0.1429 0.1429 0.1250  plane waves:    6510
 k-point  25 :   0.2857 0.1429 0.1250  plane waves:    6502
 k-point  26 :   0.4286 0.1429 0.1250  plane waves:    6500
 k-point  27 :  -0.4286 0.1429 0.1250  plane waves:    6508
 k-point  28 :  -0.2857 0.1429 0.1250  plane waves:    6518
 k-point  29 :  -0.1429 0.1429 0.1250  plane waves:    6522
 k-point  30 :   0.2857 0.2857 0.1250  plane waves:    6505
 k-point  31 :   0.4286 0.2857 0.1250  plane waves:    6502
 k-point  32 :  -0.4286 0.2857 0.1250  plane waves:    6519
 k-point  33 :  -0.2857 0.2857 0.1250  plane waves:    6520
 k-point  34 :  -0.1429 0.2857 0.1250  plane waves:    6517
 k-point  35 :   0.4286 0.4286 0.1250  plane waves:    6506
 k-point  36 :  -0.4286 0.4286 0.1250  plane waves:    6525
 k-point  37 :  -0.2857 0.4286 0.1250  plane waves:    6521
 k-point  38 :  -0.1429 0.4286 0.1250  plane waves:    6521
 k-point  39 :  -0.4286-0.4286 0.1250  plane waves:    6527
 k-point  40 :  -0.2857-0.4286 0.1250  plane waves:    6524
 k-point  41 :  -0.1429-0.4286 0.1250  plane waves:    6530
 k-point  42 :  -0.2857-0.2857 0.1250  plane waves:    6527
 k-point  43 :  -0.1429-0.2857 0.1250  plane waves:    6521
 k-point  44 :  -0.1429-0.1429 0.1250  plane waves:    6483
 k-point  45 :   0.0000-0.0000 0.2500  plane waves:    6515
 k-point  46 :   0.1429-0.0000 0.2500  plane waves:    6515
 k-point  47 :   0.2857-0.0000 0.2500  plane waves:    6514
 k-point  48 :   0.4286-0.0000 0.2500  plane waves:    6510
 k-point  49 :  -0.4286-0.0000 0.2500  plane waves:    6522
 k-point  50 :  -0.2857-0.0000 0.2500  plane waves:    6523
 k-point  51 :  -0.1429-0.0000 0.2500  plane waves:    6517
 k-point  52 :   0.1429 0.1429 0.2500  plane waves:    6500
 k-point  53 :   0.2857 0.1429 0.2500  plane waves:    6507
 k-point  54 :   0.4286 0.1429 0.2500  plane waves:    6506
 k-point  55 :  -0.4286 0.1429 0.2500  plane waves:    6519
 k-point  56 :  -0.2857 0.1429 0.2500  plane waves:    6514
 k-point  57 :  -0.1429 0.1429 0.2500  plane waves:    6505
 k-point  58 :   0.2857 0.2857 0.2500  plane waves:    6507
 k-point  59 :   0.4286 0.2857 0.2500  plane waves:    6501
 k-point  60 :  -0.4286 0.2857 0.2500  plane waves:    6518
 k-point  61 :  -0.2857 0.2857 0.2500  plane waves:    6515
 k-point  62 :  -0.1429 0.2857 0.2500  plane waves:    6525
 k-point  63 :   0.4286 0.4286 0.2500  plane waves:    6519
 k-point  64 :  -0.4286 0.4286 0.2500  plane waves:    6521
 k-point  65 :  -0.2857 0.4286 0.2500  plane waves:    6527
 k-point  66 :  -0.1429 0.4286 0.2500  plane waves:    6522
 k-point  67 :  -0.4286-0.4286 0.2500  plane waves:    6533
 k-point  68 :  -0.2857-0.4286 0.2500  plane waves:    6540
 k-point  69 :  -0.1429-0.4286 0.2500  plane waves:    6529
 k-point  70 :  -0.2857-0.2857 0.2500  plane waves:    6529
 k-point  71 :  -0.1429-0.2857 0.2500  plane waves:    6517
 k-point  72 :  -0.1429-0.1429 0.2500  plane waves:    6502
 k-point  73 :   0.0000-0.0000 0.3750  plane waves:    6521
 k-point  74 :   0.1429 0.0000 0.3750  plane waves:    6508
 k-point  75 :   0.2857 0.0000 0.3750  plane waves:    6499
 k-point  76 :   0.4286-0.0000 0.3750  plane waves:    6516
 k-point  77 :  -0.4286-0.0000 0.3750  plane waves:    6527
 k-point  78 :  -0.2857-0.0000 0.3750  plane waves:    6520
 k-point  79 :  -0.1429-0.0000 0.3750  plane waves:    6519
 k-point  80 :   0.1429 0.1429 0.3750  plane waves:    6507
 k-point  81 :   0.2857 0.1429 0.3750  plane waves:    6503
 k-point  82 :   0.4286 0.1429 0.3750  plane waves:    6506
 k-point  83 :  -0.4286 0.1429 0.3750  plane waves:    6523
 k-point  84 :  -0.2857 0.1429 0.3750  plane waves:    6523
 k-point  85 :  -0.1429 0.1429 0.3750  plane waves:    6514
 k-point  86 :   0.2857 0.2857 0.3750  plane waves:    6496
 k-point  87 :   0.4286 0.2857 0.3750  plane waves:    6518
 k-point  88 :  -0.4286 0.2857 0.3750  plane waves:    6535
 k-point  89 :  -0.2857 0.2857 0.3750  plane waves:    6533
 k-point  90 :  -0.1429 0.2857 0.3750  plane waves:    6515
 k-point  91 :   0.4286 0.4286 0.3750  plane waves:    6537
 k-point  92 :  -0.4286 0.4286 0.3750  plane waves:    6515
 k-point  93 :  -0.2857 0.4286 0.3750  plane waves:    6530
 k-point  94 :  -0.1429 0.4286 0.3750  plane waves:    6523
 k-point  95 :  -0.4286-0.4286 0.3750  plane waves:    6526
 k-point  96 :  -0.2857-0.4286 0.3750  plane waves:    6544
 k-point  97 :  -0.1429-0.4286 0.3750  plane waves:    6534
 k-point  98 :  -0.2857-0.2857 0.3750  plane waves:    6538
 k-point  99 :  -0.1429-0.2857 0.3750  plane waves:    6525
 k-point 100 :  -0.1429-0.1429 0.3750  plane waves:    6517
 k-point 101 :   0.0000-0.0000 0.5000  plane waves:    6502
 k-point 102 :   0.1429-0.0000 0.5000  plane waves:    6511
 k-point 103 :   0.2857-0.0000 0.5000  plane waves:    6517
 k-point 104 :   0.4286-0.0000 0.5000  plane waves:    6517
 k-point 105 :   0.1429 0.1429 0.5000  plane waves:    6505
 k-point 106 :   0.2857 0.1429 0.5000  plane waves:    6519
 k-point 107 :   0.4286 0.1429 0.5000  plane waves:    6528
 k-point 108 :  -0.4286 0.1429 0.5000  plane waves:    6520
 k-point 109 :  -0.2857 0.1429 0.5000  plane waves:    6514
 k-point 110 :  -0.1429 0.1429 0.5000  plane waves:    6514
 k-point 111 :   0.2857 0.2857 0.5000  plane waves:    6515
 k-point 112 :   0.4286 0.2857 0.5000  plane waves:    6534
 k-point 113 :  -0.4286 0.2857 0.5000  plane waves:    6529
 k-point 114 :  -0.2857 0.2857 0.5000  plane waves:    6542
 k-point 115 :   0.4286 0.4286 0.5000  plane waves:    6526
 k-point 116 :  -0.4286 0.4286 0.5000  plane waves:    6544

 maximum and minimum number of plane-waves per node :      3294     3223

 maximum number of plane-waves:      6544
 maximum index in each direction: 
   IXMAX=   13   IYMAX=   13   IZMAX=   12
   IXMIN=  -13   IYMIN=  -13   IZMIN=  -13


 parallel 3D FFT for wavefunctions:
    minimum data exchange during FFTs selected (reduces bandwidth)
 parallel 3D FFT for charge:
    minimum data exchange during FFTs selected (reduces bandwidth)


 total amount of memory used by VASP MPI-rank0   356098. kBytes
=======================================================================

   base      :      30000. kBytes
   nonl-proj :     164887. kBytes
   fftplans  :      17768. kBytes
   grid      :      13358. kBytes
   one-center:         62. kBytes
   wavefun   :     130023. kBytes
 
     INWAV:  cpu time    0.0001: real time    0.0001
 Broyden mixing: mesh for mixing (old mesh)
   NGX = 25   NGY = 25   NGZ = 25
  (NGX  =108   NGY  =108   NGZ  =108)
  gives a total of  15625 points

 initial charge density was supplied:
 charge density of overlapping atoms calculated
 number of electron      70.0000000 magnetization 
 keeping initial charge density in first step


--------------------------------------------------------------------------------------------------------


 Maximum index for augmentation-charges        22883 (set IRDMAX)


--------------------------------------------------------------------------------------------------------


 First call to EWALD:  gamma=   0.305
 Maximum number of real-space cells 3x 3x 3
 Maximum number of reciprocal cells 3x 3x 3

    FEWALD:  cpu time    0.0046: real time    0.0046


--------------------------------------- Iteration      1(   1)  ---------------------------------------


    POTLOK:  cpu time    0.2215: real time    0.2246
    SETDIJ:  cpu time    0.6708: real time    0.6777
    TRIAL :  cpu time   21.0073: real time   21.7017
    CORREC:  cpu time    0.0013: real time    0.0013
    --------------------------------------------
      LOOP:  cpu time   21.9503: real time   22.6599

 eigenvalue-minimisations  : 11136
 total energy-change (2. order) : 0.5886671E+03  (-0.4450222E+04)
 number of electron      70.0000000 magnetization 
 augmentation part       70.0000000 magnetization 

 Free energy of the ion-electron system (eV)
  ---------------------------------------------------
  alpha Z        PSCENC =       211.17367819
  Ewald energy   TEWEN  =     -5087.25804347
  -Hartree energ DENC   =     -2239.21347689
  -exchange      EXHF   =         0.00000000
  -V(xc)+E(xc)   XCENC  =       303.05424777
  PAW double counting   =      6194.65714934    -6160.44322926
  entropy T*S    EENTRO =        -0.00057687
  eigenvalues    EBANDS =      -430.90509916
  atomic energy  EATOM  =      7797.60240368
  ---------------------------------------------------
  free energy    TOTEN  =       588.66705332 eV

  energy without entropy =      588.66763019  energy(sigma->0) =      588.66734176


--------------------------------------------------------------------------------------------------------




--------------------------------------- Iteration      1(   2)  ---------------------------------------


    TRIAL :  cpu time   21.2546: real time   21.7318
    CORREC:  cpu time    0.0109: real time    0.0110
    --------------------------------------------
      LOOP:  cpu time   21.2677: real time   21.7464

 eigenvalue-minimisations  : 11010
 total energy-change (2. order) :-0.7013324E+03  (-0.6851833E+03)
 number of electron      70.0000000 magnetization 
 augmentation part       70.0000000 magnetization 

 Free energy of the ion-electron system (eV)
  ---------------------------------------------------
  alpha Z        PSCENC =       211.17367819
  Ewald energy   TEWEN  =     -5087.25804347
  -Hartree energ DENC   =     -2239.21347689
  -exchange      EXHF   =         0.00000000
  -V(xc)+E(xc)   XCENC  =       303.05424777
  PAW double counting   =      6194.65714934    -6160.44322926
  entropy T*S    EENTRO =        -0.00200150
  eigenvalues    EBANDS =     -1132.23607598
  atomic energy  EATOM  =      7797.60240368
  ---------------------------------------------------
  free energy    TOTEN  =      -112.66534813 eV

  energy without entropy =     -112.66334663  energy(sigma->0) =     -112.66434738


--------------------------------------------------------------------------------------------------------




--------------------------------------- Iteration      1(   3)  ---------------------------------------


    TRIAL :  cpu time   26.9412: real time   27.5502
    CORREC:  cpu time    0.0015: real time    0.0015
    --------------------------------------------
      LOOP:  cpu time   26.9440: real time   27.5547

 eigenvalue-minimisations  : 13458
 total energy-change (2. order) :-0.3354228E+02  (-0.3202176E+02)
 number of electron      70.0000000 magnetization 
 augmentation part       70.0000000 magnetization 

 Free energy of the ion-electron system (eV)
  ---------------------------------------------------
  alpha Z        PSCENC =       211.17367819
  Ewald energy   TEWEN  =     -5087.25804347
  -Hartree energ DENC   =     -2239.21347689
  -exchange      EXHF   =         0.00000000
  -V(xc)+E(xc)   XCENC  =       303.05424777
  PAW double counting   =      6194.65714934    -6160.44322926
  entropy T*S    EENTRO =        -0.00195090
  eigenvalues    EBANDS =     -1165.77840494
  atomic energy  EATOM  =      7797.60240368
  ---------------------------------------------------
  free energy    TOTEN  =      -146.20762649 eV

  energy without entropy =     -146.20567559  energy(sigma->0) =     -146.20665104


--------------------------------------------------------------------------------------------------------




--------------------------------------- Iteration      1(   4)  ---------------------------------------


    TRIAL :  cpu time   26.8861: real time   27.4398
    CORREC:  cpu time    0.0015: real time    0.0015
    --------------------------------------------
      LOOP:  cpu time   26.8888: real time   27.4442

 eigenvalue-minimisations  : 13524
 total energy-change (2. order) :-0.1320350E+01  (-0.1248137E+01)
 number of electron      70.0000000 magnetization 
 augmentation part       70.0000000 magnetization 

 Free energy of the ion-electron system (eV)
  ---------------------------------------------------
  alpha Z        PSCENC =       211.17367819
  Ewald energy   TEWEN  =     -5087.25804347
  -Hartree energ DENC   =     -2239.21347689
  -exchange      EXHF   =         0.00000000
  -V(xc)+E(xc)   XCENC  =       303.05424777
  PAW double counting   =      6194.65714934    -6160.44322926
  entropy T*S    EENTRO =        -0.00234739
  eigenvalues    EBANDS =     -1167.09835849
  atomic energy  EATOM  =      7797.60240368
  ---------------------------------------------------
  free energy    TOTEN  =      -147.52797653 eV

  energy without entropy =     -147.52562914  energy(sigma->0) =     -147.52680283


--------------------------------------------------------------------------------------------------------




--------------------------------------- Iteration      1(   5)  ---------------------------------------


    TRIAL :  cpu time   27.9414: real time   28.5259
    CORREC:  cpu time    0.0104: real time    0.0105
    CHARGE:  cpu time    1.7282: real time    1.7427
    --------------------------------------------
      LOOP:  cpu time   29.6812: real time   30.2819

 eigenvalue-minimisations  : 14454
 total energy-change (2. order) :-0.7057109E-01  (-0.6593548E-01)
 number of electron      70.0000001 magnetization 
 augmentation part        7.6865448 magnetization 

 Free energy of the ion-electron system (eV)
  ---------------------------------------------------
  alpha Z        PSCENC =       211.17367819
  Ewald energy   TEWEN  =     -5087.25804347
  -Hartree energ DENC   =     -2239.21347689
  -exchange      EXHF   =         0.00000000
  -V(xc)+E(xc)   XCENC  =       303.05424777
  PAW double counting   =      6194.65714934    -6160.44322926
  entropy T*S    EENTRO =        -0.00246029
  eigenvalues    EBANDS =     -1167.16881669
  atomic energy  EATOM  =      7797.60240368
  ---------------------------------------------------
  free energy    TOTEN  =      -147.59854762 eV

  energy without entropy =     -147.59608733  energy(sigma->0) =     -147.59731748


--------------------------------------------------------------------------------------------------------




--------------------------------------- Iteration      1(   6)  ---------------------------------------


    POTLOK:  cpu time    0.1769: real time    0.1783
    SETDIJ:  cpu time    0.6149: real time    0.6186
    TRIAL :  cpu time   18.4279: real time   18.7132
    CORREC:  cpu time    6.9852: real time    7.0460
    CHARGE:  cpu time    1.7975: real time    1.8121
    --------------------------------------------
      LOOP:  cpu time   28.0036: real time   28.3699

 eigenvalue-minimisations  :     0
 total energy-change (2. order) : 0.5951691E+02  (-0.1913855E+02)
 number of electron      70.0000001 magnetization 
 augmentation part        9.1769774 magnetization 

 Free energy of the ion-electron system (eV)
  ---------------------------------------------------
  alpha Z        PSCENC =       211.17367819
  Ewald energy   TEWEN  =     -5087.25804347
  -Hartree energ DENC   =     -1878.62024770
  -exchange      EXHF   =         0.00000000
  -V(xc)+E(xc)   XCENC  =       297.17782902
  PAW double counting   =      7299.70823443    -7293.88321838
  entropy T*S    EENTRO =        -0.00257400
  eigenvalues    EBANDS =     -1433.97981072
  atomic energy  EATOM  =      7797.60240368
  ---------------------------------------------------
  free energy    TOTEN  =       -88.08163524 eV

  energy without entropy =      -88.07906125  energy(sigma->0) =      -88.08034824


--------------------------------------------------------------------------------------------------------




--------------------------------------- Iteration      1(   7)  ---------------------------------------


    POTLOK:  cpu time    0.1521: real time    0.1531
    SETDIJ:  cpu time    0.6143: real time    0.6192
    TRIAL :  cpu time   19.6186: real time   19.8455
    CORREC:  cpu time    6.2542: real time    6.3114
    CHARGE:  cpu time    1.9537: real time    1.9673
    --------------------------------------------
      LOOP:  cpu time   28.5935: real time   28.8984

 eigenvalue-minimisations  :     0
 total energy-change (2. order) :-0.2123782E+02  (-0.4869954E+01)
 number of electron      70.0000000 magnetization 
 augmentation part        9.5179613 magnetization 

 Free energy of the ion-electron system (eV)
  ---------------------------------------------------
  alpha Z        PSCENC =       211.17367819
  Ewald energy   TEWEN  =     -5087.25804347
  -Hartree energ DENC   =     -2073.59690432
  -exchange      EXHF   =         0.00000000
  -V(xc)+E(xc)   XCENC  =       305.75907373
  PAW double counting   =      7316.51101070    -7297.82435685
  entropy T*S    EENTRO =        -0.00170213
  eigenvalues    EBANDS =     -1281.68374204
  atomic energy  EATOM  =      7797.60240368
  ---------------------------------------------------
  free energy    TOTEN  =      -109.31945438 eV

  energy without entropy =     -109.31775225  energy(sigma->0) =     -109.31860331


--------------------------------------------------------------------------------------------------------




--------------------------------------- Iteration      1(   8)  ---------------------------------------


    POTLOK:  cpu time    0.3116: real time    0.3143
    SETDIJ:  cpu time    0.4297: real time    0.4329
    TRIAL :  cpu time   19.8139: real time   20.1135
    CORREC:  cpu time    6.6019: real time    6.9804
    CHARGE:  cpu time    2.0755: real time    2.0911
    --------------------------------------------
      LOOP:  cpu time   29.2726: real time   29.9734

 eigenvalue-minimisations  :     0
 total energy-change (2. order) :-0.4936858E+01  (-0.9909530E+00)
 number of electron      70.0000000 magnetization 
 augmentation part        9.3926087 magnetization 

 Free energy of the ion-electron system (eV)
  ---------------------------------------------------
  alpha Z        PSCENC =       211.17367819
  Ewald energy   TEWEN  =     -5087.25804347
  -Hartree energ DENC   =     -2161.25765595
  -exchange      EXHF   =         0.00000000
  -V(xc)+E(xc)   XCENC  =       309.25833821
  PAW double counting   =      7408.34481570    -7382.87838926
  entropy T*S    EENTRO =        -0.00156283
  eigenvalues    EBANDS =     -1209.23975736
  atomic energy  EATOM  =      7797.60240368
  ---------------------------------------------------
  free energy    TOTEN  =      -114.25631240 eV

  energy without entropy =     -114.25474958  energy(sigma->0) =     -114.25553099


--------------------------------------------------------------------------------------------------------




--------------------------------------- Iteration      1(   9)  ---------------------------------------


    POTLOK:  cpu time    0.1544: real time    0.1554
    SETDIJ:  cpu time    0.6106: real time    0.6144
    TRIAL :  cpu time   21.2233: real time   21.6434
    CORREC:  cpu time    7.6756: real time    7.7595
    CHARGE:  cpu time    1.8004: real time    1.8131
    --------------------------------------------
      LOOP:  cpu time   31.4653: real time   31.9875

 eigenvalue-minimisations  :     0
 total energy-change (2. order) :-0.9934565E+00  (-0.3945707E+00)
 number of electron      70.0000000 magnetization 
 augmentation part        9.3244829 magnetization 

 Free energy of the ion-electron system (eV)
  ---------------------------------------------------
  alpha Z        PSCENC =       211.17367819
  Ewald energy   TEWEN  =     -5087.25804347
  -Hartree energ DENC   =     -2155.97447165
  -exchange      EXHF   =         0.00000000
  -V(xc)+E(xc)   XCENC  =       308.86664198
  PAW double counting   =      7441.88222963    -7415.39642787
  entropy T*S    EENTRO =        -0.00233225
  eigenvalues    EBANDS =     -1216.14421658
  atomic energy  EATOM  =      7797.60240368
  ---------------------------------------------------
  free energy    TOTEN  =      -115.24976893 eV

  energy without entropy =     -115.24743668  energy(sigma->0) =     -115.24860280


--------------------------------------------------------------------------------------------------------




--------------------------------------- Iteration      1(  10)  ---------------------------------------


    POTLOK:  cpu time    0.1501: real time    0.1510
    SETDIJ:  cpu time    0.6253: real time    0.6297
    TRIAL :  cpu time   20.7220: real time   20.9283
    CORREC:  cpu time    6.7816: real time    6.8408
    CHARGE:  cpu time    1.8736: real time    1.8871
    --------------------------------------------
      LOOP:  cpu time   30.1538: real time   30.4392

 eigenvalue-minimisations  :     0
 total energy-change (2. order) :-0.3960715E+00  (-0.1835549E+00)
 number of electron      70.0000000 magnetization 
 augmentation part        9.3301490 magnetization 

 Free energy of the ion-electron system (eV)
  ---------------------------------------------------
  alpha Z        PSCENC =       211.17367819
  Ewald energy   TEWEN  =     -5087.25804347
  -Hartree energ DENC   =     -2152.84967370
  -exchange      EXHF   =         0.00000000
  -V(xc)+E(xc)   XCENC  =       308.72285347
  PAW double counting   =      7476.57054216    -7449.36562553
  entropy T*S    EENTRO =        -0.00299964
  eigenvalues    EBANDS =     -1220.23964297
  atomic energy  EATOM  =      7797.60240368
  ---------------------------------------------------
  free energy    TOTEN  =      -115.64584041 eV

  energy without entropy =     -115.64284078  energy(sigma->0) =     -115.64434059


--------------------------------------------------------------------------------------------------------




--------------------------------------- Iteration      1(  11)  ---------------------------------------


    POTLOK:  cpu time    0.1957: real time    0.1969
    SETDIJ:  cpu time    0.5623: real time    0.5659
    TRIAL :  cpu time   21.0277: real time   21.3048
    CORREC:  cpu time    7.1906: real time    7.4278
    CHARGE:  cpu time    1.8230: real time    1.8359
    --------------------------------------------
      LOOP:  cpu time   30.8036: real time   31.3369

 eigenvalue-minimisations  :     0
 total energy-change (2. order) :-0.2029744E+00  (-0.1316510E+00)
 number of electron      70.0000000 magnetization 
 augmentation part        9.3736461 magnetization 

 Free energy of the ion-electron system (eV)
  ---------------------------------------------------
  alpha Z        PSCENC =       211.17367819
  Ewald energy   TEWEN  =     -5087.25804347
  -Hartree energ DENC   =     -2157.23468928
  -exchange      EXHF   =         0.00000000
  -V(xc)+E(xc)   XCENC  =       308.91939182
  PAW double counting   =      7505.42863743    -7477.52242440
  entropy T*S    EENTRO =        -0.00306307
  eigenvalues    EBANDS =     -1216.95476915
  atomic energy  EATOM  =      7797.60240368
  ---------------------------------------------------
  free energy    TOTEN  =      -115.84881482 eV

  energy without entropy =     -115.84575175  energy(sigma->0) =     -115.84728329


--------------------------------------------------------------------------------------------------------




[...]
      1     -59.0716      2.00000
      2     -59.0716      2.00000
      3     -58.9309      2.00000
      4     -58.9305      2.00000
      5     -32.4684      2.00000
      6     -32.4678      2.00000
      7     -32.4663      2.00000
      8     -32.4660      2.00000
      9     -32.4136      2.00000
     10     -32.4081      2.00000
     11     -32.3743      2.00000
     12     -32.3736      2.00000
     13     -32.3720      2.00000
     14     -32.3716      2.00000
     15     -32.3328      2.00000
     16     -32.3327      2.00000
     17      -4.2201      2.00000
     18      -3.6113      2.00000
     19      -2.6145      2.00000
     20      -2.3036      2.00000
     21       0.7456      2.00000
     22       1.1045      2.00000
     23       1.1271      2.00000
     24       1.5072      2.00000
     25       1.5851      2.00000
     26       1.6933      2.00000
     27       1.8789      2.00000
     28       1.9409      2.00000
     29       2.1262      2.00000
     30       2.2944      2.00000
     31       2.3517      2.00000
     32       2.6632      2.00000
     33       3.5772      2.00000
     34       3.6553      2.00000
     35       4.0335      1.99970
     36       4.1936      0.00000
     37       4.2051      0.00000
     38       4.2452      0.00000
     39       4.4456      0.00000
     40       4.5145      0.00000
     41       4.9753      0.00000
     42       5.2869      0.00000

 k-point   107 :       0.4286    0.1429    0.5000
  band No.  band energies     occupation 
      1     -59.0716      2.00000
      2     -59.0715      2.00000
      3     -58.9309      2.00000
      4     -58.9305      2.00000
      5     -32.4678      2.00000
      6     -32.4673      2.00000
      7     -32.4673      2.00000
      8     -32.4662      2.00000
      9     -32.4143      2.00000
     10     -32.4080      2.00000
     11     -32.3734      2.00000
     12     -32.3733      2.00000
     13     -32.3718      2.00000
     14     -32.3717      2.00000
     15     -32.3332      2.00000
     16     -32.3330      2.00000
     17      -4.0340      2.00000
     18      -3.8737      2.00000
     19      -2.6276      2.00000
     20      -2.2617      2.00000
     21       0.9619      2.00000
     22       1.0542      2.00000
     23       1.2438      2.00000
     24       1.3395      2.00000
     25       1.5397      2.00000
     26       1.7816      2.00000
     27       1.9070      2.00000
     28       2.1404      2.00000
     29       2.1572      2.00000
     30       2.1772      2.00000
     31       2.3445      2.00000
     32       2.7332      2.00000
     33       3.5174      2.00000
     34       3.7474      2.00000
     35       3.9708      2.00000
     36       4.0567      1.95124
     37       4.2020      0.00000
     38       4.2569      0.00000
     39       4.4282      0.00000
     40       4.5671      0.00000
     41       5.0840      0.00000
     42       5.1546      0.00000

 k-point   108 :      -0.4286    0.1429    0.5000
  band No.  band energies     occupation 
      1     -59.0716      2.00000
      2     -59.0715      2.00000
      3     -58.9312      2.00000
      4     -58.9302      2.00000
      5     -32.4682      2.00000
      6     -32.4674      2.00000
      7     -32.4673      2.00000
      8     -32.4659      2.00000
      9     -32.4195      2.00000
     10     -32.4026      2.00000
     11     -32.3737      2.00000
     12     -32.3729      2.00000
     13     -32.3719      2.00000
     14     -32.3715      2.00000
     15     -32.3333      2.00000
     16     -32.3329      2.00000
     17      -4.3385      2.00000
     18      -3.4001      2.00000
     19      -2.8843      2.00000
     20      -1.8920      2.00000
     21       0.4517      2.00000
     22       1.0479      2.00000
     23       1.1745      2.00000
     24       1.2768      2.00000
     25       1.3743      2.00000
     26       1.4404      2.00000
     27       1.8095      2.00000
     28       1.9808      2.00000
     29       2.1662      2.00000
     30       2.3647      2.00000
     31       2.8480      2.00000
     32       3.0537      2.00000
     33       3.6097      2.00000
     34       3.8893      2.00000
     35       3.9372      2.00000
     36       3.9832      2.00000
     37       4.1136      0.03996
     38       4.2427      0.00000
     39       4.4884      0.00000
     40       4.6020      0.00000
     41       5.0983      0.00000
     42       5.2326      0.00000

 k-point   109 :      -0.2857    0.1429    0.5000
  band No.  band energies     occupation 
      1     -59.0716      2.00000
      2     -59.0715      2.00000
      3     -58.9314      2.00000
      4     -58.9300      2.00000
      5     -32.4688      2.00000
      6     -32.4682      2.00000
      7     -32.4670      2.00000
      8     -32.4653      2.00000
      9     -32.4222      2.00000
     10     -32.3986      2.00000
     11     -32.3749      2.00000
     12     -32.3729      2.00000
     13     -32.3719      2.00000
     14     -32.3716      2.00000
     15     -32.3335      2.00000
     16     -32.3323      2.00000
     17      -4.5134      2.00000
     18      -3.0663      2.00000
     19      -2.8666      2.00000
     20      -1.5704      2.00000
     21      -0.0644      2.00000
     22       0.5248      2.00000
     23       0.9985      2.00000
     24       1.0562      2.00000
     25       1.4021      2.00000
     26       1.5492      2.00000
     27       1.6413      2.00000
     28       1.8423      2.00000
     29       2.3967      2.00000
     30       2.5410      2.00000
     31       2.9499      2.00000
     32       2.9875      2.00000
     33       3.8011      2.00000
     34       3.8023      2.00000
     35       4.0471      1.99202
     36       4.0479      1.99049
     37       4.1455      0.00002
     38       4.1802      0.00000
     39       4.2724      0.00000
     40       4.4915      0.00000
     41       5.2758      0.00000
     42       5.4420      0.00000

 k-point   110 :      -0.1429    0.1429    0.5000
  band No.  band energies     occupation 
      1     -59.0716      2.00000
      2     -59.0715      2.00000
      3     -58.9315      2.00000
      4     -58.9299      2.00000
      5     -32.4702      2.00000
      6     -32.4679      2.00000
      7     -32.4665      2.00000
      8     -32.4651      2.00000
      9     -32.4225      2.00000
     10     -32.3973      2.00000
     11     -32.3761      2.00000
     12     -32.3731      2.00000
     13     -32.3718      2.00000
     14     -32.3718      2.00000
     15     -32.3336      2.00000
     16     -32.3314      2.00000
     17      -4.5753      2.00000
     18      -3.1468      2.00000
     19      -2.5273      2.00000
     20      -1.3734      2.00000
     21      -0.2513      2.00000
     22       0.0609      2.00000
     23       0.8541      2.00000
     24       0.9744      2.00000
     25       1.3696      2.00000
     26       1.4504      2.00000
     27       1.7550      2.00000
     28       1.7734      2.00000
     29       2.5350      2.00000
     30       2.6197      2.00000
     31       2.8216      2.00000
     32       2.8856      2.00000
     33       3.6518      2.00000
     34       3.9740      2.00000
     35       3.9876      2.00000
     36       4.0570      1.94919
     37       4.1400      0.00009
     38       4.1850      0.00000
     39       4.3564      0.00000
     40       4.5454      0.00000
     41       5.6245      0.00000
     42       5.8124      0.00000

 k-point   111 :       0.2857    0.2857    0.5000
  band No.  band energies     occupation 
      1     -59.0716      2.00000
      2     -59.0715      2.00000
      3     -58.9308      2.00000
      4     -58.9305      2.00000
      5     -32.4682      2.00000
      6     -32.4674      2.00000
      7     -32.4672      2.00000
      8     -32.4657      2.00000
      9     -32.4144      2.00000
     10     -32.4080      2.00000
     11     -32.3732      2.00000
     12     -32.3731      2.00000
     13     -32.3720      2.00000
     14     -32.3715      2.00000
     15     -32.3333      2.00000
     16     -32.3331      2.00000
     17      -3.9826      2.00000
     18      -3.9292      2.00000
     19      -2.6352      2.00000
     20      -2.2599      2.00000
     21       0.9701      2.00000
     22       0.9959      2.00000
     23       1.2004      2.00000
     24       1.4540      2.00000
     25       1.5615      2.00000
     26       1.7917      2.00000
     27       1.9247      2.00000
     28       2.1154      2.00000
     29       2.1699      2.00000
     30       2.2198      2.00000
     31       2.3656      2.00000
     32       2.7350      2.00000
     33       3.3908      2.00000
     34       3.6710      2.00000
     35       4.1493      0.00000
     36       4.1649      0.00000
     37       4.1773      0.00000
     38       4.2285      0.00000
     39       4.3786      0.00000
     40       4.6429      0.00000
     41       5.0240      0.00000
     42       5.1468      0.00000

 k-point   112 :       0.4286    0.2857    0.5000
  band No.  band energies     occupation 
      1     -59.0716      2.00000
      2     -59.0715      2.00000
      3     -58.9312      2.00000
      4     -58.9302      2.00000
      5     -32.4684      2.00000
      6     -32.4681      2.00000
      7     -32.4666      2.00000
      8     -32.4656      2.00000
      9     -32.4203      2.00000
     10     -32.4026      2.00000
     11     -32.3727      2.00000
     12     -32.3723      2.00000
     13     -32.3717      2.00000
     14     -32.3717      2.00000
     15     -32.3337      2.00000
     16     -32.3336      2.00000
     17      -4.2807      2.00000
     18      -3.5238      2.00000
     19      -2.8728      2.00000
     20      -1.9133      2.00000
     21       0.4648      2.00000
     22       1.2212      2.00000
     23       1.2508      2.00000
     24       1.3067      2.00000
     25       1.3394      2.00000
     26       1.3774      2.00000
     27       2.0025      2.00000
     28       2.1015      2.00000
     29       2.2257      2.00000
     30       2.3118      2.00000
     31       2.8492      2.00000
     32       3.0869      2.00000
     33       3.3765      2.00000
     34       3.7057      2.00000
     35       4.0262      1.99996
     36       4.1325      0.00070
     37       4.2275      0.00000
     38       4.2522      0.00000
     39       4.3881      0.00000
     40       4.6113      0.00000
     41       4.8006      0.00000
     42       5.1906      0.00000

 k-point   113 :      -0.4286    0.2857    0.5000
  band No.  band energies     occupation 
      1     -59.0716      2.00000
      2     -59.0715      2.00000
      3     -58.9314      2.00000
      4     -58.9300      2.00000
      5     -32.4688      2.00000
      6     -32.4683      2.00000
      7     -32.4665      2.00000
      8     -32.4654      2.00000
      9     -32.4240      2.00000
     10     -32.3986      2.00000
     11     -32.3728      2.00000
     12     -32.3721      2.00000
     13     -32.3719      2.00000
     14     -32.3714      2.00000
     15     -32.3338      2.00000
     16     -32.3335      2.00000
     17      -4.4690      2.00000
     18      -3.0507      2.00000
     19      -3.0298      2.00000
     20      -1.6929      2.00000
     21      -0.0008      2.00000
     22       0.7658      2.00000
     23       1.1315      2.00000
     24       1.1932      2.00000
     25       1.4224      2.00000
     26       1.5005      2.00000
     27       1.8797      2.00000
     28       1.9910      2.00000
     29       2.4394      2.00000
     30       2.4544      2.00000
     31       2.9821      2.00000
     32       3.1726      2.00000
     33       3.5247      2.00000
     34       3.8530      2.00000
     35       3.8795      2.00000
     36       4.1246      0.00460
     37       4.1507      0.00000
     38       4.2192      0.00000
     39       4.2497      0.00000
     40       4.4479      0.00000
     41       5.1983      0.00000
     42       5.3631      0.00000

 k-point   114 :      -0.2857    0.2857    0.5000
  band No.  band energies     occupation 
      1     -59.0716      2.00000
      2     -59.0715      2.00000
      3     -58.9315      2.00000
      4     -58.9299      2.00000
      5     -32.4686      2.00000
      6     -32.4679      2.00000
      7     -32.4677      2.00000
      8     -32.4652      2.00000
      9     -32.4245      2.00000
     10     -32.3972      2.00000
     11     -32.3739      2.00000
     12     -32.3722      2.00000
     13     -32.3718      2.00000
     14     -32.3716      2.00000
     15     -32.3335      2.00000
     16     -32.3331      2.00000
     17      -4.5406      2.00000
     18      -3.1023      2.00000
     19      -2.7355      2.00000
     20      -1.6128      2.00000
     21      -0.1072      2.00000
     22       0.3782      2.00000
     23       0.9849      2.00000
     24       1.1071      2.00000
     25       1.4750      2.00000
     26       1.6062      2.00000
     27       1.6950      2.00000
     28       1.8960      2.00000
     29       2.5315      2.00000
     30       2.5999      2.00000
     31       2.8581      2.00000
     32       3.0810      2.00000
     33       3.7340      2.00000
     34       3.8449      2.00000
     35       4.0049      2.00000
     36       4.0643      1.84866
     37       4.1400      0.00009
     38       4.1739      0.00000
     39       4.2194      0.00000
     40       4.2720      0.00000
     41       5.5326      0.00000
     42       5.5469      0.00000

 k-point   115 :       0.4286    0.4286    0.5000
  band No.  band energies     occupation 
      1     -59.0717      2.00000
      2     -59.0715      2.00000
      3     -58.9314      2.00000
      4     -58.9300      2.00000
      5     -32.4690      2.00000
      6     -32.4689      2.00000
      7     -32.4657      2.00000
      8     -32.4652      2.00000
      9     -32.4249      2.00000
     10     -32.3986      2.00000
     11     -32.3721      2.00000
     12     -32.3717      2.00000
     13     -32.3716      2.00000
     14     -32.3715      2.00000
     15     -32.3345      2.00000
     16     -32.3336      2.00000
     17      -4.4489      2.00000
     18      -3.1226      2.00000
     19      -3.0134      2.00000
     20      -1.7464      2.00000
     21       0.0240      2.00000
     22       0.8135      2.00000
     23       1.2487      2.00000
     24       1.2699      2.00000
     25       1.4308      2.00000
     26       1.4484      2.00000
     27       2.0428      2.00000
     28       2.0709      2.00000
     29       2.4237      2.00000
     30       2.4260      2.00000
     31       3.0462      2.00000
     32       3.2502      2.00000
     33       3.3945      2.00000
     34       3.7261      2.00000
     35       3.7966      2.00000
     36       4.1319      0.00081
     37       4.2128      0.00000
     38       4.2308      0.00000
     39       4.3300      0.00000
     40       4.4251      0.00000
     41       5.2089      0.00000
     42       5.3677      0.00000

 k-point   116 :      -0.4286    0.4286    0.5000
  band No.  band energies     occupation 
      1     -59.0717      2.00000
      2     -59.0715      2.00000
      3     -58.9314      2.00000
      4     -58.9299      2.00000
      5     -32.4692      2.00000
      6     -32.4690      2.00000
      7     -32.4655      2.00000
      8     -32.4653      2.00000
      9     -32.4263      2.00000
     10     -32.3972      2.00000
     11     -32.3720      2.00000
     12     -32.3719      2.00000
     13     -32.3716      2.00000
     14     -32.3714      2.00000
     15     -32.3346      2.00000
     16     -32.3335      2.00000
     17      -4.5124      2.00000
     18      -3.0662      2.00000
     19      -2.8748      2.00000
     20      -1.7606      2.00000
     21      -0.0406      2.00000
     22       0.5202      2.00000
     23       1.2075      2.00000
     24       1.2299      2.00000
     25       1.4993      2.00000
     26       1.5148      2.00000
     27       2.0033      2.00000
     28       2.0312      2.00000
     29       2.4696      2.00000
     30       2.4769      2.00000
     31       3.0872      2.00000
     32       3.2733      2.00000
     33       3.5282      2.00000
     34       3.6642      2.00000
     35       3.8211      2.00000
     36       4.0365      1.99933
     37       4.2087      0.00000
     38       4.2593      0.00000
     39       4.2759      0.00000
     40       4.3252      0.00000
     41       5.4375      0.00000
     42       5.4636      0.00000


--------------------------------------------------------------------------------------------------------


 soft charge-density along one line, spin component           1
         0         1         2         3         4         5         6         7         8         9
 total charge-density along one line
 
 pseudopotential strength for first ion, spin component:           1
  6.279   9.543  -0.000   0.000   0.000  -0.000   0.000   0.000
  9.543  14.495  -0.000   0.000   0.000  -0.000   0.000   0.000
 -0.000  -0.000  -2.144   0.005  -0.003  -3.624   0.009  -0.006
  0.000   0.000   0.005  -2.145   0.003   0.009  -3.626   0.006
  0.000   0.000  -0.003   0.003  -2.142  -0.006   0.006  -3.619
 -0.000  -0.000  -3.624   0.009  -0.006  -5.918   0.019  -0.011
  0.000   0.000   0.009  -3.626   0.006   0.019  -5.921   0.013
  0.000   0.000  -0.006   0.006  -3.619  -0.011   0.013  -5.908
 total augmentation occupancy for first ion, spin component:           1
  2.749  -0.465   0.000  -0.000   0.000   0.000  -0.000   0.000
 -0.465   0.088  -0.000   0.000  -0.000   0.000   0.000   0.000
  0.000  -0.000   1.543  -0.375   0.229  -0.337   0.091  -0.056
 -0.000  -0.000  -0.375   1.615  -0.253   0.091  -0.355   0.061
  0.000   0.000   0.229  -0.253   1.357  -0.056   0.061  -0.292
 -0.000  -0.000  -0.337   0.091  -0.056   0.077  -0.025   0.015
  0.000  -0.000   0.091  -0.355   0.061  -0.025   0.081  -0.017
  0.000   0.000  -0.056   0.061  -0.292   0.015  -0.017   0.064


------------------------ aborting loop because EDIFF is reached ----------------------------------------




--------------------------------------------------------------------------------------------------------



  FREE ENERGIE OF THE ION-ELECTRON SYSTEM (eV)
  ---------------------------------------------------
  free  energy   TOTEN  =      -116.19024346 eV

  energy  without entropy=     -116.18737800  energy(sigma->0) =     -116.18881073
 


--------------------------------------------------------------------------------------------------------


    POTLOK:  cpu time    0.8109: real time    0.8168


--------------------------------------------------------------------------------------------------------


 writing wavefunctions
     LOOP+:  cpu time 2120.4563: real time 2146.9072
    4ORBIT:  cpu time    0.0000: real time    0.0000

 total amount of memory used by VASP MPI-rank0   356098. kBytes
=======================================================================

   base      :      30000. kBytes
   nonl-proj :     164887. kBytes
   fftplans  :      17768. kBytes
   grid      :      13358. kBytes
   one-center:         62. kBytes
   wavefun   :     130023. kBytes
 
  
  
 General timing and accounting informations for this job:
 ========================================================
  
                  Total CPU time used (sec):     2125.388
                            User time (sec):     2064.490
                          System time (sec):       60.898
                         Elapsed time (sec):     2152.928
  
                   Maximum memory used (kb):      614792.
                   Average memory used (kb):          N/A
  
                          Minor page faults:      9767894
                          Major page faults:           34
                 Voluntary context switches:        11381
