<?xml version="1.0" encoding="ISO-8859-1"?>
<modeling>
 <generator>
  <i name="program" type="string">vasp </i>
  <i name="version" type="string">6.2.0  </i>
  <i name="subversion" type="string">18Jan21 (build Jan 05 2022 15:41:44) complex                          parallel </i>
  <i name="platform" type="string">LinuxIFC </i>
  <i name="date" type="string">2025 05 07 </i>
  <i name="time" type="string">18:26:46 </i>
 </generator>
 <incar>
  <i type="string" name="SYSTEM">routine with relax: pwdword</i>
  <i type="string" name="PREC">Acc</i>
  <i type="int" name="IALGO">    38</i>
  <i type="string" name="ALGO">A</i>
  <i type="logical" name="ADDGRID"> T  </i>
  <i type="int" name="ICHARG">     2</i>
  <i type="int" name="NELM">   100</i>
  <i type="int" name="NELMIN">     6</i>
  <i name="EDIFF">      0.00000000</i>
  <i type="int" name="NSW">     0</i>
  <i type="int" name="ISIF">    -1</i>
  <i name="ENCUT">    600.00000000</i>
  <i type="logical" name="LREAL"> F  </i>
  <i type="int" name="ISMEAR">     0</i>
  <i name="SIGMA">      0.02000000</i>
  <i type="logical" name="LASPH"> T  </i>
  <i type="string" name="METAGGA">R2SCAN</i>
  <i type="logical" name="LMIXTAU"> F  </i>
 </incar>
 <primitive_cell>
  <structure name="primitive_cell" >
   <crystal>
    <varray name="basis" >
     <v>       4.93108480       0.00000000      -2.81572167 </v>
     <v>      -1.66194738       4.64257776      -2.81572167 </v>
     <v>       0.00000000       0.00000000       5.67837000 </v>
    </varray>
    <i name="volume">    129.99460995 </i>
    <varray name="rec_basis" >
     <v>       0.20279513       0.07259649       0.00000000 </v>
     <v>       0.00000000       0.21539758       0.00000000 </v>
     <v>       0.10055961       0.14280703       0.17610688 </v>
    </varray>
   </crystal>
   <varray name="positions" >
    <v>       0.00000000       0.00000000       0.00000000 </v>
    <v>       0.50000000       0.50000000       0.00000000 </v>
    <v>       0.24645000       0.25355000       0.50000000 </v>
    <v>       0.25000000       0.25000000       0.00000000 </v>
    <v>       0.75355000       0.74645000       0.50000000 </v>
    <v>       0.75000000       0.75000000       0.00000000 </v>
    <v>       0.25355000       0.75355000       0.00710000 </v>
    <v>       0.74645000       0.24645000       0.99290000 </v>
    <v>       0.25000000       0.75000000       0.50000000 </v>
    <v>       0.75000000       0.25000000       0.50000000 </v>
   </varray>
  </structure>
  <varray name="primitive_index" >
   <v type="int" >        1 </v>
   <v type="int" >        2 </v>
   <v type="int" >        3 </v>
   <v type="int" >        4 </v>
   <v type="int" >        5 </v>
   <v type="int" >        6 </v>
   <v type="int" >        7 </v>
   <v type="int" >        8 </v>
   <v type="int" >        9 </v>
   <v type="int" >       10 </v>
  </varray>
 </primitive_cell>
 <kpoints>
  <generation param="Gamma">
   <v type="int" name="divisions">       8        8        9 </v>
   <v name="usershift">      0.00000000       0.00000000       0.00000000 </v>
   <v name="genvec1">      0.12500000      -0.00000000       0.00000000 </v>
   <v name="genvec2">      0.00000000       0.12500000       0.00000000 </v>
   <v name="genvec3">      0.00000000       0.00000000       0.11111111 </v>
   <v name="shift">      0.00000000       0.00000000       0.00000000 </v>
  </generation>
  <varray name="kpointlist" >
   <v>       0.00000000       0.00000000       0.00000000 </v>
   <v>       0.12500000       0.00000000       0.00000000 </v>
   <v>       0.25000000       0.00000000       0.00000000 </v>
   <v>       0.37500000       0.00000000       0.00000000 </v>
   <v>       0.50000000       0.00000000       0.00000000 </v>
   <v>       0.12500000       0.12500000       0.00000000 </v>
   <v>       0.25000000       0.12500000       0.00000000 </v>
   <v>       0.37500000       0.12500000       0.00000000 </v>
   <v>       0.50000000       0.12500000       0.00000000 </v>
   <v>      -0.37500000       0.12500000       0.00000000 </v>
   <v>      -0.25000000       0.12500000       0.00000000 </v>
   <v>      -0.12500000       0.12500000       0.00000000 </v>
   <v>       0.25000000       0.25000000       0.00000000 </v>
   <v>       0.37500000       0.25000000       0.00000000 </v>
   <v>       0.50000000       0.25000000       0.00000000 </v>
   <v>      -0.37500000       0.25000000       0.00000000 </v>
   <v>      -0.25000000       0.25000000       0.00000000 </v>
   <v>       0.37500000       0.37500000       0.00000000 </v>
   <v>       0.50000000       0.37500000       0.00000000 </v>
   <v>      -0.37500000       0.37500000       0.00000000 </v>
   <v>       0.50000000       0.50000000       0.00000000 </v>
   <v>       0.00000000       0.00000000       0.11111111 </v>
   <v>       0.12500000       0.00000000       0.11111111 </v>
   <v>       0.25000000       0.00000000       0.11111111 </v>
   <v>       0.37500000       0.00000000       0.11111111 </v>
   <v>       0.50000000       0.00000000       0.11111111 </v>
   <v>      -0.37500000      -0.00000000       0.11111111 </v>
   <v>      -0.25000000       0.00000000       0.11111111 </v>
   <v>      -0.12500000       0.00000000       0.11111111 </v>
   <v>       0.12500000       0.12500000       0.11111111 </v>
   <v>       0.25000000       0.12500000       0.11111111 </v>
   <v>       0.37500000       0.12500000       0.11111111 </v>
   <v>       0.50000000       0.12500000       0.11111111 </v>
   <v>      -0.37500000       0.12500000       0.11111111 </v>
   <v>      -0.25000000       0.12500000       0.11111111 </v>
   <v>      -0.12500000       0.12500000       0.11111111 </v>
   <v>       0.25000000       0.25000000       0.11111111 </v>
   <v>       0.37500000       0.25000000       0.11111111 </v>
   <v>       0.50000000       0.25000000       0.11111111 </v>
   <v>      -0.37500000       0.25000000       0.11111111 </v>
   <v>      -0.25000000       0.25000000       0.11111111 </v>
   <v>      -0.12500000       0.25000000       0.11111111 </v>
   <v>       0.37500000       0.37500000       0.11111111 </v>
   <v>       0.50000000       0.37500000       0.11111111 </v>
   <v>      -0.37500000       0.37500000       0.11111111 </v>
   <v>      -0.25000000       0.37500000       0.11111111 </v>
   <v>      -0.12500000       0.37500000       0.11111111 </v>
   <v>       0.50000000       0.50000000       0.11111111 </v>
   <v>      -0.37500000       0.50000000       0.11111111 </v>
   <v>      -0.25000000       0.50000000       0.11111111 </v>
   <v>      -0.12500000       0.50000000       0.11111111 </v>
   <v>      -0.37500000      -0.37500000       0.11111111 </v>
   <v>      -0.25000000      -0.37500000       0.11111111 </v>
   <v>      -0.12500000      -0.37500000       0.11111111 </v>
   <v>      -0.25000000      -0.25000000       0.11111111 </v>
   <v>      -0.12500000      -0.25000000       0.11111111 </v>
   <v>      -0.12500000      -0.12500000       0.11111111 </v>
   <v>       0.00000000       0.00000000       0.22222222 </v>
   <v>       0.12500000       0.00000000       0.22222222 </v>
   <v>       0.25000000       0.00000000       0.22222222 </v>
   <v>       0.37500000       0.00000000       0.22222222 </v>
   <v>       0.50000000       0.00000000       0.22222222 </v>
   <v>      -0.37500000       0.00000000       0.22222222 </v>
   <v>      -0.25000000       0.00000000       0.22222222 </v>
   <v>      -0.12500000       0.00000000       0.22222222 </v>
   <v>       0.12500000       0.12500000       0.22222222 </v>
   <v>       0.25000000       0.12500000       0.22222222 </v>
   <v>       0.37500000       0.12500000       0.22222222 </v>
   <v>       0.50000000       0.12500000       0.22222222 </v>
   <v>      -0.37500000       0.12500000       0.22222222 </v>
   <v>      -0.25000000       0.12500000       0.22222222 </v>
   <v>      -0.12500000       0.12500000       0.22222222 </v>
   <v>       0.25000000       0.25000000       0.22222222 </v>
   <v>       0.37500000       0.25000000       0.22222222 </v>
   <v>       0.50000000       0.25000000       0.22222222 </v>
   <v>      -0.37500000       0.25000000       0.22222222 </v>
   <v>      -0.25000000       0.25000000       0.22222222 </v>
   <v>      -0.12500000       0.25000000       0.22222222 </v>
   <v>       0.37500000       0.37500000       0.22222222 </v>
   <v>       0.50000000       0.37500000       0.22222222 </v>
   <v>      -0.37500000       0.37500000       0.22222222 </v>
   <v>      -0.25000000       0.37500000       0.22222222 </v>
   <v>      -0.12500000       0.37500000       0.22222222 </v>
   <v>       0.50000000       0.50000000       0.22222222 </v>
   <v>      -0.37500000       0.50000000       0.22222222 </v>
   <v>      -0.25000000       0.50000000       0.22222222 </v>
   <v>      -0.12500000       0.50000000       0.22222222 </v>
   <v>      -0.37500000      -0.37500000       0.22222222 </v>
   <v>      -0.25000000      -0.37500000       0.22222222 </v>
   <v>      -0.12500000      -0.37500000       0.22222222 </v>
   <v>      -0.25000000      -0.25000000       0.22222222 </v>
   <v>      -0.12500000      -0.25000000       0.22222222 </v>
   <v>      -0.12500000      -0.12500000       0.22222222 </v>
   <v>       0.00000000      -0.00000000       0.33333333 </v>
   <v>       0.12500000       0.00000000       0.33333333 </v>
   <v>       0.25000000       0.00000000       0.33333333 </v>
   <v>       0.37500000       0.00000000       0.33333333 </v>
   <v>       0.50000000       0.00000000       0.33333333 </v>
   <v>      -0.37500000      -0.00000000       0.33333333 </v>
   <v>      -0.25000000       0.00000000       0.33333333 </v>
   <v>      -0.12500000       0.00000000       0.33333333 </v>
   <v>       0.12500000       0.12500000       0.33333333 </v>
   <v>       0.25000000       0.12500000       0.33333333 </v>
   <v>       0.37500000       0.12500000       0.33333333 </v>
   <v>       0.50000000       0.12500000       0.33333333 </v>
   <v>      -0.37500000       0.12500000       0.33333333 </v>
   <v>      -0.25000000       0.12500000       0.33333333 </v>
   <v>      -0.12500000       0.12500000       0.33333333 </v>
   <v>       0.25000000       0.25000000       0.33333333 </v>
   <v>       0.37500000       0.25000000       0.33333333 </v>
   <v>       0.50000000       0.25000000       0.33333333 </v>
   <v>      -0.37500000       0.25000000       0.33333333 </v>
   <v>      -0.25000000       0.25000000       0.33333333 </v>
   <v>      -0.12500000       0.25000000       0.33333333 </v>
   <v>       0.37500000       0.37500000       0.33333333 </v>
   <v>       0.50000000       0.37500000       0.33333333 </v>
   <v>      -0.37500000       0.37500000       0.33333333 </v>
   <v>      -0.25000000       0.37500000       0.33333333 </v>
   <v>      -0.12500000       0.37500000       0.33333333 </v>
   <v>       0.50000000       0.50000000       0.33333333 </v>
   <v>      -0.37500000       0.50000000       0.33333333 </v>
   <v>      -0.25000000       0.50000000       0.33333333 </v>
   <v>      -0.12500000       0.50000000       0.33333333 </v>
   <v>      -0.37500000      -0.37500000       0.33333333 </v>
   <v>      -0.25000000      -0.37500000       0.33333333 </v>
   <v>      -0.12500000      -0.37500000       0.33333333 </v>
   <v>      -0.25000000      -0.25000000       0.33333333 </v>
   <v>      -0.12500000      -0.25000000       0.33333333 </v>
   <v>      -0.12500000      -0.12500000       0.33333333 </v>
   <v>       0.00000000       0.00000000       0.44444444 </v>
   <v>       0.12500000       0.00000000       0.44444444 </v>
   <v>       0.25000000       0.00000000       0.44444444 </v>
   <v>       0.37500000       0.00000000       0.44444444 </v>
   <v>       0.50000000       0.00000000       0.44444444 </v>
   <v>      -0.37500000       0.00000000       0.44444444 </v>
   <v>      -0.25000000       0.00000000       0.44444444 </v>
   <v>      -0.12500000       0.00000000       0.44444444 </v>
   <v>       0.12500000       0.12500000       0.44444444 </v>
   <v>       0.25000000       0.12500000       0.44444444 </v>
   <v>       0.37500000       0.12500000       0.44444444 </v>
   <v>       0.50000000       0.12500000       0.44444444 </v>
   <v>      -0.37500000       0.12500000       0.44444444 </v>
   <v>      -0.25000000       0.12500000       0.44444444 </v>
   <v>      -0.12500000       0.12500000       0.44444444 </v>
   <v>       0.25000000       0.25000000       0.44444444 </v>
   <v>       0.37500000       0.25000000       0.44444444 </v>
   <v>       0.50000000       0.25000000       0.44444444 </v>
   <v>      -0.37500000       0.25000000       0.44444444 </v>
   <v>      -0.25000000       0.25000000       0.44444444 </v>
   <v>      -0.12500000       0.25000000       0.44444444 </v>
   <v>       0.37500000       0.37500000       0.44444444 </v>
   <v>       0.50000000       0.37500000       0.44444444 </v>
   <v>      -0.37500000       0.37500000       0.44444444 </v>
   <v>      -0.25000000       0.37500000       0.44444444 </v>
   <v>      -0.12500000       0.37500000       0.44444444 </v>
   <v>       0.50000000       0.50000000       0.44444444 </v>
   <v>      -0.37500000       0.50000000       0.44444444 </v>
   <v>      -0.25000000       0.50000000       0.44444444 </v>
   <v>      -0.12500000       0.50000000       0.44444444 </v>
   <v>      -0.37500000      -0.37500000       0.44444444 </v>
   <v>      -0.25000000      -0.37500000       0.44444444 </v>
   <v>      -0.12500000      -0.37500000       0.44444444 </v>
   <v>      -0.25000000      -0.25000000       0.44444444 </v>
   <v>      -0.12500000      -0.25000000       0.44444444 </v>
   <v>      -0.12500000      -0.12500000       0.44444444 </v>
  </varray>
  <varray name="weights" >
   <v>       0.00173611 </v>
   <v>       0.00694444 </v>
   <v>       0.00694444 </v>
   <v>       0.00694444 </v>
   <v>       0.00347222 </v>
   <v>       0.00347222 </v>
   <v>       0.00694444 </v>
   <v>       0.00694444 </v>
   <v>       0.00694444 </v>
   <v>       0.00694444 </v>
   <v>       0.00694444 </v>
   <v>       0.00347222 </v>
   <v>       0.00347222 </v>
   <v>       0.00694444 </v>
   <v>       0.00694444 </v>
   <v>       0.00694444 </v>
   <v>       0.00347222 </v>
   <v>       0.00347222 </v>
   <v>       0.00694444 </v>
   <v>       0.00347222 </v>
   <v>       0.00173611 </v>
   <v>       0.00347222 </v>
   <v>       0.00694444 </v>
   <v>       0.00694444 </v>
   <v>       0.00694444 </v>
   <v>       0.00694444 </v>
   <v>       0.00694444 </v>
   <v>       0.00694444 </v>
   <v>       0.00694444 </v>
   <v>       0.00347222 </v>
   <v>       0.00694444 </v>
   <v>       0.00694444 </v>
   <v>       0.00694444 </v>
   <v>       0.00694444 </v>
   <v>       0.00694444 </v>
   <v>       0.00694444 </v>
   <v>       0.00347222 </v>
   <v>       0.00694444 </v>
   <v>       0.00694444 </v>
   <v>       0.00694444 </v>
   <v>       0.00694444 </v>
   <v>       0.00694444 </v>
   <v>       0.00347222 </v>
   <v>       0.00694444 </v>
   <v>       0.00694444 </v>
   <v>       0.00694444 </v>
   <v>       0.00694444 </v>
   <v>       0.00347222 </v>
   <v>       0.00694444 </v>
   <v>       0.00694444 </v>
   <v>       0.00694444 </v>
   <v>       0.00347222 </v>
   <v>       0.00694444 </v>
   <v>       0.00694444 </v>
   <v>       0.00347222 </v>
   <v>       0.00694444 </v>
   <v>       0.00347222 </v>
   <v>       0.00347222 </v>
   <v>       0.00694444 </v>
   <v>       0.00694444 </v>
   <v>       0.00694444 </v>
   <v>       0.00694444 </v>
   <v>       0.00694444 </v>
   <v>       0.00694444 </v>
   <v>       0.00694444 </v>
   <v>       0.00347222 </v>
   <v>       0.00694444 </v>
   <v>       0.00694444 </v>
   <v>       0.00694444 </v>
   <v>       0.00694444 </v>
   <v>       0.00694444 </v>
   <v>       0.00694444 </v>
   <v>       0.00347222 </v>
   <v>       0.00694444 </v>
   <v>       0.00694444 </v>
   <v>       0.00694444 </v>
   <v>       0.00694444 </v>
   <v>       0.00694444 </v>
   <v>       0.00347222 </v>
   <v>       0.00694444 </v>
   <v>       0.00694444 </v>
   <v>       0.00694444 </v>
   <v>       0.00694444 </v>
   <v>       0.00347222 </v>
   <v>       0.00694444 </v>
   <v>       0.00694444 </v>
   <v>       0.00694444 </v>
   <v>       0.00347222 </v>
   <v>       0.00694444 </v>
   <v>       0.00694444 </v>
   <v>       0.00347222 </v>
   <v>       0.00694444 </v>
   <v>       0.00347222 </v>
   <v>       0.00347222 </v>
   <v>       0.00694444 </v>
   <v>       0.00694444 </v>
   <v>       0.00694444 </v>
   <v>       0.00694444 </v>
   <v>       0.00694444 </v>
   <v>       0.00694444 </v>
   <v>       0.00694444 </v>
   <v>       0.00347222 </v>
   <v>       0.00694444 </v>
   <v>       0.00694444 </v>
   <v>       0.00694444 </v>
   <v>       0.00694444 </v>
   <v>       0.00694444 </v>
   <v>       0.00694444 </v>
   <v>       0.00347222 </v>
   <v>       0.00694444 </v>
   <v>       0.00694444 </v>
   <v>       0.00694444 </v>
   <v>       0.00694444 </v>
   <v>       0.00694444 </v>
   <v>       0.00347222 </v>
   <v>       0.00694444 </v>
   <v>       0.00694444 </v>
   <v>       0.00694444 </v>
   <v>       0.00694444 </v>
   <v>       0.00347222 </v>
   <v>       0.00694444 </v>
   <v>       0.00694444 </v>
   <v>       0.00694444 </v>
   <v>       0.00347222 </v>
   <v>       0.00694444 </v>
   <v>       0.00694444 </v>
   <v>       0.00347222 </v>
   <v>       0.00694444 </v>
   <v>       0.00347222 </v>
   <v>       0.00347222 </v>
   <v>       0.00694444 </v>
   <v>       0.00694444 </v>
   <v>       0.00694444 </v>
   <v>       0.00694444 </v>
   <v>       0.00694444 </v>
   <v>       0.00694444 </v>
   <v>       0.00694444 </v>
   <v>       0.00347222 </v>
   <v>       0.00694444 </v>
   <v>       0.00694444 </v>
   <v>       0.00694444 </v>
   <v>       0.00694444 </v>
   <v>       0.00694444 </v>
   <v>       0.00694444 </v>
   <v>       0.00347222 </v>
   <v>       0.00694444 </v>
   <v>       0.00694444 </v>
   <v>       0.00694444 </v>
   <v>       0.00694444 </v>
   <v>       0.00694444 </v>
   <v>       0.00347222 </v>
   <v>       0.00694444 </v>
   <v>       0.00694444 </v>
   <v>       0.00694444 </v>
   <v>       0.00694444 </v>
   <v>       0.00347222 </v>
   <v>       0.00694444 </v>
   <v>       0.00694444 </v>
   <v>       0.00694444 </v>
   <v>       0.00347222 </v>
   <v>       0.00694444 </v>
   <v>       0.00694444 </v>
   <v>       0.00347222 </v>
   <v>       0.00694444 </v>
   <v>       0.00347222 </v>
  </varray>
 </kpoints>
 <parameters>
  <separator name="general" >
   <i type="string" name="SYSTEM">routine with relax: pwdword</i>
   <i type="logical" name="LCOMPAT"> F  </i>
  </separator>
  <separator name="electronic" >
   <i type="string" name="PREC">acc</i>
   <i name="ENMAX">    600.00000000</i>
   <i name="ENAUG">    535.51400000</i>
   <i name="EDIFF">      0.00000000</i>
   <i type="int" name="IALGO">    58</i>
   <i type="int" name="IWAVPR">    10</i>
   <i type="int" name="NBANDS">    60</i>
   <i type="int" name="NBANDSLOW">    -1</i>
   <i type="int" name="NBANDSHIGH">    -1</i>
   <i name="NELECT">     98.00000000</i>
   <i type="int" name="TURBO">     0</i>
   <i type="int" name="IRESTART">     0</i>
   <i type="int" name="NREBOOT">     0</i>
   <i type="int" name="NMIN">     0</i>
   <i name="EREF">      0.00000000</i>
   <separator name="electronic smearing" >
    <i type="int" name="ISMEAR">     0</i>
    <i name="SIGMA">      0.02000000</i>
    <i name="KSPACING">      0.50000000</i>
    <i type="logical" name="KGAMMA"> T  </i>
    <i type="logical" name="KBLOWUP"> T  </i>
   </separator>
   <separator name="electronic projectors" >
    <i type="logical" name="LREAL"> F  </i>
    <v name="ROPT">      0.00000000      0.00000000      0.00000000</v>
    <i type="int" name="LMAXPAW">  -100</i>
    <i type="int" name="LMAXMIX">     2</i>
    <i type="logical" name="NLSPLINE"> F  </i>
   </separator>
   <separator name="electronic startup" >
    <i type="int" name="ISTART">     0</i>
    <i type="int" name="ICHARG">     2</i>
    <i type="int" name="INIWAV">     1</i>
   </separator>
   <separator name="electronic spin" >
    <i type="int" name="ISPIN">     1</i>
    <i type="logical" name="LNONCOLLINEAR"> F  </i>
    <v name="MAGMOM">      1.00000000      1.00000000      1.00000000      1.00000000      1.00000000      1.00000000      1.00000000      1.00000000      1.00000000      1.00000000</v>
    <i name="NUPDOWN">     -1.00000000</i>
    <i type="logical" name="LSORBIT"> F  </i>
    <v name="SAXIS">      0.00000000      0.00000000      1.00000000</v>
    <i type="logical" name="LSPIRAL"> F  </i>
    <v name="QSPIRAL">      0.00000000      0.00000000      0.00000000</v>
    <i type="logical" name="LZEROZ"> F  </i>
   </separator>
   <separator name="electronic exchange-correlation" >
    <i type="logical" name="LASPH"> T  </i>
    <i type="logical" name="LMETAGGA"> F  </i>
   </separator>
   <separator name="electronic convergence" >
    <i type="int" name="NELM">   100</i>
    <i type="int" name="NELMDL">    -5</i>
    <i type="int" name="NELMIN">     6</i>
    <i name="ENINI">    600.00000000</i>
    <separator name="electronic convergence detail" >
     <i type="logical" name="LDIAG"> T  </i>
     <i type="logical" name="LSUBROT"> F  </i>
     <i name="WEIMIN">      0.00000000</i>
     <i name="EBREAK">      0.00000000</i>
     <i name="DEPER">      0.30000000</i>
     <i type="int" name="NRMM">     4</i>
     <i name="TIME">      0.40000000</i>
    </separator>
   </separator>
   <separator name="electronic mixer" >
    <i name="AMIX">      0.40000000</i>
    <i name="BMIX">      1.00000000</i>
    <i name="AMIN">      0.10000000</i>
    <i name="AMIX_MAG">      1.60000000</i>
    <i name="BMIX_MAG">      1.00000000</i>
    <separator name="electronic mixer details" >
     <i type="int" name="IMIX">     4</i>
     <i type="logical" name="MIXFIRST"> F  </i>
     <i type="int" name="MAXMIX">   -45</i>
     <i name="WC">    100.00000000</i>
     <i type="int" name="INIMIX">     1</i>
     <i type="int" name="MIXPRE">     1</i>
     <i type="int" name="MREMOVE">     5</i>
    </separator>
   </separator>
   <separator name="electronic dipolcorrection" >
    <i type="logical" name="LDIPOL"> F  </i>
    <i type="logical" name="LMONO"> F  </i>
    <i type="int" name="IDIPOL">     0</i>
    <i name="EPSILON">      1.00000000</i>
    <v name="DIPOL">   -100.00000000   -100.00000000   -100.00000000</v>
    <i name="EFIELD">      0.00000000</i>
   </separator>
  </separator>
  <separator name="grids" >
   <i type="int" name="NGX">    48</i>
   <i type="int" name="NGY">    48</i>
   <i type="int" name="NGZ">    48</i>
   <i type="int" name="NGXF">    96</i>
   <i type="int" name="NGYF">    96</i>
   <i type="int" name="NGZF">    96</i>
   <i type="logical" name="ADDGRID"> T  </i>
  </separator>
  <separator name="ionic" >
   <i type="int" name="NSW">     0</i>
   <i type="int" name="IBRION">    -1</i>
   <i type="int" name="MDALGO">     0</i>
   <i type="int" name="ISIF">    -1</i>
   <i name="PSTRESS">      0.00000000</i>
   <i name="EDIFFG">      0.00000001</i>
   <i type="int" name="NFREE">     0</i>
   <i name="POTIM">      0.50000000</i>
   <i name="SMASS">     -3.00000000</i>
   <i name="SCALEE">      1.00000000</i>
  </separator>
  <separator name="ionic md" >
   <i name="TEBEG">      0.00010000</i>
   <i name="TEEND">      0.00010000</i>
   <i type="int" name="NBLOCK">     1</i>
   <i type="int" name="KBLOCK">     1</i>
   <i type="int" name="NPACO">   256</i>
   <i name="APACO">     16.00000000</i>
  </separator>
  <separator name="symmetry" >
   <i type="int" name="ISYM">     2</i>
   <i name="SYMPREC">      0.00001000</i>
  </separator>
  <separator name="dos" >
   <i type="int" name="LORBIT">     0</i>
   <v name="RWIGS">     -1.00000000     -1.00000000     -1.00000000</v>
   <i type="int" name="NEDOS">   301</i>
   <i name="EMIN">     10.00000000</i>
   <i name="EMAX">    -10.00000000</i>
   <i name="EFERMI">      0.00000000</i>
  </separator>
  <separator name="writing" >
   <i type="int" name="NWRITE">     2</i>
   <i type="logical" name="LWAVE"> T  </i>
   <i type="logical" name="LDOWNSAMPLE"> F  </i>
   <i type="logical" name="LCHARG"> T  </i>
   <i type="logical" name="LPARD"> F  </i>
   <i type="logical" name="LVTOT"> F  </i>
   <i type="logical" name="LVHAR"> F  </i>
   <i type="logical" name="LELF"> F  </i>
   <i type="logical" name="LOPTICS"> F  </i>
   <v name="STM">      0.00000000      0.00000000      0.00000000      0.00000000      0.00000000      0.00000000      0.00000000</v>
  </separator>
  <separator name="performance" >
   <i type="int" name="NPAR">     6</i>
   <i type="int" name="NSIM">     4</i>
   <i type="int" name="NBLK">    -1</i>
   <i type="logical" name="LPLANE"> T  </i>
   <i type="logical" name="LSCALAPACK"> T  </i>
   <i type="logical" name="LSCAAWARE"> F  </i>
   <i type="logical" name="LSCALU"> F  </i>
   <i type="logical" name="LASYNC"> F  </i>
   <i type="logical" name="LORBITALREAL"> F  </i>
  </separator>
  <separator name="miscellaneous" >
   <i type="int" name="IDIOT">     3</i>
   <i type="int" name="PHON_NSTRUCT">    -1</i>
   <i type="logical" name="LMUSIC"> F  </i>
   <v name="POMASS">     10.81100000     95.94000000     28.08500000</v>
   <v name="DARWINR">      0.00000000      0.00000000      0.00000000</v>
   <v name="DARWINV">      1.00000000      1.00000000      1.00000000</v>
   <i type="logical" name="LCORR"> T  </i>
  </separator>
  <i type="logical" name="GGA_COMPAT"> T  </i>
  <i type="logical" name="LBERRY"> F  </i>
  <i type="int" name="ICORELEVEL">     0</i>
  <i type="logical" name="LDAU"> F  </i>
  <i type="int" name="I_CONSTRAINED_M">     0</i>
  <separator name="electronic exchange-correlation" >
   <i type="string" name="GGA">--</i>
   <i type="int" name="VOSKOWN">     0</i>
   <i type="logical" name="LHFCALC"> F  </i>
   <i type="string" name="PRECFOCK"></i>
   <i type="logical" name="LSYMGRAD"> F  </i>
   <i type="logical" name="LHFONE"> F  </i>
   <i type="logical" name="LRHFCALC"> F  </i>
   <i type="logical" name="LTHOMAS"> F  </i>
   <i type="logical" name="LMODELHF"> F  </i>
   <i type="logical" name="LFOCKACE"> F  </i>
   <i name="ENCUT4O">     -1.00000000</i>
   <i type="int" name="EXXOEP">     0</i>
   <i type="int" name="FOURORBIT">     0</i>
   <i name="AEXX">      0.00000000</i>
   <i name="HFALPHA">      0.00000000</i>
   <i name="MCALPHA">      0.00000000</i>
   <i name="ALDAX">      1.00000000</i>
   <i name="AGGAX">      1.00000000</i>
   <i name="ALDAC">      1.00000000</i>
   <i name="AGGAC">      1.00000000</i>
   <i type="int" name="NKREDX">     1</i>
   <i type="int" name="NKREDY">     1</i>
   <i type="int" name="NKREDZ">     1</i>
   <i type="logical" name="SHIFTRED"> F  </i>
   <i type="logical" name="ODDONLY"> F  </i>
   <i type="logical" name="EVENONLY"> F  </i>
   <i type="int" name="LMAXFOCK">     0</i>
   <i type="int" name="NMAXFOCKAE">     0</i>
   <i type="logical" name="LFOCKAEDFT"> F  </i>
   <i name="HFSCREEN">      0.00000000</i>
   <i name="HFSCREENC">      0.00000000</i>
   <i type="int" name="NBANDSGWLOW">     0</i>
  </separator>
  <separator name="vdW DFT" >
   <i type="logical" name="LUSE_VDW"> F  </i>
   <i name="Zab_VDW">     -0.84910000</i>
   <i name="PARAM1">      0.12340000</i>
   <i name="PARAM2">      1.00000000</i>
   <i name="PARAM3">      0.00000000</i>
  </separator>
  <separator name="model GW" >
   <i type="int" name="MODEL_GW">     0</i>
   <i name="MODEL_EPS0">      7.79967660</i>
   <i name="MODEL_ALPHA">      1.00000000</i>
  </separator>
  <separator name="linear response parameters" >
   <i type="logical" name="LEPSILON"> F  </i>
   <i type="logical" name="LRPA"> F  </i>
   <i type="logical" name="LNABLA"> F  </i>
   <i type="logical" name="LVEL"> F  </i>
   <i type="int" name="KINTER">     0</i>
   <i name="CSHIFT">      0.10000000</i>
   <i name="OMEGAMAX">     -1.00000000</i>
   <i name="DEG_THRESHOLD">      0.00200000</i>
   <i name="RTIME">     -0.10000000</i>
   <i name="WPLASMAI">      0.00000000</i>
   <v name="DFIELD">      0.00000000      0.00000000      0.00000000</v>
   <v name="WPLASMA">      0.00000000      0.00000000      0.00000000      0.00000000      0.00000000      0.00000000      0.00000000      0.00000000      0.00000000</v>
  </separator>
  <separator name="orbital magnetization" >
   <i type="logical" name="NUCIND"> F  </i>
   <v name="MAGPOS">      0.00000000      0.00000000      0.00000000</v>
   <i type="logical" name="LNICSALL"> T  </i>
   <i type="logical" name="ORBITALMAG"> F  </i>
   <i type="logical" name="LMAGBLOCH"> F  </i>
   <i type="logical" name="LCHIMAG"> F  </i>
   <i type="logical" name="LGAUGE"> T  </i>
   <i type="int" name="MAGATOM">     0</i>
   <v name="MAGDIPOL">      0.00000000      0.00000000      0.00000000</v>
   <v name="AVECCONST">      0.00000000      0.00000000      0.00000000</v>
  </separator>
  <separator name="response functions" >
   <i type="logical" name="LFINITE_TEMPERATURE"> F  </i>
   <i type="logical" name="LADDER"> F  </i>
   <i type="logical" name="LRPAFORCE"> F  </i>
   <i type="logical" name="LFXC"> F  </i>
   <i type="logical" name="LHARTREE"> T  </i>
   <i type="int" name="IBSE">     0</i>
   <v type="int" name="KPOINT">    -1     0     0     0</v>
   <i type="logical" name="LTCTC"> F  </i>
   <i type="logical" name="LTCTE"> F  </i>
   <i type="logical" name="LTETE"> F  </i>
   <i type="logical" name="LTRIPLET"> F  </i>
   <i type="logical" name="LFXCEPS"> F  </i>
   <i type="logical" name="LFXHEG"> F  </i>
   <i type="int" name="NATURALO">     2</i>
   <i type="logical" name="LHOLEGF"> F  </i>
   <i type="logical" name="L2ORDER"> F  </i>
   <i type="logical" name="LDMP1"> F  </i>
   <i type="logical" name="LMP2LT"> F  </i>
   <i type="logical" name="LSMP2LT"> F  </i>
   <i type="logical" name="LGWLF"> F  </i>
   <i name="ENCUTGW">     -2.00000000</i>
   <i name="ENCUTGWSOFT">     -2.00000000</i>
   <i name="ENCUTLF">     -1.00000000</i>
   <i type="logical" name="LESF_SPLINES"> F  </i>
   <i type="int" name="LMAXMP2">    -1</i>
   <i name="SCISSOR">      0.00000000</i>
   <i type="int" name="NOMEGA">     0</i>
   <i type="int" name="NOMEGAR">     0</i>
   <i type="int" name="NBANDSGW">    -1</i>
   <i type="int" name="NBANDSO">    -1</i>
   <i type="int" name="NBANDSV">    -1</i>
   <i type="int" name="NELM">   100</i>
   <i type="int" name="NELMHF">     1</i>
   <i type="int" name="DIM">     3</i>
   <i type="int" name="IESPILON">     4</i>
   <i type="int" name="ANTIRES">     0</i>
   <i name="OMEGAMAX">    -30.00000000</i>
   <i name="OMEGAMIN">    -30.00000000</i>
   <i name="OMEGATL">   -200.00000000</i>
   <i type="int" name="OMEGAGRID">     0</i>
   <i name="CSHIFT">     -0.10000000</i>
   <i type="logical" name="LSELFENERGY"> F  </i>
   <i type="logical" name="LSPECTRAL"> F  </i>
   <i type="logical" name="LSPECTRALGW"> F  </i>
   <i type="logical" name="LSINGLES"> F  </i>
   <i type="logical" name="LFERMIGW"> F  </i>
   <i type="logical" name="ODDONLYGW"> F  </i>
   <i type="logical" name="EVENONLYGW"> F  </i>
   <i type="int" name="NKREDLFX">     1</i>
   <i type="int" name="NKREDLFY">     1</i>
   <i type="int" name="NKREDLFZ">     1</i>
   <i type="int" name="MAXMEM">  2800</i>
   <i type="int" name="TELESCOPE">     0</i>
   <i type="int" name="NTAUPAR">    -1</i>
   <i type="int" name="NOMEGAPAR">    -1</i>
   <i name="DAMP_NEWTON">      0.80000001</i>
   <i name="LAMBDA">      1.00000000</i>
  </separator>
  <separator name="External order field" >
   <i name="OFIELD_KAPPA">      0.00000000</i>
   <v name="OFIELD_K">      0.00000000      0.00000000      0.00000000</v>
   <i name="OFIELD_Q6_NEAR">      0.00000000</i>
   <i name="OFIELD_Q6_FAR">      0.00000000</i>
   <i name="OFIELD_A">      0.00000000</i>
  </separator>
 </parameters>
 <atominfo>
  <atoms>      10 </atoms>
  <types>       3 </types>
  <array name="atoms" >
   <dimension dim="1">ion</dimension>
   <field type="string">element</field>
   <field type="int">atomtype</field>
   <set>
    <rc><c>B </c><c>   1</c></rc>
    <rc><c>B </c><c>   1</c></rc>
    <rc><c>Mo</c><c>   2</c></rc>
    <rc><c>Mo</c><c>   2</c></rc>
    <rc><c>Mo</c><c>   2</c></rc>
    <rc><c>Mo</c><c>   2</c></rc>
    <rc><c>Mo</c><c>   2</c></rc>
    <rc><c>Mo</c><c>   2</c></rc>
    <rc><c>Si</c><c>   3</c></rc>
    <rc><c>Si</c><c>   3</c></rc>
   </set>
  </array>
  <array name="atomtypes" >
   <dimension dim="1">type</dimension>
   <field type="int">atomspertype</field>
   <field type="string">element</field>
   <field>mass</field>
   <field>valence</field>
   <field type="string">pseudopotential</field>
   <set>
    <rc><c>   2</c><c>B </c><c>     10.81100000</c><c>      3.00000000</c><c>  PAW_PBE B 06Sep2000                   </c></rc>
    <rc><c>   6</c><c>Mo</c><c>     95.94000000</c><c>     14.00000000</c><c>  PAW_PBE Mo_sv 02Feb2006               </c></rc>
    <rc><c>   2</c><c>Si</c><c>     28.08500000</c><c>      4.00000000</c><c>  PAW_PBE Si 05Jan2001                  </c></rc>
   </set>
  </array>
 </atominfo>
 <structure name="initialpos" >
  <crystal>
   <varray name="basis" >
    <v>       4.93108480       0.00000000      -2.81572167 </v>
    <v>      -1.66194738       4.64257776      -2.81572167 </v>
    <v>       0.00000000       0.00000000       5.67837000 </v>
   </varray>
   <i name="volume">    129.99460995 </i>
   <varray name="rec_basis" >
    <v>       0.20279513       0.07259649       0.00000000 </v>
    <v>       0.00000000       0.21539758       0.00000000 </v>
    <v>       0.10055961       0.14280703       0.17610688 </v>
   </varray>
  </crystal>
  <varray name="positions" >
   <v>       0.00000000       0.00000000       0.00000000 </v>
   <v>       0.50000000       0.50000000       0.00000000 </v>
   <v>       0.24645000       0.25355000       0.50000000 </v>
   <v>       0.25000000       0.25000000       0.00000000 </v>
   <v>       0.75355000       0.74645000       0.50000000 </v>
   <v>       0.75000000       0.75000000       0.00000000 </v>
   <v>       0.25355000       0.75355000       0.00710000 </v>
   <v>       0.74645000       0.24645000       0.99290000 </v>
   <v>       0.25000000       0.75000000       0.50000000 </v>
   <v>       0.75000000       0.25000000       0.50000000 </v>
  </varray>
 </structure>
 <calculation>
  <scstep>
   <time name="total">   21.02   21.46</time>
   <energy>
    <i name="alphaZ">    642.67622853 </i>
    <i name="ewald">  -9539.36092438 </i>
    <i name="hartreedc">  -2348.93783735 </i>
    <i name="XCdc">    471.25662073 </i>
    <i name="pawpsdc">   9166.97638771 </i>
    <i name="pawaedc">  -9126.13493418 </i>
    <i name="eentropy">     -0.00031097 </i>
    <i name="bandstr">    318.44826527 </i>
    <i name="atom">  11522.16744521 </i>
    <i name="e_fr_energy">   1107.09094057 </i>
    <i name="e_wo_entrp">   1107.09125154 </i>
    <i name="e_0_energy">   1107.09109605 </i>
   </energy>
  </scstep>
  <scstep>
   <time name="total">   21.58   21.73</time>
   <energy>
    <i name="e_fr_energy">   -180.55805687 </i>
    <i name="e_wo_entrp">   -180.55706328 </i>
    <i name="e_0_energy">   -180.55756008 </i>
   </energy>
  </scstep>
  <scstep>
   <time name="total">   23.99   24.17</time>
   <energy>
    <i name="e_fr_energy">   -232.53459328 </i>
    <i name="e_wo_entrp">   -232.53359879 </i>
    <i name="e_0_energy">   -232.53409604 </i>
   </energy>
  </scstep>
  <scstep>
   <time name="total">   22.70   22.86</time>
   <energy>
    <i name="e_fr_energy">   -233.36625385 </i>
    <i name="e_wo_entrp">   -233.36522117 </i>
    <i name="e_0_energy">   -233.36573751 </i>
   </energy>
  </scstep>
  <scstep>
   <time name="total">   25.15   25.33</time>
   <energy>
    <i name="e_fr_energy">   -233.38420419 </i>
    <i name="e_wo_entrp">   -233.38317068 </i>
    <i name="e_0_energy">   -233.38368744 </i>
   </energy>
  </scstep>
  <scstep>
   <time name="total">   23.57   23.75</time>
   <energy>
    <i name="e_fr_energy">   -158.80550473 </i>
    <i name="e_wo_entrp">   -158.80445597 </i>
    <i name="e_0_energy">   -158.80498035 </i>
   </energy>
  </scstep>
  <scstep>
   <time name="total">   23.65   23.83</time>
   <energy>
    <i name="e_fr_energy">   -179.92472293 </i>
    <i name="e_wo_entrp">   -179.92302775 </i>
    <i name="e_0_energy">   -179.92387534 </i>
   </energy>
  </scstep>
  <scstep>
   <time name="total">   23.49   23.67</time>
   <energy>
    <i name="e_fr_energy">   -183.60577860 </i>
    <i name="e_wo_entrp">   -183.60428447 </i>
    <i name="e_0_energy">   -183.60503154 </i>
   </energy>
  </scstep>
  <scstep>
   <time name="total">   23.67   23.85</time>
   <energy>
    <i name="e_fr_energy">   -184.59005290 </i>
    <i name="e_wo_entrp">   -184.58852629 </i>
    <i name="e_0_energy">   -184.58928959 </i>
   </energy>
  </scstep>
  <scstep>
   <time name="total">   23.65   23.82</time>
   <energy>
    <i name="e_fr_energy">   -184.93063225 </i>
    <i name="e_wo_entrp">   -184.92873637 </i>
    <i name="e_0_energy">   -184.92968431 </i>
   </energy>
  </scstep>
  <scstep>
   <time name="total">   23.73   23.91</time>
   <energy>
    <i name="e_fr_energy">   -185.03834986 </i>
    <i name="e_wo_entrp">   -185.03642317 </i>
    <i name="e_0_energy">   -185.03738652 </i>
   </energy>
  </scstep>
  <scstep>
   <time name="total">   23.66   23.83</time>
   <energy>
    <i name="e_fr_energy">   -185.07837092 </i>
    <i name="e_wo_entrp">   -185.07647166 </i>
    <i name="e_0_energy">   -185.07742129 </i>
   </energy>
  </scstep>
  <scstep>
   <time name="total">   23.71   23.89</time>
   <energy>
    <i name="e_fr_energy">   -185.09299216 </i>
    <i name="e_wo_entrp">   -185.09118005 </i>
    <i name="e_0_energy">   -185.09208611 </i>
   </energy>
  </scstep>
  <scstep>
   <time name="total">   23.59   23.77</time>
   <energy>
    <i name="e_fr_energy">   -185.10187817 </i>
    <i name="e_wo_entrp">   -185.10012242 </i>
    <i name="e_0_energy">   -185.10100030 </i>
   </energy>
  </scstep>
  <scstep>
   <time name="total">   23.66   23.84</time>
   <energy>
    <i name="e_fr_energy">   -185.10631483 </i>
    <i name="e_wo_entrp">   -185.10459071 </i>
    <i name="e_0_energy">   -185.10545277 </i>
   </energy>
  </scstep>
  <scstep>
   <time name="total">   23.62   23.80</time>
   <energy>
    <i name="e_fr_energy">   -185.10822091 </i>
    <i name="e_wo_entrp">   -185.10650442 </i>
    <i name="e_0_energy">   -185.10736267 </i>
   </energy>
  </scstep>
  <scstep>
   <time name="total">   23.66   23.84</time>
   <energy>
    <i name="e_fr_energy">   -185.10883945 </i>
    <i name="e_wo_entrp">   -185.10712560 </i>
    <i name="e_0_energy">   -185.10798253 </i>
   </energy>
  </scstep>
  <scstep>
   <time name="total">   23.53   23.70</time>
   <energy>
    <i name="e_fr_energy">   -185.10915389 </i>
    <i name="e_wo_entrp">   -185.10743594 </i>
    <i name="e_0_energy">   -185.10829491 </i>
   </energy>
  </scstep>
  <scstep>
   <time name="total">   23.71   23.89</time>
   <energy>
    <i name="e_fr_energy">   -185.10930204 </i>
    <i name="e_wo_entrp">   -185.10757975 </i>
    <i name="e_0_energy">   -185.10844090 </i>
   </energy>
  </scstep>
  <scstep>
   <time name="total">   23.66   23.83</time>
   <energy>
    <i name="e_fr_energy">   -185.10935624 </i>
    <i name="e_wo_entrp">   -185.10762953 </i>
    <i name="e_0_energy">   -185.10849289 </i>
   </energy>
  </scstep>
  <scstep>
   <time name="total">   23.71   23.88</time>
   <energy>
    <i name="e_fr_energy">   -185.10937827 </i>
    <i name="e_wo_entrp">   -185.10764827 </i>
    <i name="e_0_energy">   -185.10851327 </i>
   </energy>
  </scstep>
  <scstep>
   <time name="total">   23.69   23.87</time>
   <energy>
    <i name="e_fr_energy">   -185.10938996 </i>
    <i name="e_wo_entrp">   -185.10765768 </i>
    <i name="e_0_energy">   -185.10852382 </i>
   </energy>
  </scstep>
  <scstep>
   <time name="total">   23.61   23.78</time>
   <energy>
    <i name="e_fr_energy">   -185.10939472 </i>
    <i name="e_wo_entrp">   -185.10766159 </i>
    <i name="e_0_energy">   -185.10852815 </i>
   </energy>
  </scstep>
  <scstep>
   <time name="total">   23.72   23.90</time>
   <energy>
    <i name="e_fr_energy">   -185.10939681 </i>
    <i name="e_wo_entrp">   -185.10766327 </i>
    <i name="e_0_energy">   -185.10853004 </i>
   </energy>
  </scstep>
  <scstep>
   <time name="total">   23.76   23.94</time>
   <energy>
    <i name="e_fr_energy">   -185.10939782 </i>
    <i name="e_wo_entrp">   -185.10766436 </i>
    <i name="e_0_energy">   -185.10853109 </i>
   </energy>
  </scstep>
  <scstep>
   <time name="total">   23.59   23.76</time>
   <energy>
    <i name="e_fr_energy">   -185.10939822 </i>
    <i name="e_wo_entrp">   -185.10766488 </i>
    <i name="e_0_energy">   -185.10853155 </i>
   </energy>
  </scstep>
  <scstep>
   <time name="total">   23.74   23.92</time>
   <energy>
    <i name="e_fr_energy">   -185.10939837 </i>
    <i name="e_wo_entrp">   -185.10766523 </i>
    <i name="e_0_energy">   -185.10853180 </i>
   </energy>
  </scstep>
  <scstep>
   <time name="total">   23.65   23.82</time>
   <energy>
    <i name="e_fr_energy">   -185.10939845 </i>
    <i name="e_wo_entrp">   -185.10766568 </i>
    <i name="e_0_energy">   -185.10853207 </i>
   </energy>
  </scstep>
  <scstep>
   <time name="total">   23.65   23.82</time>
   <energy>
    <i name="e_fr_energy">   -185.10939850 </i>
    <i name="e_wo_entrp">   -185.10766571 </i>
    <i name="e_0_energy">   -185.10853210 </i>
   </energy>
  </scstep>
  <scstep>
   <time name="total">   23.68   23.85</time>
   <energy>
    <i name="e_fr_energy">   -185.10939851 </i>
    <i name="e_wo_entrp">   -185.10766573 </i>
    <i name="e_0_energy">   -185.10853212 </i>
   </energy>
  </scstep>
  <scstep>
   <time name="total">   40.92   41.22</time>
   <energy>
    <i name="e_fr_energy">   -185.10939852 </i>
    <i name="e_wo_entrp">   -185.10766582 </i>
    <i name="e_0_energy">   -185.10853217 </i>
   </energy>
  </scstep>
  <scstep>
   <time name="total">   23.69   23.87</time>
   <energy>
    <i name="e_fr_energy">   -185.10939846 </i>
    <i name="e_wo_entrp">   -185.10766572 </i>
    <i name="e_0_energy">   -185.10853209 </i>
   </energy>
  </scstep>
  <scstep>
   <time name="total">   23.72   23.89</time>
   <energy>
    <i name="e_fr_energy">   -185.10939853 </i>
    <i name="e_wo_entrp">   -185.10766579 </i>
    <i name="e_0_energy">   -185.10853216 </i>
   </energy>
  </scstep>
  <scstep>
   <time name="total">   23.61   23.78</time>
   <energy>
    <i name="e_fr_energy">   -185.10939853 </i>
    <i name="e_wo_entrp">   -185.10766579 </i>
    <i name="e_0_energy">   -185.10853216 </i>
   </energy>
  </scstep>
  <scstep>
   <time name="total">   23.69   23.86</time>
   <energy>
    <i name="e_fr_energy">   -185.10939853 </i>
    <i name="e_wo_entrp">   -185.10766579 </i>
    <i name="e_0_energy">   -185.10853216 </i>
   </energy>
  </scstep>
  <scstep>
   <time name="total">   23.79   23.97</time>
   <energy>
    <i name="e_fr_energy">   -185.10939853 </i>
    <i name="e_wo_entrp">   -185.10766579 </i>
    <i name="e_0_energy">   -185.10853216 </i>
   </energy>
  </scstep>
  <scstep>
   <time name="total">   23.21   23.37</time>
   <energy>
    <i name="e_fr_energy">   -185.10939853 </i>
    <i name="e_wo_entrp">   -185.10766579 </i>
    <i name="e_0_energy">   -185.10853216 </i>
   </energy>
  </scstep>
  <scstep>
   <time name="total">   23.70   23.86</time>
   <energy>
    <i name="e_fr_energy">   -185.10939853 </i>
    <i name="e_wo_entrp">   -185.10766579 </i>
    <i name="e_0_energy">   -185.10853216 </i>
   </energy>
  </scstep>
  <scstep>
   <time name="total">   27.11   27.31</time>
   <energy>
    <i name="alphaZ">    642.67622853 </i>
    <i name="ewald">  -9539.36092438 </i>
    <i name="hartreedc">  -2223.35024510 </i>
    <i name="XCdc">    480.37826316 </i>
    <i name="pawpsdc">  12956.38291783 </i>
    <i name="pawaedc"> -12936.95249252 </i>
    <i name="eentropy">     -0.00173274 </i>
    <i name="bandstr">  -1087.04885852 </i>
    <i name="atom">  11522.16744521 </i>
    <i name="e_fr_energy">   -185.10939853 </i>
    <i name="e_wo_entrp">   -185.10766579 </i>
    <i name="e_0_energy">   -185.10853216 </i>
   </energy>
  </scstep>
  <structure>
   <crystal>
    <varray name="basis" >
     <v>       4.93108480       0.00000000      -2.81572167 </v>
     <v>      -1.66194738       4.64257776      -2.81572167 </v>
     <v>       0.00000000       0.00000000       5.67837000 </v>
    </varray>
    <i name="volume">    129.99460995 </i>
    <varray name="rec_basis" >
     <v>       0.20279513       0.07259649       0.00000000 </v>
     <v>       0.00000000       0.21539758       0.00000000 </v>
     <v>       0.10055961       0.14280703       0.17610688 </v>
    </varray>
   </crystal>
   <varray name="positions" >
    <v>       0.00000000       0.00000000       0.00000000 </v>
    <v>       0.50000000       0.50000000       0.00000000 </v>
    <v>       0.24645000       0.25355000       0.50000000 </v>
    <v>       0.25000000       0.25000000       0.00000000 </v>
    <v>       0.75355000       0.74645000       0.50000000 </v>
    <v>       0.75000000       0.75000000       0.00000000 </v>
    <v>       0.25355000       0.75355000       0.00710000 </v>
    <v>       0.74645000       0.24645000       0.99290000 </v>
    <v>       0.25000000       0.75000000       0.50000000 </v>
    <v>       0.75000000       0.25000000       0.50000000 </v>
   </varray>
  </structure>
  <varray name="forces" >
   <v>       0.00000000       0.00000000       0.00000000 </v>
   <v>       0.00000000       0.00000000       0.00000000 </v>
   <v>       0.00000000       0.00000000       0.00000000 </v>
   <v>       0.00000000       0.00000000       0.00000000 </v>
   <v>       0.00000000       0.00000000       0.00000000 </v>
   <v>       0.00000000       0.00000000       0.00000000 </v>
   <v>       0.00000000       0.00000000       0.00000000 </v>
   <v>       0.00000000       0.00000000       0.00000000 </v>
   <v>       0.00000000       0.00000000       0.00000000 </v>
   <v>       0.00000000       0.00000000       0.00000000 </v>
  </varray>
  <varray name="stress" >
   <v>       0.00000000       0.00000000       0.00000000 </v>
   <v>       0.00000000       0.00000000       0.00000000 </v>
   <v>       0.00000000       0.00000000       0.00000000 </v>
  </varray>
  <energy>
   <i name="e_fr_energy">   -185.10939853 </i>
   <i name="e_wo_entrp">   -185.10766579 </i>
   <i name="e_0_energy">   -185.10853216 </i>
  </energy>
  <time name="totalsc">  942.30  949.88</time>
  <eigenvalues>
   <array>
    <dimension dim="1">band</dimension>
    <dimension dim="2">kpoint</dimension>
    <dimension dim="3">spin</dimension>
    <field>eigene</field>
    <field>occ</field>
    <set>
     <set comment="spin 1">
      <set comment="kpoint 1">
       <r>  -50.8845    1.0000 </r>
       <r>  -50.7193    1.0000 </r>
       <r>  -50.7128    1.0000 </r>
       <r>  -50.7105    1.0000 </r>
       <r>  -50.6346    1.0000 </r>
       <r>  -50.6245    1.0000 </r>
       <r>  -25.2938    1.0000 </r>
       <r>  -24.7821    1.0000 </r>
       <r>  -24.7747    1.0000 </r>
       <r>  -24.7698    1.0000 </r>
       <r>  -24.5627    1.0000 </r>
       <r>  -24.5505    1.0000 </r>
       <r>  -24.5377    1.0000 </r>
       <r>  -24.0500    1.0000 </r>
       <r>  -24.0424    1.0000 </r>
       <r>  -24.0381    1.0000 </r>
       <r>  -23.8661    1.0000 </r>
       <r>  -23.8489    1.0000 </r>
       <r>  -23.7913    1.0000 </r>
       <r>  -23.7877    1.0000 </r>
       <r>  -23.7822    1.0000 </r>
       <r>  -23.7441    1.0000 </r>
       <r>  -23.7389    1.0000 </r>
       <r>  -23.7264    1.0000 </r>
       <r>    0.3491    1.0000 </r>
       <r>    1.8670    1.0000 </r>
       <r>    2.7178    1.0000 </r>
       <r>    4.7684    1.0000 </r>
       <r>    4.7715    1.0000 </r>
       <r>    4.8067    1.0000 </r>
       <r>    7.2225    1.0000 </r>
       <r>    7.5815    1.0000 </r>
       <r>    7.5876    1.0000 </r>
       <r>    7.5958    1.0000 </r>
       <r>    7.8294    1.0000 </r>
       <r>    7.8629    1.0000 </r>
       <r>    9.1522    1.0000 </r>
       <r>    9.1682    1.0000 </r>
       <r>    9.1798    1.0000 </r>
       <r>   10.4260    1.0000 </r>
       <r>   10.4273    1.0000 </r>
       <r>   10.5265    1.0000 </r>
       <r>   10.5349    1.0000 </r>
       <r>   10.6084    1.0000 </r>
       <r>   10.6427    1.0000 </r>
       <r>   10.6431    1.0000 </r>
       <r>   10.6806    1.0000 </r>
       <r>   10.6910    1.0000 </r>
       <r>   12.3308    0.0000 </r>
       <r>   12.3371    0.0000 </r>
       <r>   12.3960    0.0000 </r>
       <r>   13.2203    0.0000 </r>
       <r>   13.3410    0.0000 </r>
       <r>   13.4369    0.0000 </r>
       <r>   13.5220    0.0000 </r>
       <r>   14.0057    0.0000 </r>
       <r>   14.0064    0.0000 </r>
       <r>   14.1527    0.0000 </r>
       <r>   14.7349    0.0000 </r>
       <r>   15.8367    0.0000 </r>
      </set>
      <set comment="kpoint 2">
       <r>  -50.8781    1.0000 </r>
       <r>  -50.7223    1.0000 </r>
       <r>  -50.7124    1.0000 </r>
       <r>  -50.7081    1.0000 </r>
       <r>  -50.6378    1.0000 </r>
       <r>  -50.6279    1.0000 </r>
       <r>  -25.2605    1.0000 </r>
       <r>  -24.7840    1.0000 </r>
       <r>  -24.7469    1.0000 </r>
       <r>  -24.7407    1.0000 </r>
       <r>  -24.5475    1.0000 </r>
       <r>  -24.5349    1.0000 </r>
       <r>  -24.5225    1.0000 </r>
       <r>  -24.0598    1.0000 </r>
       <r>  -24.0529    1.0000 </r>
       <r>  -24.0313    1.0000 </r>
       <r>  -23.8877    1.0000 </r>
       <r>  -23.8720    1.0000 </r>
       <r>  -23.8323    1.0000 </r>
       <r>  -23.7935    1.0000 </r>
       <r>  -23.7883    1.0000 </r>
       <r>  -23.7578    1.0000 </r>
       <r>  -23.7529    1.0000 </r>
       <r>  -23.7401    1.0000 </r>
       <r>    0.4892    1.0000 </r>
       <r>    1.9711    1.0000 </r>
       <r>    2.7851    1.0000 </r>
       <r>    4.5704    1.0000 </r>
       <r>    4.9253    1.0000 </r>
       <r>    4.9517    1.0000 </r>
       <r>    7.2263    1.0000 </r>
       <r>    7.5389    1.0000 </r>
       <r>    7.6656    1.0000 </r>
       <r>    7.6755    1.0000 </r>
       <r>    7.8250    1.0000 </r>
       <r>    7.8569    1.0000 </r>
       <r>    8.6800    1.0000 </r>
       <r>    8.9678    1.0000 </r>
       <r>    8.9820    1.0000 </r>
       <r>   10.0547    1.0000 </r>
       <r>   10.2782    1.0000 </r>
       <r>   10.3827    1.0000 </r>
       <r>   10.5115    1.0000 </r>
       <r>   10.5778    1.0000 </r>
       <r>   10.7376    1.0000 </r>
       <r>   10.7563    1.0000 </r>
       <r>   10.8402    1.0000 </r>
       <r>   11.0532    1.0000 </r>
       <r>   12.3699    0.0000 </r>
       <r>   12.4170    0.0000 </r>
       <r>   12.5137    0.0000 </r>
       <r>   12.7007    0.0000 </r>
       <r>   12.7472    0.0000 </r>
       <r>   13.2693    0.0000 </r>
       <r>   13.3585    0.0000 </r>
       <r>   14.0206    0.0000 </r>
       <r>   14.7638    0.0000 </r>
       <r>   14.8420    0.0000 </r>
       <r>   14.9138    0.0000 </r>
       <r>   15.4958    0.0000 </r>
      </set>
      <set comment="kpoint 3">
       <r>  -50.8599    1.0000 </r>
       <r>  -50.7399    1.0000 </r>
       <r>  -50.7046    1.0000 </r>
       <r>  -50.6990    1.0000 </r>
       <r>  -50.6468    1.0000 </r>
       <r>  -50.6375    1.0000 </r>
       <r>  -25.1702    1.0000 </r>
       <r>  -24.8100    1.0000 </r>
       <r>  -24.6564    1.0000 </r>
       <r>  -24.6527    1.0000 </r>
       <r>  -24.5039    1.0000 </r>
       <r>  -24.4899    1.0000 </r>
       <r>  -24.4781    1.0000 </r>
       <r>  -24.0964    1.0000 </r>
       <r>  -24.0908    1.0000 </r>
       <r>  -23.9996    1.0000 </r>
       <r>  -23.9640    1.0000 </r>
       <r>  -23.9533    1.0000 </r>
       <r>  -23.9529    1.0000 </r>
       <r>  -23.8018    1.0000 </r>
       <r>  -23.7963    1.0000 </r>
       <r>  -23.7862    1.0000 </r>
       <r>  -23.7796    1.0000 </r>
       <r>  -23.7670    1.0000 </r>
       <r>    0.8921    1.0000 </r>
       <r>    2.2672    1.0000 </r>
       <r>    2.9297    1.0000 </r>
       <r>    4.0338    1.0000 </r>
       <r>    5.3768    1.0000 </r>
       <r>    5.4095    1.0000 </r>
       <r>    7.0491    1.0000 </r>
       <r>    7.3459    1.0000 </r>
       <r>    7.7917    1.0000 </r>
       <r>    7.8230    1.0000 </r>
       <r>    7.8694    1.0000 </r>
       <r>    7.8876    1.0000 </r>
       <r>    8.1401    1.0000 </r>
       <r>    8.6180    1.0000 </r>
       <r>    8.6268    1.0000 </r>
       <r>    9.2627    1.0000 </r>
       <r>    9.7817    1.0000 </r>
       <r>    9.8498    1.0000 </r>
       <r>   10.3187    1.0000 </r>
       <r>   10.3486    1.0000 </r>
       <r>   11.1151    1.0000 </r>
       <r>   11.1286    1.0000 </r>
       <r>   11.1691    1.0000 </r>
       <r>   11.6493    1.0000 </r>
       <r>   11.8376    1.0000 </r>
       <r>   11.8876    1.0000 </r>
       <r>   12.6585    0.0000 </r>
       <r>   12.7563    0.0000 </r>
       <r>   12.8082    0.0000 </r>
       <r>   13.2904    0.0000 </r>
       <r>   13.3704    0.0000 </r>
       <r>   14.0224    0.0000 </r>
       <r>   14.6780    0.0000 </r>
       <r>   15.1763    0.0000 </r>
       <r>   15.3090    0.0000 </r>
       <r>   15.3150    0.0000 </r>
      </set>
      <set comment="kpoint 4">
       <r>  -50.8326    1.0000 </r>
       <r>  -50.7675    1.0000 </r>
       <r>  -50.6915    1.0000 </r>
       <r>  -50.6850    1.0000 </r>
       <r>  -50.6602    1.0000 </r>
       <r>  -50.6517    1.0000 </r>
       <r>  -25.0505    1.0000 </r>
       <r>  -24.8592    1.0000 </r>
       <r>  -24.5282    1.0000 </r>
       <r>  -24.5269    1.0000 </r>
       <r>  -24.4371    1.0000 </r>
       <r>  -24.4240    1.0000 </r>
       <r>  -24.4148    1.0000 </r>
       <r>  -24.1506    1.0000 </r>
       <r>  -24.1464    1.0000 </r>
       <r>  -24.1202    1.0000 </r>
       <r>  -24.0841    1.0000 </r>
       <r>  -24.0788    1.0000 </r>
       <r>  -23.9505    1.0000 </r>
       <r>  -23.8339    1.0000 </r>
       <r>  -23.8069    1.0000 </r>
       <r>  -23.7994    1.0000 </r>
       <r>  -23.7961    1.0000 </r>
       <r>  -23.7848    1.0000 </r>
       <r>    1.5071    1.0000 </r>
       <r>    2.6945    1.0000 </r>
       <r>    2.8680    1.0000 </r>
       <r>    3.4585    1.0000 </r>
       <r>    6.0768    1.0000 </r>
       <r>    6.1199    1.0000 </r>
       <r>    6.6473    1.0000 </r>
       <r>    6.9590    1.0000 </r>
       <r>    7.5884    1.0000 </r>
       <r>    7.6350    1.0000 </r>
       <r>    8.0317    1.0000 </r>
       <r>    8.0628    1.0000 </r>
       <r>    8.1176    1.0000 </r>
       <r>    8.3194    1.0000 </r>
       <r>    8.3256    1.0000 </r>
       <r>    8.6529    1.0000 </r>
       <r>    9.2992    1.0000 </r>
       <r>    9.3185    1.0000 </r>
       <r>    9.9169    1.0000 </r>
       <r>    9.9304    1.0000 </r>
       <r>   11.4891    1.0000 </r>
       <r>   11.4996    1.0000 </r>
       <r>   11.7199    1.0000 </r>
       <r>   11.7491    1.0000 </r>
       <r>   11.8077    1.0000 </r>
       <r>   12.1160    0.2366 </r>
       <r>   12.6254    0.0000 </r>
       <r>   12.7440    0.0000 </r>
       <r>   12.8077    0.0000 </r>
       <r>   13.0789    0.0000 </r>
       <r>   13.1482    0.0000 </r>
       <r>   13.6552    0.0000 </r>
       <r>   14.1862    0.0000 </r>
       <r>   14.9946    0.0000 </r>
       <r>   15.3665    0.0000 </r>
       <r>   15.4904    0.0000 </r>
      </set>
      <set comment="kpoint 5">
       <r>  -50.8001    1.0000 </r>
       <r>  -50.8001    1.0000 </r>
       <r>  -50.6759    1.0000 </r>
       <r>  -50.6759    1.0000 </r>
       <r>  -50.6684    1.0000 </r>
       <r>  -50.6684    1.0000 </r>
       <r>  -24.9392    1.0000 </r>
       <r>  -24.9391    1.0000 </r>
       <r>  -24.4294    1.0000 </r>
       <r>  -24.4258    1.0000 </r>
       <r>  -24.4156    1.0000 </r>
       <r>  -24.4123    1.0000 </r>
       <r>  -24.2889    1.0000 </r>
       <r>  -24.2887    1.0000 </r>
       <r>  -24.1774    1.0000 </r>
       <r>  -24.1768    1.0000 </r>
       <r>  -24.1665    1.0000 </r>
       <r>  -24.1660    1.0000 </r>
       <r>  -23.8924    1.0000 </r>
       <r>  -23.8924    1.0000 </r>
       <r>  -23.8049    1.0000 </r>
       <r>  -23.8048    1.0000 </r>
       <r>  -23.7952    1.0000 </r>
       <r>  -23.7952    1.0000 </r>
       <r>    2.2434    1.0000 </r>
       <r>    2.2434    1.0000 </r>
       <r>    3.1195    1.0000 </r>
       <r>    3.1196    1.0000 </r>
       <r>    6.5950    1.0000 </r>
       <r>    6.5951    1.0000 </r>
       <r>    6.9167    1.0000 </r>
       <r>    6.9171    1.0000 </r>
       <r>    6.9716    1.0000 </r>
       <r>    6.9716    1.0000 </r>
       <r>    8.1151    1.0000 </r>
       <r>    8.1192    1.0000 </r>
       <r>    8.1508    1.0000 </r>
       <r>    8.1560    1.0000 </r>
       <r>    8.3076    1.0000 </r>
       <r>    8.3088    1.0000 </r>
       <r>    9.4436    1.0000 </r>
       <r>    9.4470    1.0000 </r>
       <r>    9.4756    1.0000 </r>
       <r>    9.4791    1.0000 </r>
       <r>   11.7367    1.0000 </r>
       <r>   11.7381    1.0000 </r>
       <r>   11.7590    1.0000 </r>
       <r>   11.7606    1.0000 </r>
       <r>   12.4343    0.0000 </r>
       <r>   12.4345    0.0000 </r>
       <r>   12.6498    0.0000 </r>
       <r>   12.6505    0.0000 </r>
       <r>   12.7578    0.0000 </r>
       <r>   12.7589    0.0000 </r>
       <r>   12.8430    0.0000 </r>
       <r>   12.8452    0.0000 </r>
       <r>   14.5503    0.0000 </r>
       <r>   14.5506    0.0000 </r>
       <r>   15.6032    0.0000 </r>
       <r>   15.6404    0.0000 </r>
      </set>
      <set comment="kpoint 6">
       <r>  -50.8679    1.0000 </r>
       <r>  -50.7246    1.0000 </r>
       <r>  -50.7196    1.0000 </r>
       <r>  -50.6990    1.0000 </r>
       <r>  -50.6410    1.0000 </r>
       <r>  -50.6351    1.0000 </r>
       <r>  -25.2073    1.0000 </r>
       <r>  -24.7757    1.0000 </r>
       <r>  -24.7346    1.0000 </r>
       <r>  -24.6731    1.0000 </r>
       <r>  -24.5339    1.0000 </r>
       <r>  -24.5066    1.0000 </r>
       <r>  -24.4893    1.0000 </r>
       <r>  -24.0889    1.0000 </r>
       <r>  -24.0559    1.0000 </r>
       <r>  -24.0230    1.0000 </r>
       <r>  -23.9488    1.0000 </r>
       <r>  -23.8888    1.0000 </r>
       <r>  -23.8881    1.0000 </r>
       <r>  -23.8185    1.0000 </r>
       <r>  -23.7879    1.0000 </r>
       <r>  -23.7792    1.0000 </r>
       <r>  -23.7674    1.0000 </r>
       <r>  -23.7653    1.0000 </r>
       <r>    0.7182    1.0000 </r>
       <r>    2.1399    1.0000 </r>
       <r>    2.8839    1.0000 </r>
       <r>    4.3564    1.0000 </r>
       <r>    4.9553    1.0000 </r>
       <r>    5.3104    1.0000 </r>
       <r>    7.2160    1.0000 </r>
       <r>    7.5397    1.0000 </r>
       <r>    7.6190    1.0000 </r>
       <r>    7.6585    1.0000 </r>
       <r>    7.8759    1.0000 </r>
       <r>    7.9809    1.0000 </r>
       <r>    8.3081    1.0000 </r>
       <r>    8.4768    1.0000 </r>
       <r>    8.9322    1.0000 </r>
       <r>    9.7993    1.0000 </r>
       <r>    9.8103    1.0000 </r>
       <r>   10.0068    1.0000 </r>
       <r>   10.4534    1.0000 </r>
       <r>   10.5153    1.0000 </r>
       <r>   10.7821    1.0000 </r>
       <r>   11.0442    1.0000 </r>
       <r>   11.1179    1.0000 </r>
       <r>   11.3741    1.0000 </r>
       <r>   11.8774    1.0000 </r>
       <r>   12.3495    0.0000 </r>
       <r>   12.3537    0.0000 </r>
       <r>   12.5274    0.0000 </r>
       <r>   12.9708    0.0000 </r>
       <r>   13.3238    0.0000 </r>
       <r>   13.3792    0.0000 </r>
       <r>   14.3509    0.0000 </r>
       <r>   14.8367    0.0000 </r>
       <r>   15.0403    0.0000 </r>
       <r>   15.1507    0.0000 </r>
       <r>   15.3223    0.0000 </r>
      </set>
      <set comment="kpoint 7">
       <r>  -50.8467    1.0000 </r>
       <r>  -50.7454    1.0000 </r>
       <r>  -50.7133    1.0000 </r>
       <r>  -50.6851    1.0000 </r>
       <r>  -50.6535    1.0000 </r>
       <r>  -50.6442    1.0000 </r>
       <r>  -25.1045    1.0000 </r>
       <r>  -24.7994    1.0000 </r>
       <r>  -24.6548    1.0000 </r>
       <r>  -24.5566    1.0000 </r>
       <r>  -24.4933    1.0000 </r>
       <r>  -24.4604    1.0000 </r>
       <r>  -24.4208    1.0000 </r>
       <r>  -24.1574    1.0000 </r>
       <r>  -24.0852    1.0000 </r>
       <r>  -24.0722    1.0000 </r>
       <r>  -24.0019    1.0000 </r>
       <r>  -23.9883    1.0000 </r>
       <r>  -23.9454    1.0000 </r>
       <r>  -23.8418    1.0000 </r>
       <r>  -23.8115    1.0000 </r>
       <r>  -23.8028    1.0000 </r>
       <r>  -23.7908    1.0000 </r>
       <r>  -23.7888    1.0000 </r>
       <r>    1.1935    1.0000 </r>
       <r>    2.4800    1.0000 </r>
       <r>    3.0094    1.0000 </r>
       <r>    3.8230    1.0000 </r>
       <r>    5.3321    1.0000 </r>
       <r>    5.9383    1.0000 </r>
       <r>    6.9741    1.0000 </r>
       <r>    7.2921    1.0000 </r>
       <r>    7.4691    1.0000 </r>
       <r>    7.6994    1.0000 </r>
       <r>    7.9495    1.0000 </r>
       <r>    8.0024    1.0000 </r>
       <r>    8.1364    1.0000 </r>
       <r>    8.2040    1.0000 </r>
       <r>    8.6750    1.0000 </r>
       <r>    9.0958    1.0000 </r>
       <r>    9.1845    1.0000 </r>
       <r>    9.6131    1.0000 </r>
       <r>   10.2369    1.0000 </r>
       <r>   10.2472    1.0000 </r>
       <r>   11.1651    1.0000 </r>
       <r>   11.2299    1.0000 </r>
       <r>   11.5595    1.0000 </r>
       <r>   11.5804    1.0000 </r>
       <r>   11.7589    1.0000 </r>
       <r>   11.8637    1.0000 </r>
       <r>   12.2976    0.0000 </r>
       <r>   12.7255    0.0000 </r>
       <r>   13.1378    0.0000 </r>
       <r>   13.2885    0.0000 </r>
       <r>   13.4104    0.0000 </r>
       <r>   14.2419    0.0000 </r>
       <r>   14.5628    0.0000 </r>
       <r>   15.2352    0.0000 </r>
       <r>   15.2793    0.0000 </r>
       <r>   15.4894    0.0000 </r>
      </set>
      <set comment="kpoint 8">
       <r>  -50.8178    1.0000 </r>
       <r>  -50.7747    1.0000 </r>
       <r>  -50.7011    1.0000 </r>
       <r>  -50.6696    1.0000 </r>
       <r>  -50.6686    1.0000 </r>
       <r>  -50.6571    1.0000 </r>
       <r>  -24.9835    1.0000 </r>
       <r>  -24.8561    1.0000 </r>
       <r>  -24.5288    1.0000 </r>
       <r>  -24.4318    1.0000 </r>
       <r>  -24.4259    1.0000 </r>
       <r>  -24.4081    1.0000 </r>
       <r>  -24.3456    1.0000 </r>
       <r>  -24.2595    1.0000 </r>
       <r>  -24.2101    1.0000 </r>
       <r>  -24.1334    1.0000 </r>
       <r>  -24.1188    1.0000 </r>
       <r>  -24.0485    1.0000 </r>
       <r>  -23.9355    1.0000 </r>
       <r>  -23.8565    1.0000 </r>
       <r>  -23.8486    1.0000 </r>
       <r>  -23.8237    1.0000 </r>
       <r>  -23.8050    1.0000 </r>
       <r>  -23.7911    1.0000 </r>
       <r>    1.8544    1.0000 </r>
       <r>    2.7819    1.0000 </r>
       <r>    2.9099    1.0000 </r>
       <r>    3.3408    1.0000 </r>
       <r>    5.9954    1.0000 </r>
       <r>    6.6248    1.0000 </r>
       <r>    6.7585    1.0000 </r>
       <r>    6.8500    1.0000 </r>
       <r>    7.0974    1.0000 </r>
       <r>    7.6445    1.0000 </r>
       <r>    7.8941    1.0000 </r>
       <r>    7.9139    1.0000 </r>
       <r>    8.0801    1.0000 </r>
       <r>    8.1069    1.0000 </r>
       <r>    8.4097    1.0000 </r>
       <r>    8.5674    1.0000 </r>
       <r>    9.0562    1.0000 </r>
       <r>    9.4930    1.0000 </r>
       <r>    9.7949    1.0000 </r>
       <r>    9.8323    1.0000 </r>
       <r>   11.3377    1.0000 </r>
       <r>   11.4477    1.0000 </r>
       <r>   11.7309    1.0000 </r>
       <r>   11.8777    1.0000 </r>
       <r>   11.9312    1.0000 </r>
       <r>   12.1663    0.0000 </r>
       <r>   12.2648    0.0000 </r>
       <r>   12.8686    0.0000 </r>
       <r>   12.9735    0.0000 </r>
       <r>   13.1371    0.0000 </r>
       <r>   13.2870    0.0000 </r>
       <r>   13.3256    0.0000 </r>
       <r>   14.6593    0.0000 </r>
       <r>   14.9828    0.0000 </r>
       <r>   15.3195    0.0000 </r>
       <r>   15.4514    0.0000 </r>
      </set>
      <set comment="kpoint 9">
       <r>  -50.8071    1.0000 </r>
       <r>  -50.7855    1.0000 </r>
       <r>  -50.6859    1.0000 </r>
       <r>  -50.6854    1.0000 </r>
       <r>  -50.6729    1.0000 </r>
       <r>  -50.6520    1.0000 </r>
       <r>  -24.9470    1.0000 </r>
       <r>  -24.8805    1.0000 </r>
       <r>  -24.4732    1.0000 </r>
       <r>  -24.4417    1.0000 </r>
       <r>  -24.4142    1.0000 </r>
       <r>  -24.3719    1.0000 </r>
       <r>  -24.3436    1.0000 </r>
       <r>  -24.2536    1.0000 </r>
       <r>  -24.2292    1.0000 </r>
       <r>  -24.2108    1.0000 </r>
       <r>  -24.0971    1.0000 </r>
       <r>  -24.0900    1.0000 </r>
       <r>  -23.9168    1.0000 </r>
       <r>  -23.8779    1.0000 </r>
       <r>  -23.8432    1.0000 </r>
       <r>  -23.8255    1.0000 </r>
       <r>  -23.8153    1.0000 </r>
       <r>  -23.7848    1.0000 </r>
       <r>    2.0837    1.0000 </r>
       <r>    2.5861    1.0000 </r>
       <r>    3.0213    1.0000 </r>
       <r>    3.2829    1.0000 </r>
       <r>    6.3643    1.0000 </r>
       <r>    6.5330    1.0000 </r>
       <r>    6.6795    1.0000 </r>
       <r>    6.7860    1.0000 </r>
       <r>    6.9665    1.0000 </r>
       <r>    7.5882    1.0000 </r>
       <r>    7.8755    1.0000 </r>
       <r>    7.9549    1.0000 </r>
       <r>    8.0741    1.0000 </r>
       <r>    8.1982    1.0000 </r>
       <r>    8.2768    1.0000 </r>
       <r>    8.4021    1.0000 </r>
       <r>    9.2703    1.0000 </r>
       <r>    9.4913    1.0000 </r>
       <r>    9.5973    1.0000 </r>
       <r>    9.7294    1.0000 </r>
       <r>   11.3430    1.0000 </r>
       <r>   11.3820    1.0000 </r>
       <r>   11.7813    1.0000 </r>
       <r>   11.9832    1.0000 </r>
       <r>   12.1338    0.0243 </r>
       <r>   12.1617    0.0000 </r>
       <r>   12.4018    0.0000 </r>
       <r>   12.6920    0.0000 </r>
       <r>   13.0549    0.0000 </r>
       <r>   13.0897    0.0000 </r>
       <r>   13.1523    0.0000 </r>
       <r>   13.1752    0.0000 </r>
       <r>   14.6087    0.0000 </r>
       <r>   14.9400    0.0000 </r>
       <r>   15.1394    0.0000 </r>
       <r>   15.6712    0.0000 </r>
      </set>
      <set comment="kpoint 10">
       <r>  -50.8377    1.0000 </r>
       <r>  -50.7548    1.0000 </r>
       <r>  -50.6997    1.0000 </r>
       <r>  -50.6895    1.0000 </r>
       <r>  -50.6688    1.0000 </r>
       <r>  -50.6379    1.0000 </r>
       <r>  -25.0647    1.0000 </r>
       <r>  -24.8113    1.0000 </r>
       <r>  -24.6043    1.0000 </r>
       <r>  -24.5286    1.0000 </r>
       <r>  -24.4924    1.0000 </r>
       <r>  -24.4204    1.0000 </r>
       <r>  -24.3997    1.0000 </r>
       <r>  -24.1591    1.0000 </r>
       <r>  -24.1366    1.0000 </r>
       <r>  -24.1196    1.0000 </r>
       <r>  -24.0322    1.0000 </r>
       <r>  -23.9811    1.0000 </r>
       <r>  -23.9742    1.0000 </r>
       <r>  -23.8321    1.0000 </r>
       <r>  -23.8277    1.0000 </r>
       <r>  -23.8211    1.0000 </r>
       <r>  -23.8168    1.0000 </r>
       <r>  -23.7676    1.0000 </r>
       <r>    1.3871    1.0000 </r>
       <r>    2.6045    1.0000 </r>
       <r>    3.0180    1.0000 </r>
       <r>    3.6913    1.0000 </r>
       <r>    5.6340    1.0000 </r>
       <r>    5.9719    1.0000 </r>
       <r>    6.8919    1.0000 </r>
       <r>    7.0320    1.0000 </r>
       <r>    7.3227    1.0000 </r>
       <r>    7.9131    1.0000 </r>
       <r>    7.9921    1.0000 </r>
       <r>    8.0503    1.0000 </r>
       <r>    8.0823    1.0000 </r>
       <r>    8.1838    1.0000 </r>
       <r>    8.4441    1.0000 </r>
       <r>    8.9004    1.0000 </r>
       <r>    9.0692    1.0000 </r>
       <r>    9.5349    1.0000 </r>
       <r>   10.1112    1.0000 </r>
       <r>   10.1445    1.0000 </r>
       <r>   11.2074    1.0000 </r>
       <r>   11.2888    1.0000 </r>
       <r>   11.4192    1.0000 </r>
       <r>   11.6296    1.0000 </r>
       <r>   11.9583    1.0000 </r>
       <r>   12.0804    0.9640 </r>
       <r>   12.0959    0.7607 </r>
       <r>   13.0233    0.0000 </r>
       <r>   13.0434    0.0000 </r>
       <r>   13.2247    0.0000 </r>
       <r>   13.3573    0.0000 </r>
       <r>   14.0049    0.0000 </r>
       <r>   14.3982    0.0000 </r>
       <r>   14.9753    0.0000 </r>
       <r>   15.2849    0.0000 </r>
       <r>   15.6387    0.0000 </r>
      </set>
      <set comment="kpoint 11">
       <r>  -50.8619    1.0000 </r>
       <r>  -50.7305    1.0000 </r>
       <r>  -50.7089    1.0000 </r>
       <r>  -50.7039    1.0000 </r>
       <r>  -50.6538    1.0000 </r>
       <r>  -50.6285    1.0000 </r>
       <r>  -25.1774    1.0000 </r>
       <r>  -24.7709    1.0000 </r>
       <r>  -24.7074    1.0000 </r>
       <r>  -24.6558    1.0000 </r>
       <r>  -24.5370    1.0000 </r>
       <r>  -24.4863    1.0000 </r>
       <r>  -24.4640    1.0000 </r>
       <r>  -24.0921    1.0000 </r>
       <r>  -24.0735    1.0000 </r>
       <r>  -24.0205    1.0000 </r>
       <r>  -23.9941    1.0000 </r>
       <r>  -23.9129    1.0000 </r>
       <r>  -23.8843    1.0000 </r>
       <r>  -23.8150    1.0000 </r>
       <r>  -23.8069    1.0000 </r>
       <r>  -23.8056    1.0000 </r>
       <r>  -23.8021    1.0000 </r>
       <r>  -23.7403    1.0000 </r>
       <r>    0.8460    1.0000 </r>
       <r>    2.2290    1.0000 </r>
       <r>    2.9431    1.0000 </r>
       <r>    4.3120    1.0000 </r>
       <r>    5.1140    1.0000 </r>
       <r>    5.2927    1.0000 </r>
       <r>    7.2159    1.0000 </r>
       <r>    7.3689    1.0000 </r>
       <r>    7.5374    1.0000 </r>
       <r>    7.7475    1.0000 </r>
       <r>    7.8804    1.0000 </r>
       <r>    8.1692    1.0000 </r>
       <r>    8.1941    1.0000 </r>
       <r>    8.3589    1.0000 </r>
       <r>    8.7242    1.0000 </r>
       <r>    9.5763    1.0000 </r>
       <r>    9.6932    1.0000 </r>
       <r>    9.8800    1.0000 </r>
       <r>   10.4109    1.0000 </r>
       <r>   10.4767    1.0000 </r>
       <r>   10.9982    1.0000 </r>
       <r>   11.0934    1.0000 </r>
       <r>   11.1591    1.0000 </r>
       <r>   11.3456    1.0000 </r>
       <r>   11.4898    1.0000 </r>
       <r>   12.1295    0.0475 </r>
       <r>   12.4222    0.0000 </r>
       <r>   12.8119    0.0000 </r>
       <r>   13.2155    0.0000 </r>
       <r>   13.2719    0.0000 </r>
       <r>   13.4466    0.0000 </r>
       <r>   14.3161    0.0000 </r>
       <r>   14.8788    0.0000 </r>
       <r>   15.0561    0.0000 </r>
       <r>   15.2475    0.0000 </r>
       <r>   15.5097    0.0000 </r>
      </set>
      <set comment="kpoint 12">
       <r>  -50.8761    1.0000 </r>
       <r>  -50.7193    1.0000 </r>
       <r>  -50.7130    1.0000 </r>
       <r>  -50.7106    1.0000 </r>
       <r>  -50.6428    1.0000 </r>
       <r>  -50.6250    1.0000 </r>
       <r>  -25.2496    1.0000 </r>
       <r>  -24.7623    1.0000 </r>
       <r>  -24.7504    1.0000 </r>
       <r>  -24.7411    1.0000 </r>
       <r>  -24.5512    1.0000 </r>
       <r>  -24.5315    1.0000 </r>
       <r>  -24.5075    1.0000 </r>
       <r>  -24.0575    1.0000 </r>
       <r>  -24.0466    1.0000 </r>
       <r>  -24.0455    1.0000 </r>
       <r>  -23.9157    1.0000 </r>
       <r>  -23.8518    1.0000 </r>
       <r>  -23.8288    1.0000 </r>
       <r>  -23.8058    1.0000 </r>
       <r>  -23.7952    1.0000 </r>
       <r>  -23.7741    1.0000 </r>
       <r>  -23.7704    1.0000 </r>
       <r>  -23.7265    1.0000 </r>
       <r>    0.5337    1.0000 </r>
       <r>    2.0029    1.0000 </r>
       <r>    2.8106    1.0000 </r>
       <r>    4.7144    1.0000 </r>
       <r>    4.8612    1.0000 </r>
       <r>    4.8969    1.0000 </r>
       <r>    7.2494    1.0000 </r>
       <r>    7.6198    1.0000 </r>
       <r>    7.6342    1.0000 </r>
       <r>    7.6387    1.0000 </r>
       <r>    7.6556    1.0000 </r>
       <r>    8.0423    1.0000 </r>
       <r>    8.7055    1.0000 </r>
       <r>    8.7077    1.0000 </r>
       <r>    8.9296    1.0000 </r>
       <r>   10.1288    1.0000 </r>
       <r>   10.1835    1.0000 </r>
       <r>   10.2384    1.0000 </r>
       <r>   10.5037    1.0000 </r>
       <r>   10.6062    1.0000 </r>
       <r>   10.7540    1.0000 </r>
       <r>   10.8980    1.0000 </r>
       <r>   10.9335    1.0000 </r>
       <r>   10.9983    1.0000 </r>
       <r>   11.8717    1.0000 </r>
       <r>   12.1691    0.0000 </r>
       <r>   12.6315    0.0000 </r>
       <r>   12.6536    0.0000 </r>
       <r>   13.2232    0.0000 </r>
       <r>   13.3905    0.0000 </r>
       <r>   13.5154    0.0000 </r>
       <r>   14.1319    0.0000 </r>
       <r>   14.2453    0.0000 </r>
       <r>   14.9987    0.0000 </r>
       <r>   15.2357    0.0000 </r>
       <r>   15.3860    0.0000 </r>
      </set>
      <set comment="kpoint 13">
       <r>  -50.8241    1.0000 </r>
       <r>  -50.7554    1.0000 </r>
       <r>  -50.7204    1.0000 </r>
       <r>  -50.6697    1.0000 </r>
       <r>  -50.6685    1.0000 </r>
       <r>  -50.6508    1.0000 </r>
       <r>  -24.9958    1.0000 </r>
       <r>  -24.7811    1.0000 </r>
       <r>  -24.6235    1.0000 </r>
       <r>  -24.4605    1.0000 </r>
       <r>  -24.4324    1.0000 </r>
       <r>  -24.4082    1.0000 </r>
       <r>  -24.3440    1.0000 </r>
       <r>  -24.2706    1.0000 </r>
       <r>  -24.2239    1.0000 </r>
       <r>  -24.0879    1.0000 </r>
       <r>  -24.0440    1.0000 </r>
       <r>  -23.9623    1.0000 </r>
       <r>  -23.9447    1.0000 </r>
       <r>  -23.9068    1.0000 </r>
       <r>  -23.8825    1.0000 </r>
       <r>  -23.8365    1.0000 </r>
       <r>  -23.8158    1.0000 </r>
       <r>  -23.7901    1.0000 </r>
       <r>    1.7177    1.0000 </r>
       <r>    2.8258    1.0000 </r>
       <r>    3.0980    1.0000 </r>
       <r>    3.4477    1.0000 </r>
       <r>    5.5107    1.0000 </r>
       <r>    6.6659    1.0000 </r>
       <r>    6.7706    1.0000 </r>
       <r>    7.0956    1.0000 </r>
       <r>    7.1556    1.0000 </r>
       <r>    7.4913    1.0000 </r>
       <r>    7.6677    1.0000 </r>
       <r>    7.9592    1.0000 </r>
       <r>    7.9696    1.0000 </r>
       <r>    8.3368    1.0000 </r>
       <r>    8.5295    1.0000 </r>
       <r>    8.6718    1.0000 </r>
       <r>    8.7244    1.0000 </r>
       <r>    9.6332    1.0000 </r>
       <r>   10.0633    1.0000 </r>
       <r>   10.1014    1.0000 </r>
       <r>   11.1582    1.0000 </r>
       <r>   11.3267    1.0000 </r>
       <r>   11.4194    1.0000 </r>
       <r>   11.6050    1.0000 </r>
       <r>   11.6920    1.0000 </r>
       <r>   12.1098    0.3916 </r>
       <r>   12.2599    0.0000 </r>
       <r>   12.9510    0.0000 </r>
       <r>   13.1343    0.0000 </r>
       <r>   13.3247    0.0000 </r>
       <r>   13.5012    0.0000 </r>
       <r>   13.6994    0.0000 </r>
       <r>   15.0505    0.0000 </r>
       <r>   15.2810    0.0000 </r>
       <r>   15.3660    0.0000 </r>
       <r>   15.8468    0.0000 </r>
      </set>
      <set comment="kpoint 14">
       <r>  -50.7953    1.0000 </r>
       <r>  -50.7785    1.0000 </r>
       <r>  -50.7142    1.0000 </r>
       <r>  -50.6861    1.0000 </r>
       <r>  -50.6632    1.0000 </r>
       <r>  -50.6519    1.0000 </r>
       <r>  -24.8754    1.0000 </r>
       <r>  -24.8215    1.0000 </r>
       <r>  -24.5203    1.0000 </r>
       <r>  -24.4064    1.0000 </r>
       <r>  -24.3976    1.0000 </r>
       <r>  -24.3873    1.0000 </r>
       <r>  -24.3217    1.0000 </r>
       <r>  -24.3118    1.0000 </r>
       <r>  -24.2922    1.0000 </r>
       <r>  -24.1264    1.0000 </r>
       <r>  -24.1027    1.0000 </r>
       <r>  -24.0070    1.0000 </r>
       <r>  -23.9383    1.0000 </r>
       <r>  -23.9138    1.0000 </r>
       <r>  -23.9004    1.0000 </r>
       <r>  -23.8923    1.0000 </r>
       <r>  -23.8326    1.0000 </r>
       <r>  -23.7851    1.0000 </r>
       <r>    2.3945    1.0000 </r>
       <r>    2.7638    1.0000 </r>
       <r>    3.1656    1.0000 </r>
       <r>    3.2084    1.0000 </r>
       <r>    6.0536    1.0000 </r>
       <r>    6.4380    1.0000 </r>
       <r>    6.5359    1.0000 </r>
       <r>    6.7490    1.0000 </r>
       <r>    7.4726    1.0000 </r>
       <r>    7.5204    1.0000 </r>
       <r>    7.7086    1.0000 </r>
       <r>    7.7151    1.0000 </r>
       <r>    7.8519    1.0000 </r>
       <r>    8.0277    1.0000 </r>
       <r>    8.2608    1.0000 </r>
       <r>    8.3224    1.0000 </r>
       <r>    9.2725    1.0000 </r>
       <r>    9.6692    1.0000 </r>
       <r>    9.8201    1.0000 </r>
       <r>    9.8380    1.0000 </r>
       <r>   11.1235    1.0000 </r>
       <r>   11.1485    1.0000 </r>
       <r>   11.2790    1.0000 </r>
       <r>   11.5223    1.0000 </r>
       <r>   11.9910    1.0000 </r>
       <r>   12.4076    0.0000 </r>
       <r>   12.7800    0.0000 </r>
       <r>   12.9972    0.0000 </r>
       <r>   13.0311    0.0000 </r>
       <r>   13.1935    0.0000 </r>
       <r>   13.2846    0.0000 </r>
       <r>   13.3501    0.0000 </r>
       <r>   14.6145    0.0000 </r>
       <r>   15.1246    0.0000 </r>
       <r>   15.2134    0.0000 </r>
       <r>   15.3220    0.0000 </r>
      </set>
      <set comment="kpoint 15">
       <r>  -50.8067    1.0000 </r>
       <r>  -50.7648    1.0000 </r>
       <r>  -50.7002    1.0000 </r>
       <r>  -50.7000    1.0000 </r>
       <r>  -50.6797    1.0000 </r>
       <r>  -50.6378    1.0000 </r>
       <r>  -24.9141    1.0000 </r>
       <r>  -24.7787    1.0000 </r>
       <r>  -24.5382    1.0000 </r>
       <r>  -24.4934    1.0000 </r>
       <r>  -24.4071    1.0000 </r>
       <r>  -24.3672    1.0000 </r>
       <r>  -24.3084    1.0000 </r>
       <r>  -24.2405    1.0000 </r>
       <r>  -24.2281    1.0000 </r>
       <r>  -24.2202    1.0000 </r>
       <r>  -24.0479    1.0000 </r>
       <r>  -24.0391    1.0000 </r>
       <r>  -23.9568    1.0000 </r>
       <r>  -23.9321    1.0000 </r>
       <r>  -23.8805    1.0000 </r>
       <r>  -23.8685    1.0000 </r>
       <r>  -23.8412    1.0000 </r>
       <r>  -23.7681    1.0000 </r>
       <r>    2.0969    1.0000 </r>
       <r>    2.9558    1.0000 </r>
       <r>    3.0411    1.0000 </r>
       <r>    3.5493    1.0000 </r>
       <r>    5.8834    1.0000 </r>
       <r>    6.2909    1.0000 </r>
       <r>    6.3256    1.0000 </r>
       <r>    6.9064    1.0000 </r>
       <r>    7.1386    1.0000 </r>
       <r>    7.7294    1.0000 </r>
       <r>    7.8025    1.0000 </r>
       <r>    7.8732    1.0000 </r>
       <r>    7.9743    1.0000 </r>
       <r>    8.0403    1.0000 </r>
       <r>    8.3199    1.0000 </r>
       <r>    8.3887    1.0000 </r>
       <r>    9.2108    1.0000 </r>
       <r>    9.5595    1.0000 </r>
       <r>    9.8964    1.0000 </r>
       <r>   10.1215    1.0000 </r>
       <r>   11.0516    1.0000 </r>
       <r>   11.1172    1.0000 </r>
       <r>   11.1689    1.0000 </r>
       <r>   11.4279    1.0000 </r>
       <r>   12.2245    0.0000 </r>
       <r>   12.3102    0.0000 </r>
       <r>   12.4297    0.0000 </r>
       <r>   12.7263    0.0000 </r>
       <r>   13.0596    0.0000 </r>
[...]
       <r>    3.6161    1.0000 </r>
       <r>    5.4948    1.0000 </r>
       <r>    6.2981    1.0000 </r>
       <r>    6.8774    1.0000 </r>
       <r>    7.0373    1.0000 </r>
       <r>    7.2874    1.0000 </r>
       <r>    7.6700    1.0000 </r>
       <r>    7.8170    1.0000 </r>
       <r>    8.0116    1.0000 </r>
       <r>    8.1008    1.0000 </r>
       <r>    8.2821    1.0000 </r>
       <r>    8.5178    1.0000 </r>
       <r>    8.7462    1.0000 </r>
       <r>    8.9525    1.0000 </r>
       <r>    9.5611    1.0000 </r>
       <r>   10.1126    1.0000 </r>
       <r>   10.1400    1.0000 </r>
       <r>   11.2013    1.0000 </r>
       <r>   11.3043    1.0000 </r>
       <r>   11.3495    1.0000 </r>
       <r>   11.7312    1.0000 </r>
       <r>   11.8051    1.0000 </r>
       <r>   12.0248    1.0000 </r>
       <r>   12.1865    0.0000 </r>
       <r>   12.8534    0.0000 </r>
       <r>   13.1951    0.0000 </r>
       <r>   13.2483    0.0000 </r>
       <r>   13.4418    0.0000 </r>
       <r>   13.8981    0.0000 </r>
       <r>   14.8496    0.0000 </r>
       <r>   15.0756    0.0000 </r>
       <r>   15.2939    0.0000 </r>
       <r>   15.6460    0.0000 </r>
      </set>
      <set comment="kpoint 165">
       <r>  -50.8286    1.0000 </r>
       <r>  -50.7401    1.0000 </r>
       <r>  -50.7202    1.0000 </r>
       <r>  -50.6839    1.0000 </r>
       <r>  -50.6811    1.0000 </r>
       <r>  -50.6349    1.0000 </r>
       <r>  -25.0055    1.0000 </r>
       <r>  -24.7297    1.0000 </r>
       <r>  -24.6482    1.0000 </r>
       <r>  -24.5365    1.0000 </r>
       <r>  -24.4831    1.0000 </r>
       <r>  -24.3536    1.0000 </r>
       <r>  -24.3484    1.0000 </r>
       <r>  -24.1962    1.0000 </r>
       <r>  -24.1960    1.0000 </r>
       <r>  -24.0933    1.0000 </r>
       <r>  -24.0517    1.0000 </r>
       <r>  -23.9811    1.0000 </r>
       <r>  -23.9354    1.0000 </r>
       <r>  -23.9286    1.0000 </r>
       <r>  -23.8743    1.0000 </r>
       <r>  -23.8422    1.0000 </r>
       <r>  -23.8368    1.0000 </r>
       <r>  -23.7692    1.0000 </r>
       <r>    1.6175    1.0000 </r>
       <r>    2.7226    1.0000 </r>
       <r>    3.1904    1.0000 </r>
       <r>    3.8942    1.0000 </r>
       <r>    5.3633    1.0000 </r>
       <r>    5.9899    1.0000 </r>
       <r>    6.5496    1.0000 </r>
       <r>    7.1985    1.0000 </r>
       <r>    7.5097    1.0000 </r>
       <r>    7.6303    1.0000 </r>
       <r>    7.6694    1.0000 </r>
       <r>    7.8759    1.0000 </r>
       <r>    8.2094    1.0000 </r>
       <r>    8.2648    1.0000 </r>
       <r>    8.3840    1.0000 </r>
       <r>    8.6089    1.0000 </r>
       <r>    9.1204    1.0000 </r>
       <r>    9.5194    1.0000 </r>
       <r>   10.2606    1.0000 </r>
       <r>   10.3342    1.0000 </r>
       <r>   11.0281    1.0000 </r>
       <r>   11.0768    1.0000 </r>
       <r>   11.1017    1.0000 </r>
       <r>   11.4968    1.0000 </r>
       <r>   11.6824    1.0000 </r>
       <r>   12.0942    0.7953 </r>
       <r>   12.4725    0.0000 </r>
       <r>   12.7458    0.0000 </r>
       <r>   13.1971    0.0000 </r>
       <r>   13.2512    0.0000 </r>
       <r>   13.5530    0.0000 </r>
       <r>   14.0539    0.0000 </r>
       <r>   14.4381    0.0000 </r>
       <r>   15.1851    0.0000 </r>
       <r>   15.6102    0.0000 </r>
       <r>   15.9620    0.0000 </r>
      </set>
     </set>
    </set>
   </array>
  </eigenvalues>
  <separator name="orbital magnetization" >
   <v name="MAGDIPOLOUT">      0.00000000      0.00000000      0.00000000</v>
  </separator>
  <dos>
   <i name="efermi">     12.10587094 </i>
   <total>
    <array>
     <dimension dim="1">gridpoints</dimension>
     <dimension dim="2">spin</dimension>
     <field>energy</field>
     <field>total</field>
     <field>integrated</field>
     <set>
      <set comment="spin 1">
       <r>   -54.2890     0.0000     0.0000 </r>
       <r>   -54.0393     0.0000     0.0000 </r>
       <r>   -53.7896     0.0000     0.0000 </r>
       <r>   -53.5400     0.0000     0.0000 </r>
       <r>   -53.2903     0.0000     0.0000 </r>
       <r>   -53.0407     0.0000     0.0000 </r>
       <r>   -52.7910     0.0000     0.0000 </r>
       <r>   -52.5413     0.0000     0.0000 </r>
       <r>   -52.2917     0.0000     0.0000 </r>
       <r>   -52.0420     0.0000     0.0000 </r>
       <r>   -51.7924     0.0000     0.0000 </r>
       <r>   -51.5427     0.0000     0.0000 </r>
       <r>   -51.2931     0.0000     0.0000 </r>
       <r>   -51.0434     0.0000     0.0000 </r>
       <r>   -50.7937     6.8027     1.6984 </r>
       <r>   -50.5441    24.1580    12.0000 </r>
       <r>   -50.2944     0.0000    12.0000 </r>
       <r>   -50.0448     0.0000    12.0000 </r>
       <r>   -49.7951     0.0000    12.0000 </r>
       <r>   -49.5454     0.0000    12.0000 </r>
       <r>   -49.2958     0.0000    12.0000 </r>
       <r>   -49.0461     0.0000    12.0000 </r>
       <r>   -48.7965     0.0000    12.0000 </r>
       <r>   -48.5468     0.0000    12.0000 </r>
       <r>   -48.2971     0.0000    12.0000 </r>
       <r>   -48.0475     0.0000    12.0000 </r>
       <r>   -47.7978     0.0000    12.0000 </r>
       <r>   -47.5482     0.0000    12.0000 </r>
       <r>   -47.2985     0.0000    12.0000 </r>
       <r>   -47.0489     0.0000    12.0000 </r>
       <r>   -46.7992     0.0000    12.0000 </r>
       <r>   -46.5495     0.0000    12.0000 </r>
       <r>   -46.2999     0.0000    12.0000 </r>
       <r>   -46.0502     0.0000    12.0000 </r>
       <r>   -45.8006     0.0000    12.0000 </r>
       <r>   -45.5509     0.0000    12.0000 </r>
       <r>   -45.3012     0.0000    12.0000 </r>
       <r>   -45.0516     0.0000    12.0000 </r>
       <r>   -44.8019     0.0000    12.0000 </r>
       <r>   -44.5523     0.0000    12.0000 </r>
       <r>   -44.3026     0.0000    12.0000 </r>
       <r>   -44.0530     0.0000    12.0000 </r>
       <r>   -43.8033     0.0000    12.0000 </r>
       <r>   -43.5536     0.0000    12.0000 </r>
       <r>   -43.3040     0.0000    12.0000 </r>
       <r>   -43.0543     0.0000    12.0000 </r>
       <r>   -42.8047     0.0000    12.0000 </r>
       <r>   -42.5550     0.0000    12.0000 </r>
       <r>   -42.3053     0.0000    12.0000 </r>
       <r>   -42.0557     0.0000    12.0000 </r>
       <r>   -41.8060     0.0000    12.0000 </r>
       <r>   -41.5564     0.0000    12.0000 </r>
       <r>   -41.3067     0.0000    12.0000 </r>
       <r>   -41.0570     0.0000    12.0000 </r>
       <r>   -40.8074     0.0000    12.0000 </r>
       <r>   -40.5577     0.0000    12.0000 </r>
       <r>   -40.3081     0.0000    12.0000 </r>
       <r>   -40.0584     0.0000    12.0000 </r>
       <r>   -39.8088     0.0000    12.0000 </r>
       <r>   -39.5591     0.0000    12.0000 </r>
       <r>   -39.3094     0.0000    12.0000 </r>
       <r>   -39.0598     0.0000    12.0000 </r>
       <r>   -38.8101     0.0000    12.0000 </r>
       <r>   -38.5605     0.0000    12.0000 </r>
       <r>   -38.3108     0.0000    12.0000 </r>
       <r>   -38.0611     0.0000    12.0000 </r>
       <r>   -37.8115     0.0000    12.0000 </r>
       <r>   -37.5618     0.0000    12.0000 </r>
       <r>   -37.3122     0.0000    12.0000 </r>
       <r>   -37.0625     0.0000    12.0000 </r>
       <r>   -36.8129     0.0000    12.0000 </r>
       <r>   -36.5632     0.0000    12.0000 </r>
       <r>   -36.3135     0.0000    12.0000 </r>
       <r>   -36.0639     0.0000    12.0000 </r>
       <r>   -35.8142     0.0000    12.0000 </r>
       <r>   -35.5646     0.0000    12.0000 </r>
       <r>   -35.3149     0.0000    12.0000 </r>
       <r>   -35.0652     0.0000    12.0000 </r>
       <r>   -34.8156     0.0000    12.0000 </r>
       <r>   -34.5659     0.0000    12.0000 </r>
       <r>   -34.3163     0.0000    12.0000 </r>
       <r>   -34.0666     0.0000    12.0000 </r>
       <r>   -33.8169     0.0000    12.0000 </r>
       <r>   -33.5673     0.0000    12.0000 </r>
       <r>   -33.3176     0.0000    12.0000 </r>
       <r>   -33.0680     0.0000    12.0000 </r>
       <r>   -32.8183     0.0000    12.0000 </r>
       <r>   -32.5687     0.0000    12.0000 </r>
       <r>   -32.3190     0.0000    12.0000 </r>
       <r>   -32.0693     0.0000    12.0000 </r>
       <r>   -31.8197     0.0000    12.0000 </r>
       <r>   -31.5700     0.0000    12.0000 </r>
       <r>   -31.3204     0.0000    12.0000 </r>
       <r>   -31.0707     0.0000    12.0000 </r>
       <r>   -30.8210     0.0000    12.0000 </r>
       <r>   -30.5714     0.0000    12.0000 </r>
       <r>   -30.3217     0.0000    12.0000 </r>
       <r>   -30.0721     0.0000    12.0000 </r>
       <r>   -29.8224     0.0000    12.0000 </r>
       <r>   -29.5728     0.0000    12.0000 </r>
       <r>   -29.3231     0.0000    12.0000 </r>
       <r>   -29.0734     0.0000    12.0000 </r>
       <r>   -28.8238     0.0000    12.0000 </r>
       <r>   -28.5741     0.0000    12.0000 </r>
       <r>   -28.3245     0.0000    12.0000 </r>
       <r>   -28.0748     0.0000    12.0000 </r>
       <r>   -27.8251     0.0000    12.0000 </r>
       <r>   -27.5755     0.0000    12.0000 </r>
       <r>   -27.3258     0.0000    12.0000 </r>
       <r>   -27.0762     0.0000    12.0000 </r>
       <r>   -26.8265     0.0000    12.0000 </r>
       <r>   -26.5768     0.0000    12.0000 </r>
       <r>   -26.3272     0.0000    12.0000 </r>
       <r>   -26.0775     0.0000    12.0000 </r>
       <r>   -25.8279     0.0000    12.0000 </r>
       <r>   -25.5782     0.0000    12.0000 </r>
       <r>   -25.3286     0.0001    12.0000 </r>
       <r>   -25.0789     1.5214    12.4319 </r>
       <r>   -24.8292     5.2896    14.1157 </r>
       <r>   -24.5796     6.6846    17.3112 </r>
       <r>   -24.3299    21.1737    25.0258 </r>
       <r>   -24.0803    20.2351    32.2810 </r>
       <r>   -23.8306    31.9971    43.5161 </r>
       <r>   -23.5809     0.6259    48.0000 </r>
       <r>   -23.3313     0.0000    48.0000 </r>
       <r>   -23.0816     0.0000    48.0000 </r>
       <r>   -22.8320     0.0000    48.0000 </r>
       <r>   -22.5823     0.0000    48.0000 </r>
       <r>   -22.3327     0.0000    48.0000 </r>
       <r>   -22.0830     0.0000    48.0000 </r>
       <r>   -21.8333     0.0000    48.0000 </r>
       <r>   -21.5837     0.0000    48.0000 </r>
       <r>   -21.3340     0.0000    48.0000 </r>
       <r>   -21.0844     0.0000    48.0000 </r>
       <r>   -20.8347     0.0000    48.0000 </r>
       <r>   -20.5850     0.0000    48.0000 </r>
       <r>   -20.3354     0.0000    48.0000 </r>
       <r>   -20.0857     0.0000    48.0000 </r>
       <r>   -19.8361     0.0000    48.0000 </r>
       <r>   -19.5864     0.0000    48.0000 </r>
       <r>   -19.3367     0.0000    48.0000 </r>
       <r>   -19.0871     0.0000    48.0000 </r>
       <r>   -18.8374     0.0000    48.0000 </r>
       <r>   -18.5878     0.0000    48.0000 </r>
       <r>   -18.3381     0.0000    48.0000 </r>
       <r>   -18.0885     0.0000    48.0000 </r>
       <r>   -17.8388     0.0000    48.0000 </r>
       <r>   -17.5891     0.0000    48.0000 </r>
       <r>   -17.3395     0.0000    48.0000 </r>
       <r>   -17.0898     0.0000    48.0000 </r>
       <r>   -16.8402     0.0000    48.0000 </r>
       <r>   -16.5905     0.0000    48.0000 </r>
       <r>   -16.3408     0.0000    48.0000 </r>
       <r>   -16.0912     0.0000    48.0000 </r>
       <r>   -15.8415     0.0000    48.0000 </r>
       <r>   -15.5919     0.0000    48.0000 </r>
       <r>   -15.3422     0.0000    48.0000 </r>
       <r>   -15.0926     0.0000    48.0000 </r>
       <r>   -14.8429     0.0000    48.0000 </r>
       <r>   -14.5932     0.0000    48.0000 </r>
       <r>   -14.3436     0.0000    48.0000 </r>
       <r>   -14.0939     0.0000    48.0000 </r>
       <r>   -13.8443     0.0000    48.0000 </r>
       <r>   -13.5946     0.0000    48.0000 </r>
       <r>   -13.3449     0.0000    48.0000 </r>
       <r>   -13.0953     0.0000    48.0000 </r>
       <r>   -12.8456     0.0000    48.0000 </r>
       <r>   -12.5960     0.0000    48.0000 </r>
       <r>   -12.3463     0.0000    48.0000 </r>
       <r>   -12.0966     0.0000    48.0000 </r>
       <r>   -11.8470     0.0000    48.0000 </r>
       <r>   -11.5973     0.0000    48.0000 </r>
       <r>   -11.3477     0.0000    48.0000 </r>
       <r>   -11.0980     0.0000    48.0000 </r>
       <r>   -10.8484     0.0000    48.0000 </r>
       <r>   -10.5987     0.0000    48.0000 </r>
       <r>   -10.3490     0.0000    48.0000 </r>
       <r>   -10.0994     0.0000    48.0000 </r>
       <r>    -9.8497     0.0000    48.0000 </r>
       <r>    -9.6001     0.0000    48.0000 </r>
       <r>    -9.3504     0.0000    48.0000 </r>
       <r>    -9.1007     0.0000    48.0000 </r>
       <r>    -8.8511     0.0000    48.0000 </r>
       <r>    -8.6014     0.0000    48.0000 </r>
       <r>    -8.3518     0.0000    48.0000 </r>
       <r>    -8.1021     0.0000    48.0000 </r>
       <r>    -7.8525     0.0000    48.0000 </r>
       <r>    -7.6028     0.0000    48.0000 </r>
       <r>    -7.3531     0.0000    48.0000 </r>
       <r>    -7.1035     0.0000    48.0000 </r>
       <r>    -6.8538     0.0000    48.0000 </r>
       <r>    -6.6042     0.0000    48.0000 </r>
       <r>    -6.3545     0.0000    48.0000 </r>
       <r>    -6.1048     0.0000    48.0000 </r>
       <r>    -5.8552     0.0000    48.0000 </r>
       <r>    -5.6055     0.0000    48.0000 </r>
       <r>    -5.3559     0.0000    48.0000 </r>
       <r>    -5.1062     0.0000    48.0000 </r>
       <r>    -4.8565     0.0000    48.0000 </r>
       <r>    -4.6069     0.0000    48.0000 </r>
       <r>    -4.3572     0.0000    48.0000 </r>
       <r>    -4.1076     0.0000    48.0000 </r>
       <r>    -3.8579     0.0000    48.0000 </r>
       <r>    -3.6083     0.0000    48.0000 </r>
       <r>    -3.3586     0.0000    48.0000 </r>
       <r>    -3.1089     0.0000    48.0000 </r>
       <r>    -2.8593     0.0000    48.0000 </r>
       <r>    -2.6096     0.0000    48.0000 </r>
       <r>    -2.3600     0.0000    48.0000 </r>
       <r>    -2.1103     0.0000    48.0000 </r>
       <r>    -1.8606     0.0000    48.0000 </r>
       <r>    -1.6110     0.0000    48.0000 </r>
       <r>    -1.3613     0.0000    48.0000 </r>
       <r>    -1.1117     0.0000    48.0000 </r>
       <r>    -0.8620     0.0000    48.0000 </r>
       <r>    -0.6124     0.0000    48.0000 </r>
       <r>    -0.3627     0.0000    48.0000 </r>
       <r>    -0.1130     0.0000    48.0000 </r>
       <r>     0.1366     0.0000    48.0000 </r>
       <r>     0.3863     0.0138    48.0035 </r>
       <r>     0.6359     0.1448    48.0535 </r>
       <r>     0.8856     0.3926    48.1918 </r>
       <r>     1.1353     0.2904    48.2843 </r>
       <r>     1.3849     0.4896    48.4938 </r>
       <r>     1.6346     0.5585    48.6637 </r>
       <r>     1.8842     0.8248    48.9455 </r>
       <r>     2.1339     0.8292    49.2834 </r>
       <r>     2.3836     1.2349    49.8083 </r>
       <r>     2.6332     1.8415    50.5396 </r>
       <r>     2.8829     2.7982    51.4972 </r>
       <r>     3.1325     5.1524    53.3384 </r>
       <r>     3.3822     2.6190    54.5184 </r>
       <r>     3.6318     1.1103    55.1140 </r>
       <r>     3.8815     0.7444    55.4011 </r>
       <r>     4.1312     0.8191    55.6906 </r>
       <r>     4.3808     0.4261    55.8703 </r>
       <r>     4.6305     0.2178    55.9745 </r>
       <r>     4.8801     0.1847    56.0357 </r>
       <r>     5.1298     0.5062    56.2583 </r>
       <r>     5.3795     1.3461    56.6902 </r>
       <r>     5.6291     1.7179    57.2518 </r>
       <r>     5.8788     1.9317    57.9475 </r>
       <r>     6.1284     2.6554    58.9095 </r>
       <r>     6.3781     2.4662    59.8484 </r>
       <r>     6.6278     2.8908    61.2321 </r>
       <r>     6.8774     2.2143    62.2716 </r>
       <r>     7.1271     2.8544    63.3828 </r>
       <r>     7.3767     3.6403    64.7838 </r>
       <r>     7.6264     6.0204    66.7496 </r>
       <r>     7.8760    10.1648    70.5377 </r>
       <r>     8.1257    10.6826    74.7087 </r>
       <r>     8.3754     5.9607    77.5194 </r>
       <r>     8.6250     2.8177    78.6722 </r>
       <r>     8.8747     1.3979    79.3455 </r>
       <r>     9.1243     2.5199    80.2298 </r>
       <r>     9.3740     2.6964    81.2912 </r>
       <r>     9.6237     4.7776    82.8525 </r>
       <r>     9.8733     4.8077    84.5787 </r>
       <r>    10.1230     3.3054    85.9190 </r>
       <r>    10.3726     3.2884    87.1508 </r>
       <r>    10.6223     1.4126    88.0367 </r>
       <r>    10.8719     1.8908    88.6665 </r>
       <r>    11.1216     7.3454    91.0491 </r>
       <r>    11.3713     6.3075    93.8872 </r>
       <r>    11.6209     3.6468    95.5077 </r>
       <r>    11.8706     3.5977    96.6621 </r>
       <r>    12.1202     3.5903    98.1255 </r>
       <r>    12.3699     5.2262   100.0652 </r>
       <r>    12.6196     3.2189   101.6404 </r>
       <r>    12.8692     5.3450   103.5601 </r>
       <r>    13.1189     5.8676   105.6142 </r>
       <r>    13.3685     8.4341   108.8730 </r>
       <r>    13.6182     3.8114   110.6911 </r>
       <r>    13.8679     1.8599   111.5060 </r>
       <r>    14.1175     1.1271   111.9064 </r>
       <r>    14.3672     1.5366   112.5260 </r>
       <r>    14.6168     1.6767   113.1443 </r>
       <r>    14.8665     2.5202   114.0285 </r>
       <r>    15.1161     4.7859   115.6497 </r>
       <r>    15.3658     5.5478   117.9580 </r>
       <r>    15.6155     3.0290   119.2250 </r>
       <r>    15.8651     0.5643   119.6444 </r>
       <r>    16.1148     0.5399   119.7945 </r>
       <r>    16.3644     0.0244   119.8255 </r>
       <r>    16.6141     0.0426   119.8509 </r>
       <r>    16.8638     0.0860   119.8895 </r>
       <r>    17.1134     0.2209   119.9718 </r>
       <r>    17.3631     0.0556   120.0000 </r>
       <r>    17.6127     0.0000   120.0000 </r>
       <r>    17.8624     0.0000   120.0000 </r>
       <r>    18.1120     0.0000   120.0000 </r>
       <r>    18.3617     0.0000   120.0000 </r>
       <r>    18.6114     0.0000   120.0000 </r>
       <r>    18.8610     0.0000   120.0000 </r>
       <r>    19.1107     0.0000   120.0000 </r>
       <r>    19.3603     0.0000   120.0000 </r>
       <r>    19.6100     0.0000   120.0000 </r>
       <r>    19.8597     0.0000   120.0000 </r>
       <r>    20.1093     0.0000   120.0000 </r>
       <r>    20.3590     0.0000   120.0000 </r>
       <r>    20.6086     0.0000   120.0000 </r>
      </set>
     </set>
    </array>
   </total>
  </dos>
 </calculation>
 <structure name="finalpos" >
  <crystal>
   <varray name="basis" >
    <v>       4.93108480       0.00000000      -2.81572167 </v>
    <v>      -1.66194738       4.64257776      -2.81572167 </v>
    <v>       0.00000000       0.00000000       5.67837000 </v>
   </varray>
   <i name="volume">    129.99460995 </i>
   <varray name="rec_basis" >
    <v>       0.20279513       0.07259649       0.00000000 </v>
    <v>       0.00000000       0.21539758       0.00000000 </v>
    <v>       0.10055961       0.14280703       0.17610688 </v>
   </varray>
  </crystal>
  <varray name="positions" >
   <v>       0.00000000       0.00000000       0.00000000 </v>
   <v>       0.50000000       0.50000000       0.00000000 </v>
   <v>       0.24645000       0.25355000       0.50000000 </v>
   <v>       0.25000000       0.25000000       0.00000000 </v>
   <v>       0.75355000       0.74645000       0.50000000 </v>
   <v>       0.75000000       0.75000000       0.00000000 </v>
   <v>       0.25355000       0.75355000       0.00710000 </v>
   <v>       0.74645000       0.24645000       0.99290000 </v>
   <v>       0.25000000       0.75000000       0.50000000 </v>
   <v>       0.75000000       0.25000000       0.50000000 </v>
  </varray>
 </structure>
</modeling>
