<?xml version="1.0" encoding="ISO-8859-1"?>
<modeling>
 <generator>
  <i name="program" type="string">vasp </i>
  <i name="version" type="string">6.2.0  </i>
  <i name="subversion" type="string">18Jan21 (build Jan 05 2022 15:41:44) complex                          parallel </i>
  <i name="platform" type="string">LinuxIFC </i>
  <i name="date" type="string">2025 05 07 </i>
  <i name="time" type="string">15:00:45 </i>
 </generator>
 <incar>
  <i type="string" name="SYSTEM">routine with relax: pwdword</i>
  <i type="string" name="PREC">Acc</i>
  <i type="int" name="IALGO">    38</i>
  <i type="string" name="ALGO">A</i>
  <i type="logical" name="ADDGRID"> T  </i>
  <i type="int" name="ICHARG">     2</i>
  <i type="int" name="NELM">   100</i>
  <i type="int" name="NELMIN">     6</i>
  <i name="EDIFF">      0.00000000</i>
  <i type="int" name="NSW">     0</i>
  <i type="int" name="ISIF">    -1</i>
  <i name="SYMPREC">      0.00010000</i>
  <i name="ENCUT">    600.00000000</i>
  <i type="logical" name="LREAL"> F  </i>
  <i type="int" name="ISMEAR">     0</i>
  <i name="SIGMA">      0.02000000</i>
  <i type="logical" name="LASPH"> T  </i>
  <i type="string" name="METAGGA">R2SCAN</i>
  <i type="logical" name="LMIXTAU"> F  </i>
 </incar>
 <primitive_cell>
  <structure name="primitive_cell" >
   <crystal>
    <varray name="basis" >
     <v>       5.62955400       0.00000000      -3.72329519 </v>
     <v>      -1.62680176       5.38937791      -3.72329519 </v>
     <v>       0.00000000       0.00000000       6.74943000 </v>
    </varray>
    <i name="volume">    204.77631586 </i>
    <varray name="rec_basis" >
     <v>       0.17763397       0.05361941       0.00000000 </v>
     <v>       0.00000000       0.18555017       0.00000000 </v>
     <v>       0.09799104       0.13193691       0.14816066 </v>
    </varray>
   </crystal>
   <varray name="positions" >
    <v>       0.92941000       0.90569000       0.50000000 </v>
    <v>       0.07059000       0.09431000       0.50000000 </v>
    <v>       0.59431000       0.57059000       0.50000000 </v>
    <v>       0.90569000       0.40569000       0.97628000 </v>
    <v>       0.09431000       0.59431000       0.02372000 </v>
    <v>       0.42941000       0.92941000       0.02372000 </v>
    <v>       0.40569000       0.42941000       0.50000000 </v>
    <v>       0.57059000       0.07059000       0.97628000 </v>
    <v>       0.25000000       0.25000000       1.00000000 </v>
    <v>       0.82536000       0.32536000       0.15072000 </v>
    <v>       0.32536000       0.17464000       0.50000000 </v>
    <v>       0.67464000       0.82536000       0.50000000 </v>
    <v>       0.17464000       0.67464000       0.84928000 </v>
    <v>       0.75000000       0.75000000       1.00000000 </v>
    <v>       0.50000000       0.50000000       0.50000000 </v>
    <v>       0.00000000       0.00000000       0.50000000 </v>
    <v>       0.00000000       0.50000000       0.00000000 </v>
    <v>       0.50000000       0.00000000       1.00000000 </v>
   </varray>
  </structure>
  <varray name="primitive_index" >
   <v type="int" >        1 </v>
   <v type="int" >        2 </v>
   <v type="int" >        3 </v>
   <v type="int" >        4 </v>
   <v type="int" >        5 </v>
   <v type="int" >        6 </v>
   <v type="int" >        7 </v>
   <v type="int" >        8 </v>
   <v type="int" >        9 </v>
   <v type="int" >       10 </v>
   <v type="int" >       11 </v>
   <v type="int" >       12 </v>
   <v type="int" >       13 </v>
   <v type="int" >       14 </v>
   <v type="int" >       15 </v>
   <v type="int" >       16 </v>
   <v type="int" >       17 </v>
   <v type="int" >       18 </v>
  </varray>
 </primitive_cell>
 <kpoints>
  <generation param="Gamma">
   <v type="int" name="divisions">       7        7        8 </v>
   <v name="usershift">      0.00000000       0.00000000       0.00000000 </v>
   <v name="genvec1">      0.14285714       0.00000000       0.00000000 </v>
   <v name="genvec2">      0.00000000       0.14285714       0.00000000 </v>
   <v name="genvec3">     -0.00000000       0.00000000       0.12500000 </v>
   <v name="shift">      0.00000000       0.00000000       0.00000000 </v>
  </generation>
  <varray name="kpointlist" >
   <v>       0.00000000       0.00000000       0.00000000 </v>
   <v>       0.14285714       0.00000000       0.00000000 </v>
   <v>       0.28571429       0.00000000       0.00000000 </v>
   <v>       0.42857143       0.00000000       0.00000000 </v>
   <v>       0.14285714       0.14285714       0.00000000 </v>
   <v>       0.28571429       0.14285714       0.00000000 </v>
   <v>       0.42857143       0.14285714       0.00000000 </v>
   <v>      -0.42857143       0.14285714       0.00000000 </v>
   <v>      -0.28571429       0.14285714       0.00000000 </v>
   <v>      -0.14285714       0.14285714       0.00000000 </v>
   <v>       0.28571429       0.28571429       0.00000000 </v>
   <v>       0.42857143       0.28571429       0.00000000 </v>
   <v>      -0.42857143       0.28571429       0.00000000 </v>
   <v>      -0.28571429       0.28571429       0.00000000 </v>
   <v>       0.42857143       0.42857143       0.00000000 </v>
   <v>      -0.42857143       0.42857143       0.00000000 </v>
   <v>       0.00000000       0.00000000       0.12500000 </v>
   <v>       0.14285714       0.00000000       0.12500000 </v>
   <v>       0.28571429       0.00000000       0.12500000 </v>
   <v>       0.42857143       0.00000000       0.12500000 </v>
   <v>      -0.42857143      -0.00000000       0.12500000 </v>
   <v>      -0.28571429       0.00000000       0.12500000 </v>
   <v>      -0.14285714       0.00000000       0.12500000 </v>
   <v>       0.14285714       0.14285714       0.12500000 </v>
   <v>       0.28571429       0.14285714       0.12500000 </v>
   <v>       0.42857143       0.14285714       0.12500000 </v>
   <v>      -0.42857143       0.14285714       0.12500000 </v>
   <v>      -0.28571429       0.14285714       0.12500000 </v>
   <v>      -0.14285714       0.14285714       0.12500000 </v>
   <v>       0.28571429       0.28571429       0.12500000 </v>
   <v>       0.42857143       0.28571429       0.12500000 </v>
   <v>      -0.42857143       0.28571429       0.12500000 </v>
   <v>      -0.28571429       0.28571429       0.12500000 </v>
   <v>      -0.14285714       0.28571429       0.12500000 </v>
   <v>       0.42857143       0.42857143       0.12500000 </v>
   <v>      -0.42857143       0.42857143       0.12500000 </v>
   <v>      -0.28571429       0.42857143       0.12500000 </v>
   <v>      -0.14285714       0.42857143       0.12500000 </v>
   <v>      -0.42857143      -0.42857143       0.12500000 </v>
   <v>      -0.28571429      -0.42857143       0.12500000 </v>
   <v>      -0.14285714      -0.42857143       0.12500000 </v>
   <v>      -0.28571429      -0.28571429       0.12500000 </v>
   <v>      -0.14285714      -0.28571429       0.12500000 </v>
   <v>      -0.14285714      -0.14285714       0.12500000 </v>
   <v>       0.00000000       0.00000000       0.25000000 </v>
   <v>       0.14285714       0.00000000       0.25000000 </v>
   <v>       0.28571429       0.00000000       0.25000000 </v>
   <v>       0.42857143       0.00000000       0.25000000 </v>
   <v>      -0.42857143       0.00000000       0.25000000 </v>
   <v>      -0.28571429       0.00000000       0.25000000 </v>
   <v>      -0.14285714       0.00000000       0.25000000 </v>
   <v>       0.14285714       0.14285714       0.25000000 </v>
   <v>       0.28571429       0.14285714       0.25000000 </v>
   <v>       0.42857143       0.14285714       0.25000000 </v>
   <v>      -0.42857143       0.14285714       0.25000000 </v>
   <v>      -0.28571429       0.14285714       0.25000000 </v>
   <v>      -0.14285714       0.14285714       0.25000000 </v>
   <v>       0.28571429       0.28571429       0.25000000 </v>
   <v>       0.42857143       0.28571429       0.25000000 </v>
   <v>      -0.42857143       0.28571429       0.25000000 </v>
   <v>      -0.28571429       0.28571429       0.25000000 </v>
   <v>      -0.14285714       0.28571429       0.25000000 </v>
   <v>       0.42857143       0.42857143       0.25000000 </v>
   <v>      -0.42857143       0.42857143       0.25000000 </v>
   <v>      -0.28571429       0.42857143       0.25000000 </v>
   <v>      -0.14285714       0.42857143       0.25000000 </v>
   <v>      -0.42857143      -0.42857143       0.25000000 </v>
   <v>      -0.28571429      -0.42857143       0.25000000 </v>
   <v>      -0.14285714      -0.42857143       0.25000000 </v>
   <v>      -0.28571429      -0.28571429       0.25000000 </v>
   <v>      -0.14285714      -0.28571429       0.25000000 </v>
   <v>      -0.14285714      -0.14285714       0.25000000 </v>
   <v>      -0.00000000       0.00000000       0.37500000 </v>
   <v>       0.14285714       0.00000000       0.37500000 </v>
   <v>       0.28571429      -0.00000000       0.37500000 </v>
   <v>       0.42857143      -0.00000000       0.37500000 </v>
   <v>      -0.42857143       0.00000000       0.37500000 </v>
   <v>      -0.28571429      -0.00000000       0.37500000 </v>
   <v>      -0.14285714       0.00000000       0.37500000 </v>
   <v>       0.14285714       0.14285714       0.37500000 </v>
   <v>       0.28571429       0.14285714       0.37500000 </v>
   <v>       0.42857143       0.14285714       0.37500000 </v>
   <v>      -0.42857143       0.14285714       0.37500000 </v>
   <v>      -0.28571429       0.14285714       0.37500000 </v>
   <v>      -0.14285714       0.14285714       0.37500000 </v>
   <v>       0.28571429       0.28571429       0.37500000 </v>
   <v>       0.42857143       0.28571429       0.37500000 </v>
   <v>      -0.42857143       0.28571429       0.37500000 </v>
   <v>      -0.28571429       0.28571429       0.37500000 </v>
   <v>      -0.14285714       0.28571429       0.37500000 </v>
   <v>       0.42857143       0.42857143       0.37500000 </v>
   <v>      -0.42857143       0.42857143       0.37500000 </v>
   <v>      -0.28571429       0.42857143       0.37500000 </v>
   <v>      -0.14285714       0.42857143       0.37500000 </v>
   <v>      -0.42857143      -0.42857143       0.37500000 </v>
   <v>      -0.28571429      -0.42857143       0.37500000 </v>
   <v>      -0.14285714      -0.42857143       0.37500000 </v>
   <v>      -0.28571429      -0.28571429       0.37500000 </v>
   <v>      -0.14285714      -0.28571429       0.37500000 </v>
   <v>      -0.14285714      -0.14285714       0.37500000 </v>
   <v>       0.00000000       0.00000000       0.50000000 </v>
   <v>       0.14285714       0.00000000       0.50000000 </v>
   <v>       0.28571429       0.00000000       0.50000000 </v>
   <v>       0.42857143       0.00000000       0.50000000 </v>
   <v>       0.14285714       0.14285714       0.50000000 </v>
   <v>       0.28571429       0.14285714       0.50000000 </v>
   <v>       0.42857143       0.14285714       0.50000000 </v>
   <v>      -0.42857143       0.14285714       0.50000000 </v>
   <v>      -0.28571429       0.14285714       0.50000000 </v>
   <v>      -0.14285714       0.14285714       0.50000000 </v>
   <v>       0.28571429       0.28571429       0.50000000 </v>
   <v>       0.42857143       0.28571429       0.50000000 </v>
   <v>      -0.42857143       0.28571429       0.50000000 </v>
   <v>      -0.28571429       0.28571429       0.50000000 </v>
   <v>       0.42857143       0.42857143       0.50000000 </v>
   <v>      -0.42857143       0.42857143       0.50000000 </v>
  </varray>
  <varray name="weights" >
   <v>       0.00255102 </v>
   <v>       0.01020408 </v>
   <v>       0.01020408 </v>
   <v>       0.01020408 </v>
   <v>       0.00510204 </v>
   <v>       0.01020408 </v>
   <v>       0.01020408 </v>
   <v>       0.01020408 </v>
   <v>       0.01020408 </v>
   <v>       0.00510204 </v>
   <v>       0.00510204 </v>
   <v>       0.01020408 </v>
   <v>       0.01020408 </v>
   <v>       0.00510204 </v>
   <v>       0.00510204 </v>
   <v>       0.00510204 </v>
   <v>       0.00510204 </v>
   <v>       0.01020408 </v>
   <v>       0.01020408 </v>
   <v>       0.01020408 </v>
   <v>       0.01020408 </v>
   <v>       0.01020408 </v>
   <v>       0.01020408 </v>
   <v>       0.00510204 </v>
   <v>       0.01020408 </v>
   <v>       0.01020408 </v>
   <v>       0.01020408 </v>
   <v>       0.01020408 </v>
   <v>       0.01020408 </v>
   <v>       0.00510204 </v>
   <v>       0.01020408 </v>
   <v>       0.01020408 </v>
   <v>       0.01020408 </v>
   <v>       0.01020408 </v>
   <v>       0.00510204 </v>
   <v>       0.01020408 </v>
   <v>       0.01020408 </v>
   <v>       0.01020408 </v>
   <v>       0.00510204 </v>
   <v>       0.01020408 </v>
   <v>       0.01020408 </v>
   <v>       0.00510204 </v>
   <v>       0.01020408 </v>
   <v>       0.00510204 </v>
   <v>       0.00510204 </v>
   <v>       0.01020408 </v>
   <v>       0.01020408 </v>
   <v>       0.01020408 </v>
   <v>       0.01020408 </v>
   <v>       0.01020408 </v>
   <v>       0.01020408 </v>
   <v>       0.00510204 </v>
   <v>       0.01020408 </v>
   <v>       0.01020408 </v>
   <v>       0.01020408 </v>
   <v>       0.01020408 </v>
   <v>       0.01020408 </v>
   <v>       0.00510204 </v>
   <v>       0.01020408 </v>
   <v>       0.01020408 </v>
   <v>       0.01020408 </v>
   <v>       0.01020408 </v>
   <v>       0.00510204 </v>
   <v>       0.01020408 </v>
   <v>       0.01020408 </v>
   <v>       0.01020408 </v>
   <v>       0.00510204 </v>
   <v>       0.01020408 </v>
   <v>       0.01020408 </v>
   <v>       0.00510204 </v>
   <v>       0.01020408 </v>
   <v>       0.00510204 </v>
   <v>       0.00510204 </v>
   <v>       0.01020408 </v>
   <v>       0.01020408 </v>
   <v>       0.01020408 </v>
   <v>       0.01020408 </v>
   <v>       0.01020408 </v>
   <v>       0.01020408 </v>
   <v>       0.00510204 </v>
   <v>       0.01020408 </v>
   <v>       0.01020408 </v>
   <v>       0.01020408 </v>
   <v>       0.01020408 </v>
   <v>       0.01020408 </v>
   <v>       0.00510204 </v>
   <v>       0.01020408 </v>
   <v>       0.01020408 </v>
   <v>       0.01020408 </v>
   <v>       0.01020408 </v>
   <v>       0.00510204 </v>
   <v>       0.01020408 </v>
   <v>       0.01020408 </v>
   <v>       0.01020408 </v>
   <v>       0.00510204 </v>
   <v>       0.01020408 </v>
   <v>       0.01020408 </v>
   <v>       0.00510204 </v>
   <v>       0.01020408 </v>
   <v>       0.00510204 </v>
   <v>       0.00255102 </v>
   <v>       0.01020408 </v>
   <v>       0.01020408 </v>
   <v>       0.01020408 </v>
   <v>       0.00510204 </v>
   <v>       0.01020408 </v>
   <v>       0.01020408 </v>
   <v>       0.01020408 </v>
   <v>       0.01020408 </v>
   <v>       0.00510204 </v>
   <v>       0.00510204 </v>
   <v>       0.01020408 </v>
   <v>       0.01020408 </v>
   <v>       0.00510204 </v>
   <v>       0.00510204 </v>
   <v>       0.00510204 </v>
  </varray>
 </kpoints>
 <parameters>
  <separator name="general" >
   <i type="string" name="SYSTEM">routine with relax: pwdword</i>
   <i type="logical" name="LCOMPAT"> F  </i>
  </separator>
  <separator name="electronic" >
   <i type="string" name="PREC">acc</i>
   <i name="ENMAX">    600.00000000</i>
   <i name="ENAUG">    535.51400000</i>
   <i name="EDIFF">      0.00000000</i>
   <i type="int" name="IALGO">    58</i>
   <i type="int" name="IWAVPR">    10</i>
   <i type="int" name="NBANDS">    78</i>
   <i type="int" name="NBANDSLOW">    -1</i>
   <i type="int" name="NBANDSHIGH">    -1</i>
   <i name="NELECT">    124.00000000</i>
   <i type="int" name="TURBO">     0</i>
   <i type="int" name="IRESTART">     0</i>
   <i type="int" name="NREBOOT">     0</i>
   <i type="int" name="NMIN">     0</i>
   <i name="EREF">      0.00000000</i>
   <separator name="electronic smearing" >
    <i type="int" name="ISMEAR">     0</i>
    <i name="SIGMA">      0.02000000</i>
    <i name="KSPACING">      0.50000000</i>
    <i type="logical" name="KGAMMA"> T  </i>
    <i type="logical" name="KBLOWUP"> F  </i>
   </separator>
   <separator name="electronic projectors" >
    <i type="logical" name="LREAL"> F  </i>
    <v name="ROPT">      0.00000000      0.00000000      0.00000000</v>
    <i type="int" name="LMAXPAW">  -100</i>
    <i type="int" name="LMAXMIX">     2</i>
    <i type="logical" name="NLSPLINE"> F  </i>
   </separator>
   <separator name="electronic startup" >
    <i type="int" name="ISTART">     0</i>
    <i type="int" name="ICHARG">     2</i>
    <i type="int" name="INIWAV">     1</i>
   </separator>
   <separator name="electronic spin" >
    <i type="int" name="ISPIN">     1</i>
    <i type="logical" name="LNONCOLLINEAR"> F  </i>
    <v name="MAGMOM">      1.00000000      1.00000000      1.00000000      1.00000000      1.00000000      1.00000000      1.00000000      1.00000000      1.00000000      1.00000000      1.00000000      1.00000000      1.00000000      1.00000000      1.00000000      1.00000000      1.00000000      1.00000000</v>
    <i name="NUPDOWN">     -1.00000000</i>
    <i type="logical" name="LSORBIT"> F  </i>
    <v name="SAXIS">      0.00000000      0.00000000      1.00000000</v>
    <i type="logical" name="LSPIRAL"> F  </i>
    <v name="QSPIRAL">      0.00000000      0.00000000      0.00000000</v>
    <i type="logical" name="LZEROZ"> F  </i>
   </separator>
   <separator name="electronic exchange-correlation" >
    <i type="logical" name="LASPH"> T  </i>
    <i type="logical" name="LMETAGGA"> F  </i>
   </separator>
   <separator name="electronic convergence" >
    <i type="int" name="NELM">   100</i>
    <i type="int" name="NELMDL">    -5</i>
    <i type="int" name="NELMIN">     6</i>
    <i name="ENINI">    600.00000000</i>
    <separator name="electronic convergence detail" >
     <i type="logical" name="LDIAG"> T  </i>
     <i type="logical" name="LSUBROT"> F  </i>
     <i name="WEIMIN">      0.00000000</i>
     <i name="EBREAK">      0.00000000</i>
     <i name="DEPER">      0.30000000</i>
     <i type="int" name="NRMM">     4</i>
     <i name="TIME">      0.40000000</i>
    </separator>
   </separator>
   <separator name="electronic mixer" >
    <i name="AMIX">      0.40000000</i>
    <i name="BMIX">      1.00000000</i>
    <i name="AMIN">      0.10000000</i>
    <i name="AMIX_MAG">      1.60000000</i>
    <i name="BMIX_MAG">      1.00000000</i>
    <separator name="electronic mixer details" >
     <i type="int" name="IMIX">     4</i>
     <i type="logical" name="MIXFIRST"> F  </i>
     <i type="int" name="MAXMIX">   -45</i>
     <i name="WC">    100.00000000</i>
     <i type="int" name="INIMIX">     1</i>
     <i type="int" name="MIXPRE">     1</i>
     <i type="int" name="MREMOVE">     5</i>
    </separator>
   </separator>
   <separator name="electronic dipolcorrection" >
    <i type="logical" name="LDIPOL"> F  </i>
    <i type="logical" name="LMONO"> F  </i>
    <i type="int" name="IDIPOL">     0</i>
    <i name="EPSILON">      1.00000000</i>
    <v name="DIPOL">   -100.00000000   -100.00000000   -100.00000000</v>
    <i name="EFIELD">      0.00000000</i>
   </separator>
  </separator>
  <separator name="grids" >
   <i type="int" name="NGX">    54</i>
   <i type="int" name="NGY">    54</i>
   <i type="int" name="NGZ">    54</i>
   <i type="int" name="NGXF">   108</i>
   <i type="int" name="NGYF">   108</i>
   <i type="int" name="NGZF">   108</i>
   <i type="logical" name="ADDGRID"> T  </i>
  </separator>
  <separator name="ionic" >
   <i type="int" name="NSW">     0</i>
   <i type="int" name="IBRION">    -1</i>
   <i type="int" name="MDALGO">     0</i>
   <i type="int" name="ISIF">    -1</i>
   <i name="PSTRESS">      0.00000000</i>
   <i name="EDIFFG">      0.00000001</i>
   <i type="int" name="NFREE">     0</i>
   <i name="POTIM">      0.50000000</i>
   <i name="SMASS">     -3.00000000</i>
   <i name="SCALEE">      1.00000000</i>
  </separator>
  <separator name="ionic md" >
   <i name="TEBEG">      0.00010000</i>
   <i name="TEEND">      0.00010000</i>
   <i type="int" name="NBLOCK">     1</i>
   <i type="int" name="KBLOCK">     1</i>
   <i type="int" name="NPACO">   256</i>
   <i name="APACO">     16.00000000</i>
  </separator>
  <separator name="symmetry" >
   <i type="int" name="ISYM">     2</i>
   <i name="SYMPREC">      0.00010000</i>
  </separator>
  <separator name="dos" >
   <i type="int" name="LORBIT">     0</i>
   <v name="RWIGS">     -1.00000000     -1.00000000     -1.00000000</v>
   <i type="int" name="NEDOS">   301</i>
   <i name="EMIN">     10.00000000</i>
   <i name="EMAX">    -10.00000000</i>
   <i name="EFERMI">      0.00000000</i>
  </separator>
  <separator name="writing" >
   <i type="int" name="NWRITE">     2</i>
   <i type="logical" name="LWAVE"> T  </i>
   <i type="logical" name="LDOWNSAMPLE"> F  </i>
   <i type="logical" name="LCHARG"> T  </i>
   <i type="logical" name="LPARD"> F  </i>
   <i type="logical" name="LVTOT"> F  </i>
   <i type="logical" name="LVHAR"> F  </i>
   <i type="logical" name="LELF"> F  </i>
   <i type="logical" name="LOPTICS"> F  </i>
   <v name="STM">      0.00000000      0.00000000      0.00000000      0.00000000      0.00000000      0.00000000      0.00000000</v>
  </separator>
  <separator name="performance" >
   <i type="int" name="NPAR">     6</i>
   <i type="int" name="NSIM">     4</i>
   <i type="int" name="NBLK">    -1</i>
   <i type="logical" name="LPLANE"> T  </i>
   <i type="logical" name="LSCALAPACK"> T  </i>
   <i type="logical" name="LSCAAWARE"> F  </i>
   <i type="logical" name="LSCALU"> F  </i>
   <i type="logical" name="LASYNC"> F  </i>
   <i type="logical" name="LORBITALREAL"> F  </i>
  </separator>
  <separator name="miscellaneous" >
   <i type="int" name="IDIOT">     3</i>
   <i type="int" name="PHON_NSTRUCT">    -1</i>
   <i type="logical" name="LMUSIC"> F  </i>
   <v name="POMASS">     10.81100000     95.94000000     28.08500000</v>
   <v name="DARWINR">      0.00000000      0.00000000      0.00000000</v>
   <v name="DARWINV">      1.00000000      1.00000000      1.00000000</v>
   <i type="logical" name="LCORR"> T  </i>
  </separator>
  <i type="logical" name="GGA_COMPAT"> T  </i>
  <i type="logical" name="LBERRY"> F  </i>
  <i type="int" name="ICORELEVEL">     0</i>
  <i type="logical" name="LDAU"> F  </i>
  <i type="int" name="I_CONSTRAINED_M">     0</i>
  <separator name="electronic exchange-correlation" >
   <i type="string" name="GGA">--</i>
   <i type="int" name="VOSKOWN">     0</i>
   <i type="logical" name="LHFCALC"> F  </i>
   <i type="string" name="PRECFOCK"></i>
   <i type="logical" name="LSYMGRAD"> F  </i>
   <i type="logical" name="LHFONE"> F  </i>
   <i type="logical" name="LRHFCALC"> F  </i>
   <i type="logical" name="LTHOMAS"> F  </i>
   <i type="logical" name="LMODELHF"> F  </i>
   <i type="logical" name="LFOCKACE"> F  </i>
   <i name="ENCUT4O">     -1.00000000</i>
   <i type="int" name="EXXOEP">     0</i>
   <i type="int" name="FOURORBIT">     0</i>
   <i name="AEXX">      0.00000000</i>
   <i name="HFALPHA">      0.00000000</i>
   <i name="MCALPHA">      0.00000000</i>
   <i name="ALDAX">      1.00000000</i>
   <i name="AGGAX">      1.00000000</i>
   <i name="ALDAC">      1.00000000</i>
   <i name="AGGAC">      1.00000000</i>
   <i type="int" name="NKREDX">     1</i>
   <i type="int" name="NKREDY">     1</i>
   <i type="int" name="NKREDZ">     1</i>
   <i type="logical" name="SHIFTRED"> F  </i>
   <i type="logical" name="ODDONLY"> F  </i>
   <i type="logical" name="EVENONLY"> F  </i>
   <i type="int" name="LMAXFOCK">     0</i>
   <i type="int" name="NMAXFOCKAE">     0</i>
   <i type="logical" name="LFOCKAEDFT"> F  </i>
   <i name="HFSCREEN">      0.00000000</i>
   <i name="HFSCREENC">      0.00000000</i>
   <i type="int" name="NBANDSGWLOW">     0</i>
  </separator>
  <separator name="vdW DFT" >
   <i type="logical" name="LUSE_VDW"> F  </i>
   <i name="Zab_VDW">     -0.84910000</i>
   <i name="PARAM1">      0.12340000</i>
   <i name="PARAM2">      1.00000000</i>
   <i name="PARAM3">      0.00000000</i>
  </separator>
  <separator name="model GW" >
   <i type="int" name="MODEL_GW">     0</i>
   <i name="MODEL_EPS0">      6.82587720</i>
   <i name="MODEL_ALPHA">      1.00000000</i>
  </separator>
  <separator name="linear response parameters" >
   <i type="logical" name="LEPSILON"> F  </i>
   <i type="logical" name="LRPA"> F  </i>
   <i type="logical" name="LNABLA"> F  </i>
   <i type="logical" name="LVEL"> F  </i>
   <i type="int" name="KINTER">     0</i>
   <i name="CSHIFT">      0.10000000</i>
   <i name="OMEGAMAX">     -1.00000000</i>
   <i name="DEG_THRESHOLD">      0.00200000</i>
   <i name="RTIME">     -0.10000000</i>
   <i name="WPLASMAI">      0.00000000</i>
   <v name="DFIELD">      0.00000000      0.00000000      0.00000000</v>
   <v name="WPLASMA">      0.00000000      0.00000000      0.00000000      0.00000000      0.00000000      0.00000000      0.00000000      0.00000000      0.00000000</v>
  </separator>
  <separator name="orbital magnetization" >
   <i type="logical" name="NUCIND"> F  </i>
   <v name="MAGPOS">      0.00000000      0.00000000      0.00000000</v>
   <i type="logical" name="LNICSALL"> T  </i>
   <i type="logical" name="ORBITALMAG"> F  </i>
   <i type="logical" name="LMAGBLOCH"> F  </i>
   <i type="logical" name="LCHIMAG"> F  </i>
   <i type="logical" name="LGAUGE"> T  </i>
   <i type="int" name="MAGATOM">     0</i>
   <v name="MAGDIPOL">      0.00000000      0.00000000      0.00000000</v>
   <v name="AVECCONST">      0.00000000      0.00000000      0.00000000</v>
  </separator>
  <separator name="response functions" >
   <i type="logical" name="LFINITE_TEMPERATURE"> F  </i>
   <i type="logical" name="LADDER"> F  </i>
   <i type="logical" name="LRPAFORCE"> F  </i>
   <i type="logical" name="LFXC"> F  </i>
   <i type="logical" name="LHARTREE"> T  </i>
   <i type="int" name="IBSE">     0</i>
   <v type="int" name="KPOINT">    -1     0     0     0</v>
   <i type="logical" name="LTCTC"> F  </i>
   <i type="logical" name="LTCTE"> F  </i>
   <i type="logical" name="LTETE"> F  </i>
   <i type="logical" name="LTRIPLET"> F  </i>
   <i type="logical" name="LFXCEPS"> F  </i>
   <i type="logical" name="LFXHEG"> F  </i>
   <i type="int" name="NATURALO">     2</i>
   <i type="logical" name="LHOLEGF"> F  </i>
   <i type="logical" name="L2ORDER"> F  </i>
   <i type="logical" name="LDMP1"> F  </i>
   <i type="logical" name="LMP2LT"> F  </i>
   <i type="logical" name="LSMP2LT"> F  </i>
   <i type="logical" name="LGWLF"> F  </i>
   <i name="ENCUTGW">     -2.00000000</i>
   <i name="ENCUTGWSOFT">     -2.00000000</i>
   <i name="ENCUTLF">     -1.00000000</i>
   <i type="logical" name="LESF_SPLINES"> F  </i>
   <i type="int" name="LMAXMP2">    -1</i>
   <i name="SCISSOR">      0.00000000</i>
   <i type="int" name="NOMEGA">     0</i>
   <i type="int" name="NOMEGAR">     0</i>
   <i type="int" name="NBANDSGW">    -1</i>
   <i type="int" name="NBANDSO">    -1</i>
   <i type="int" name="NBANDSV">    -1</i>
   <i type="int" name="NELM">   100</i>
   <i type="int" name="NELMHF">     1</i>
   <i type="int" name="DIM">     3</i>
   <i type="int" name="IESPILON">     4</i>
   <i type="int" name="ANTIRES">     0</i>
   <i name="OMEGAMAX">    -30.00000000</i>
   <i name="OMEGAMIN">    -30.00000000</i>
   <i name="OMEGATL">   -200.00000000</i>
   <i type="int" name="OMEGAGRID">     0</i>
   <i name="CSHIFT">     -0.10000000</i>
   <i type="logical" name="LSELFENERGY"> F  </i>
   <i type="logical" name="LSPECTRAL"> F  </i>
   <i type="logical" name="LSPECTRALGW"> F  </i>
   <i type="logical" name="LSINGLES"> F  </i>
   <i type="logical" name="LFERMIGW"> F  </i>
   <i type="logical" name="ODDONLYGW"> F  </i>
   <i type="logical" name="EVENONLYGW"> F  </i>
   <i type="int" name="NKREDLFX">     1</i>
   <i type="int" name="NKREDLFY">     1</i>
   <i type="int" name="NKREDLFZ">     1</i>
   <i type="int" name="MAXMEM">  2800</i>
   <i type="int" name="TELESCOPE">     0</i>
   <i type="int" name="NTAUPAR">    -1</i>
   <i type="int" name="NOMEGAPAR">    -1</i>
   <i name="DAMP_NEWTON">      0.80000001</i>
   <i name="LAMBDA">      1.00000000</i>
  </separator>
  <separator name="External order field" >
   <i name="OFIELD_KAPPA">      0.00000000</i>
   <v name="OFIELD_K">      0.00000000      0.00000000      0.00000000</v>
   <i name="OFIELD_Q6_NEAR">      0.00000000</i>
   <i name="OFIELD_Q6_FAR">      0.00000000</i>
   <i name="OFIELD_A">      0.00000000</i>
  </separator>
 </parameters>
 <atominfo>
  <atoms>      18 </atoms>
  <types>       3 </types>
  <array name="atoms" >
   <dimension dim="1">ion</dimension>
   <field type="string">element</field>
   <field type="int">atomtype</field>
   <set>
    <rc><c>B </c><c>   1</c></rc>
    <rc><c>B </c><c>   1</c></rc>
    <rc><c>B </c><c>   1</c></rc>
    <rc><c>B </c><c>   1</c></rc>
    <rc><c>B </c><c>   1</c></rc>
    <rc><c>B </c><c>   1</c></rc>
    <rc><c>B </c><c>   1</c></rc>
    <rc><c>B </c><c>   1</c></rc>
    <rc><c>Mo</c><c>   2</c></rc>
    <rc><c>Mo</c><c>   2</c></rc>
    <rc><c>Mo</c><c>   2</c></rc>
    <rc><c>Mo</c><c>   2</c></rc>
    <rc><c>Mo</c><c>   2</c></rc>
    <rc><c>Mo</c><c>   2</c></rc>
    <rc><c>Si</c><c>   3</c></rc>
    <rc><c>Si</c><c>   3</c></rc>
    <rc><c>Si</c><c>   3</c></rc>
    <rc><c>Si</c><c>   3</c></rc>
   </set>
  </array>
  <array name="atomtypes" >
   <dimension dim="1">type</dimension>
   <field type="int">atomspertype</field>
   <field type="string">element</field>
   <field>mass</field>
   <field>valence</field>
   <field type="string">pseudopotential</field>
   <set>
    <rc><c>   8</c><c>B </c><c>     10.81100000</c><c>      3.00000000</c><c>  PAW_PBE B 06Sep2000                   </c></rc>
    <rc><c>   6</c><c>Mo</c><c>     95.94000000</c><c>     14.00000000</c><c>  PAW_PBE Mo_sv 02Feb2006               </c></rc>
    <rc><c>   4</c><c>Si</c><c>     28.08500000</c><c>      4.00000000</c><c>  PAW_PBE Si 05Jan2001                  </c></rc>
   </set>
  </array>
 </atominfo>
 <structure name="initialpos" >
  <crystal>
   <varray name="basis" >
    <v>       5.62955400       0.00000000      -3.72329519 </v>
    <v>      -1.62680176       5.38937791      -3.72329519 </v>
    <v>       0.00000000       0.00000000       6.74943000 </v>
   </varray>
   <i name="volume">    204.77631586 </i>
   <varray name="rec_basis" >
    <v>       0.17763397       0.05361941       0.00000000 </v>
    <v>       0.00000000       0.18555017       0.00000000 </v>
    <v>       0.09799104       0.13193691       0.14816066 </v>
   </varray>
  </crystal>
  <varray name="positions" >
   <v>       0.92941000       0.90569000       0.50000000 </v>
   <v>       0.07059000       0.09431000       0.50000000 </v>
   <v>       0.59431000       0.57059000       0.50000000 </v>
   <v>       0.90569000       0.40569000       0.97628000 </v>
   <v>       0.09431000       0.59431000       0.02372000 </v>
   <v>       0.42941000       0.92941000       0.02372000 </v>
   <v>       0.40569000       0.42941000       0.50000000 </v>
   <v>       0.57059000       0.07059000       0.97628000 </v>
   <v>       0.25000000       0.25000000       0.00000000 </v>
   <v>       0.82536000       0.32536000       0.15072000 </v>
   <v>       0.32536000       0.17464000       0.50000000 </v>
   <v>       0.67464000       0.82536000       0.50000000 </v>
   <v>       0.17464000       0.67464000       0.84928000 </v>
   <v>       0.75000000       0.75000000       0.00000000 </v>
   <v>       0.50000000       0.50000000       0.50000000 </v>
   <v>       0.00000000       0.00000000       0.50000000 </v>
   <v>       0.00000000       0.50000000       0.00000000 </v>
   <v>       0.50000000       0.00000000       0.00000000 </v>
  </varray>
 </structure>
 <calculation>
  <scstep>
   <time name="total">   40.44   40.97</time>
   <energy>
    <i name="alphaZ">    609.72674611 </i>
    <i name="ewald">  -9068.37542141 </i>
    <i name="hartreedc">  -2781.81712723 </i>
    <i name="XCdc">    522.20464847 </i>
    <i name="pawpsdc">   9583.98494199 </i>
    <i name="pawaedc">  -9523.92957983 </i>
    <i name="eentropy">     -0.00058639 </i>
    <i name="bandstr">    190.62290314 </i>
    <i name="atom">  12155.31816883 </i>
    <i name="e_fr_energy">   1687.73469368 </i>
    <i name="e_wo_entrp">   1687.73528007 </i>
    <i name="e_0_energy">   1687.73498687 </i>
   </energy>
  </scstep>
  <scstep>
   <time name="total">   51.46   51.93</time>
   <energy>
    <i name="e_fr_energy">    129.58035172 </i>
    <i name="e_wo_entrp">    129.58209037 </i>
    <i name="e_0_energy">    129.58122104 </i>
   </energy>
  </scstep>
  <scstep>
   <time name="total">   52.89   53.39</time>
   <energy>
    <i name="e_fr_energy">     34.87663791 </i>
    <i name="e_wo_entrp">     34.87832624 </i>
    <i name="e_0_energy">     34.87748207 </i>
   </energy>
  </scstep>
  <scstep>
   <time name="total">   51.19   51.68</time>
   <energy>
    <i name="e_fr_energy">     31.93236395 </i>
    <i name="e_wo_entrp">     31.93436980 </i>
    <i name="e_0_energy">     31.93336688 </i>
   </energy>
  </scstep>
  <scstep>
   <time name="total">   54.16   54.67</time>
   <energy>
    <i name="e_fr_energy">     31.86643045 </i>
    <i name="e_wo_entrp">     31.86842649 </i>
    <i name="e_0_energy">     31.86742847 </i>
   </energy>
  </scstep>
  <scstep>
   <time name="total">   52.46   52.99</time>
   <energy>
    <i name="e_fr_energy">    608.28952721 </i>
    <i name="e_wo_entrp">    608.29232188 </i>
    <i name="e_0_energy">    608.29092454 </i>
   </energy>
  </scstep>
  <scstep>
   <time name="total">   56.30   56.76</time>
   <energy>
    <i name="e_fr_energy">    248.58433287 </i>
    <i name="e_wo_entrp">    248.58649254 </i>
    <i name="e_0_energy">    248.58541271 </i>
   </energy>
  </scstep>
  <scstep>
   <time name="total">   53.33   53.77</time>
   <energy>
    <i name="e_fr_energy">    217.98602371 </i>
    <i name="e_wo_entrp">    217.98912689 </i>
    <i name="e_0_energy">    217.98757530 </i>
   </energy>
  </scstep>
  <scstep>
   <time name="total">   56.13   56.58</time>
   <energy>
    <i name="e_fr_energy">    205.15903185 </i>
    <i name="e_wo_entrp">    205.16139255 </i>
    <i name="e_0_energy">    205.16021220 </i>
   </energy>
  </scstep>
  <scstep>
   <time name="total">   55.16   55.62</time>
   <energy>
    <i name="e_fr_energy">    200.11026041 </i>
    <i name="e_wo_entrp">    200.11237340 </i>
    <i name="e_0_energy">    200.11131690 </i>
   </energy>
  </scstep>
  <scstep>
   <time name="total">   55.22   55.67</time>
   <energy>
    <i name="e_fr_energy">    198.29573781 </i>
    <i name="e_wo_entrp">    198.29822986 </i>
    <i name="e_0_energy">    198.29698384 </i>
   </energy>
  </scstep>
  <scstep>
   <time name="total">   53.82   54.27</time>
   <energy>
    <i name="e_fr_energy">    197.36557374 </i>
    <i name="e_wo_entrp">    197.36830399 </i>
    <i name="e_0_energy">    197.36693886 </i>
   </energy>
  </scstep>
  <scstep>
   <time name="total">   53.30   53.75</time>
   <energy>
    <i name="e_fr_energy">    196.83382706 </i>
    <i name="e_wo_entrp">    196.83678509 </i>
    <i name="e_0_energy">    196.83530608 </i>
   </energy>
  </scstep>
  <scstep>
   <time name="total">   54.89   55.34</time>
   <energy>
    <i name="e_fr_energy">    196.53466226 </i>
    <i name="e_wo_entrp">    196.53749924 </i>
    <i name="e_0_energy">    196.53608075 </i>
   </energy>
  </scstep>
  <scstep>
   <time name="total">   53.99   54.44</time>
   <energy>
    <i name="e_fr_energy">    196.36080217 </i>
    <i name="e_wo_entrp">    196.36348525 </i>
    <i name="e_0_energy">    196.36214371 </i>
   </energy>
  </scstep>
  <scstep>
   <time name="total">   53.17   53.61</time>
   <energy>
    <i name="e_fr_energy">    196.26022648 </i>
    <i name="e_wo_entrp">    196.26303213 </i>
    <i name="e_0_energy">    196.26162930 </i>
   </energy>
  </scstep>
  <scstep>
   <time name="total">   54.86   55.30</time>
   <energy>
    <i name="e_fr_energy">    196.21204800 </i>
    <i name="e_wo_entrp">    196.21467734 </i>
    <i name="e_0_energy">    196.21336267 </i>
   </energy>
  </scstep>
  <scstep>
   <time name="total">   54.35   54.79</time>
   <energy>
    <i name="e_fr_energy">    196.18808957 </i>
    <i name="e_wo_entrp">    196.19076729 </i>
    <i name="e_0_energy">    196.18942843 </i>
   </energy>
  </scstep>
  <scstep>
   <time name="total">   55.44   55.89</time>
   <energy>
    <i name="e_fr_energy">    196.16441387 </i>
    <i name="e_wo_entrp">    196.16666805 </i>
    <i name="e_0_energy">    196.16554096 </i>
   </energy>
  </scstep>
  <scstep>
   <time name="total">   52.56   52.99</time>
   <energy>
    <i name="e_fr_energy">    196.14931392 </i>
    <i name="e_wo_entrp">    196.15145089 </i>
    <i name="e_0_energy">    196.15038240 </i>
   </energy>
  </scstep>
  <scstep>
   <time name="total">   52.10   52.53</time>
   <energy>
    <i name="e_fr_energy">    196.14042178 </i>
    <i name="e_wo_entrp">    196.14243482 </i>
    <i name="e_0_energy">    196.14142830 </i>
   </energy>
  </scstep>
  <scstep>
   <time name="total">   53.52   53.95</time>
   <energy>
    <i name="e_fr_energy">    196.13461466 </i>
    <i name="e_wo_entrp">    196.13653201 </i>
    <i name="e_0_energy">    196.13557334 </i>
   </energy>
  </scstep>
  <scstep>
   <time name="total">   55.36   55.82</time>
   <energy>
    <i name="e_fr_energy">    196.13106680 </i>
    <i name="e_wo_entrp">    196.13300343 </i>
    <i name="e_0_energy">    196.13203512 </i>
   </energy>
  </scstep>
  <scstep>
   <time name="total">   53.70   54.14</time>
   <energy>
    <i name="e_fr_energy">    196.12866189 </i>
    <i name="e_wo_entrp">    196.13060319 </i>
    <i name="e_0_energy">    196.12963254 </i>
   </energy>
  </scstep>
  <scstep>
   <time name="total">   57.74   58.21</time>
   <energy>
    <i name="e_fr_energy">    196.12692136 </i>
    <i name="e_wo_entrp">    196.12889000 </i>
    <i name="e_0_energy">    196.12790568 </i>
   </energy>
  </scstep>
  <scstep>
   <time name="total">   52.75   53.18</time>
   <energy>
    <i name="e_fr_energy">    196.12584563 </i>
    <i name="e_wo_entrp">    196.12787237 </i>
    <i name="e_0_energy">    196.12685900 </i>
   </energy>
  </scstep>
  <scstep>
   <time name="total">   51.47   51.90</time>
   <energy>
    <i name="e_fr_energy">    196.12523040 </i>
    <i name="e_wo_entrp">    196.12728188 </i>
    <i name="e_0_energy">    196.12625614 </i>
   </energy>
  </scstep>
  <scstep>
   <time name="total">   52.18   52.61</time>
   <energy>
    <i name="e_fr_energy">    196.12478217 </i>
    <i name="e_wo_entrp">    196.12684593 </i>
    <i name="e_0_energy">    196.12581405 </i>
   </energy>
  </scstep>
  <scstep>
   <time name="total">   55.85   56.29</time>
   <energy>
    <i name="e_fr_energy">    196.12449169 </i>
    <i name="e_wo_entrp">    196.12657088 </i>
    <i name="e_0_energy">    196.12553128 </i>
   </energy>
  </scstep>
  <scstep>
   <time name="total">   51.95   52.38</time>
   <energy>
    <i name="e_fr_energy">    196.12431918 </i>
    <i name="e_wo_entrp">    196.12638966 </i>
    <i name="e_0_energy">    196.12535442 </i>
   </energy>
  </scstep>
  <scstep>
   <time name="total">   54.19   54.65</time>
   <energy>
    <i name="e_fr_energy">    196.12419628 </i>
    <i name="e_wo_entrp">    196.12625650 </i>
    <i name="e_0_energy">    196.12522639 </i>
   </energy>
  </scstep>
  <scstep>
   <time name="total">   52.02   52.46</time>
   <energy>
    <i name="e_fr_energy">    196.12411685 </i>
    <i name="e_wo_entrp">    196.12617412 </i>
    <i name="e_0_energy">    196.12514549 </i>
   </energy>
  </scstep>
  <scstep>
   <time name="total">   57.67   58.13</time>
   <energy>
    <i name="e_fr_energy">    196.12406663 </i>
    <i name="e_wo_entrp">    196.12611234 </i>
    <i name="e_0_energy">    196.12508949 </i>
   </energy>
  </scstep>
  <scstep>
   <time name="total">   56.29   56.79</time>
   <energy>
    <i name="e_fr_energy">    196.12402870 </i>
    <i name="e_wo_entrp">    196.12606604 </i>
    <i name="e_0_energy">    196.12504737 </i>
   </energy>
  </scstep>
  <scstep>
   <time name="total">   54.20   54.65</time>
   <energy>
    <i name="e_fr_energy">    196.12400334 </i>
    <i name="e_wo_entrp">    196.12603930 </i>
    <i name="e_0_energy">    196.12502132 </i>
   </energy>
  </scstep>
  <scstep>
   <time name="total">   52.29   52.74</time>
   <energy>
    <i name="e_fr_energy">    196.12398865 </i>
    <i name="e_wo_entrp">    196.12602077 </i>
    <i name="e_0_energy">    196.12500471 </i>
   </energy>
  </scstep>
  <scstep>
   <time name="total">   59.19   59.64</time>
   <energy>
    <i name="e_fr_energy">    196.12397801 </i>
    <i name="e_wo_entrp">    196.12601458 </i>
    <i name="e_0_energy">    196.12499630 </i>
   </energy>
  </scstep>
  <scstep>
   <time name="total">   53.87   54.39</time>
   <energy>
    <i name="e_fr_energy">    196.12396296 </i>
    <i name="e_wo_entrp">    196.12599870 </i>
    <i name="e_0_energy">    196.12498083 </i>
   </energy>
  </scstep>
  <scstep>
   <time name="total">   54.99   55.45</time>
   <energy>
    <i name="e_fr_energy">    196.12395923 </i>
    <i name="e_wo_entrp">    196.12599880 </i>
    <i name="e_0_energy">    196.12497902 </i>
   </energy>
  </scstep>
  <scstep>
   <time name="total">   55.78   56.23</time>
   <energy>
    <i name="e_fr_energy">    196.12395681 </i>
    <i name="e_wo_entrp">    196.12599684 </i>
    <i name="e_0_energy">    196.12497682 </i>
   </energy>
  </scstep>
  <scstep>
   <time name="total">   53.34   53.79</time>
   <energy>
    <i name="e_fr_energy">    196.12395594 </i>
    <i name="e_wo_entrp">    196.12599695 </i>
    <i name="e_0_energy">    196.12497645 </i>
   </energy>
  </scstep>
  <scstep>
   <time name="total">   52.68   53.13</time>
   <energy>
    <i name="e_fr_energy">    196.12395575 </i>
    <i name="e_wo_entrp">    196.12599644 </i>
    <i name="e_0_energy">    196.12497609 </i>
   </energy>
  </scstep>
  <scstep>
   <time name="total">   56.04   56.49</time>
   <energy>
    <i name="e_fr_energy">    196.12395566 </i>
    <i name="e_wo_entrp">    196.12599622 </i>
    <i name="e_0_energy">    196.12497594 </i>
   </energy>
  </scstep>
  <scstep>
   <time name="total">   49.11   49.52</time>
   <energy>
    <i name="e_fr_energy">    196.12395560 </i>
    <i name="e_wo_entrp">    196.12599625 </i>
    <i name="e_0_energy">    196.12497592 </i>
   </energy>
  </scstep>
  <scstep>
