 vasp.6.2.0 18Jan21 (build Jan 05 2022 15:41:44) complex                        
  
 executed on             LinuxIFC date 2025.05.07  18:09:00
 running on   24 total cores
 distrk:  each k-point on   12 cores,    2 groups
 distr:  one band on NCORE=   2 cores,    6 groups


--------------------------------------------------------------------------------------------------------


 INCAR:
   SYSTEM = routine with relax: pwdword
   ICHARG = 2
   NPAR = 6
   KPAR = 2
   NCORE = 2
   ADDGRID = T
   PREC = Acc
   ENCUT = 600
   METAGGA = R2SCAN
   LASPH = .TRUE.
   LMIXTAU = .FALSE.
   ALGO = A
   EDIFF = 1E-9
   NELM = 100
   NELMIN = 6
   IALGO = 38
   LREAL = F
   NSW = 0
   ISIF = -1
   ISMEAR = 0
   SIGMA = 0.02

 POTCAR:    PAW_PBE B 06Sep2000                   
 POTCAR:    PAW_PBE Mo_sv 02Feb2006               
 POTCAR:    PAW_PBE Si 05Jan2001                  
 -----------------------------------------------------------------------------
|                                                                             |
|           W    W    AA    RRRRR   N    N  II  N    N   GGGG   !!!           |
|           W    W   A  A   R    R  NN   N  II  NN   N  G    G  !!!           |
|           W    W  A    A  R    R  N N  N  II  N N  N  G       !!!           |
|           W WW W  AAAAAA  RRRRR   N  N N  II  N  N N  G  GGG   !            |
|           WW  WW  A    A  R   R   N   NN  II  N   NN  G    G                |
|           W    W  A    A  R    R  N    N  II  N    N   GGGG   !!!           |
|                                                                             |
|     For optimal performance we recommend to set                             |
|       NCORE = 2 up to number-of-cores-per-socket                            |
|     NCORE specifies how many cores store one orbital (NPAR=cpu/NCORE).      |
|     This setting can greatly improve the performance of VASP for DFT.       |
|     The default, NCORE=1 might be grossly inefficient on modern             |
|     multi-core architectures or massively parallel machines. Do your        |
|     own testing! More info at https://www.vasp.at/wiki/index.php/NCORE      |
|     Unfortunately you need to use the default for GW and RPA                |
|     calculations (for HF NCORE is supported but not extensively tested      |
|     yet).                                                                   |
|                                                                             |
 -----------------------------------------------------------------------------

 POTCAR:    PAW_PBE B 06Sep2000                   
   VRHFIN =B: s2p1                                                                                  
   LEXCH  = PE                                                                                      
   EATOM  =    71.1703 eV,    5.2309 Ry                                                             
                                                                                                    
   TITEL  = PAW_PBE B 06Sep2000                                                                     
   LULTRA =        F    use ultrasoft PP ?                                                          
   IUNSCR =        1    unscreen: 0-lin 1-nonlin 2-no                                               
   RPACOR =    1.200    partial core radius                                                         
   POMASS =   10.811; ZVAL   =    3.000    mass and valenz                                          
   RCORE  =    1.700    outmost cutoff radius                                                       
   RWIGS  =    1.710; RWIGS  =    0.905    wigner-seitz radius (au A)                               
   ENMAX  =  318.614; ENMIN  =  238.960 eV                                                          
   ICORE  =        2    local potential                                                             
   LCOR   =        T    correct aug charges                                                         
   LPAW   =        T    paw PP                                                                      
   EAUG   =  535.514                                                                                
   DEXC   =    0.000                                                                                
   RMAX   =    1.732    core radius for proj-oper                                                   
   RAUG   =    1.300    factor for augmentation sphere                                              
   RDEP   =    1.757    radius for radial grids                                                     
   RDEPT  =    1.436    core radius for aug-charge                                                  
                                                                                                    
   Atomic configuration                                                                             
    4 entries                                                                                       
     n  l   j            E        occ.                                                              
     1  0  0.50      -180.5896   2.0000                                                             
     2  0  0.50        -9.4431   2.0000                                                             
     2  1  0.50        -3.6068   1.0000                                                             
     3  2  1.50        -4.0817   0.0000                                                             
   Description                                                                                      
     l       E           TYP  RCUT    TYP  RCUT                                                     
     0     -9.4430752     23  1.500                                                                 
     0      0.8675899     23  1.500                                                                 
     1     -3.6067955     23  1.700                                                                 
     1      6.1086146     23  1.700                                                                 
     2     -4.0817478      7  1.700                                                                 
  local pseudopotential read in
  partial core-charges read in
  partial kinetic energy density read in
  atomic valenz-charges read in
  non local Contribution for L=           0  read in
    real space projection operators read in
  non local Contribution for L=           0  read in
    real space projection operators read in
  non local Contribution for L=           1  read in
    real space projection operators read in
  non local Contribution for L=           1  read in
    real space projection operators read in
    PAW grid and wavefunctions read in
 
   number of l-projection  operators is LMAX  =           4
   number of lm-projection operators is LMMAX =           8
 
 POTCAR:    PAW_PBE Mo_sv 02Feb2006               
   VRHFIN =Mo: 4p5s4d                                                                               
   LEXCH  = PE                                                                                      
   EATOM  =  1862.2866 eV,  136.8742 Ry                                                             
                                                                                                    
   TITEL  = PAW_PBE Mo_sv 02Feb2006                                                                 
   LULTRA =        F    use ultrasoft PP ?                                                          
   IUNSCR =        1    unscreen: 0-lin 1-nonlin 2-no                                               
   RPACOR =    2.200    partial core radius                                                         
   POMASS =   95.940; ZVAL   =   14.000    mass and valenz                                          
   RCORE  =    2.500    outmost cutoff radius                                                       
   RWIGS  =    2.750; RWIGS  =    1.455    wigner-seitz radius (au A)                               
   ENMAX  =  242.676; ENMIN  =  182.007 eV                                                          
   ICORE  =        3    local potential                                                             
   LCOR   =        T    correct aug charges                                                         
   LPAW   =        T    paw PP                                                                      
   EAUG   =  446.014                                                                                
   DEXC   =    0.000                                                                                
   RMAX   =    2.563    core radius for proj-oper                                                   
   RAUG   =    1.300    factor for augmentation sphere                                              
   RDEP   =    2.641    radius for radial grids                                                     
   RDEPT  =    2.031    core radius for aug-charge                                                  
                                                                                                    
   Atomic configuration                                                                             
   11 entries                                                                                       
     n  l   j            E        occ.                                                              
     1  0  0.50    -19819.0341   2.0000                                                             
     2  0  0.50     -2799.0127   2.0000                                                             
     2  1  1.50     -2502.0276   6.0000                                                             
     3  0  0.50      -476.4449   2.0000                                                             
     3  1  1.50      -379.1496   6.0000                                                             
     3  2  2.50      -220.9367  10.0000                                                             
     4  0  0.50       -64.3378   2.0000                                                             
     5  0  0.50        -4.0862   1.0000                                                             
     4  1  1.50       -38.4773   6.0000                                                             
     4  2  2.50        -3.7535   5.0000                                                             
     4  3  2.50        -1.3606   0.0000                                                             
   Description                                                                                      
     l       E           TYP  RCUT    TYP  RCUT                                                     
     0    -64.3377829     23  2.100                                                                 
     0     -4.0861640     23  2.400                                                                 
     1    -38.4772993     23  2.100                                                                 
     1     13.6058260     23  2.100                                                                 
     2     -3.7534941     23  2.400                                                                 
     2     -5.1140767     23  2.400                                                                 
     3     -4.0817478     23  2.500                                                                 
  local pseudopotential read in
  partial core-charges read in
  partial kinetic energy density read in
  atomic valenz-charges read in
  non local Contribution for L=           0  read in
    real space projection operators read in
  non local Contribution for L=           0  read in
    real space projection operators read in
  non local Contribution for L=           1  read in
    real space projection operators read in
  non local Contribution for L=           1  read in
    real space projection operators read in
  non local Contribution for L=           2  read in
    real space projection operators read in
  non local Contribution for L=           2  read in
    real space projection operators read in
    PAW grid and wavefunctions read in
 
   number of l-projection  operators is LMAX  =           6
   number of lm-projection operators is LMMAX =          18
 
 POTCAR:    PAW_PBE Si 05Jan2001                  
   VRHFIN =Si: s2p2                                                                                 
   LEXCH  = PE                                                                                      
   EATOM  =   103.0669 eV,    7.5752 Ry                                                             
                                                                                                    
   TITEL  = PAW_PBE Si 05Jan2001                                                                    
   LULTRA =        F    use ultrasoft PP ?                                                          
   IUNSCR =        1    unscreen: 0-lin 1-nonlin 2-no                                               
   RPACOR =    1.500    partial core radius                                                         
   POMASS =   28.085; ZVAL   =    4.000    mass and valenz                                          
   RCORE  =    1.900    outmost cutoff radius                                                       
   RWIGS  =    2.480; RWIGS  =    1.312    wigner-seitz radius (au A)                               
   ENMAX  =  245.345; ENMIN  =  184.009 eV                                                          
   ICORE  =        2    local potential                                                             
   LCOR   =        T    correct aug charges                                                         
   LPAW   =        T    paw PP                                                                      
   EAUG   =  322.069                                                                                
   DEXC   =    0.000                                                                                
   RMAX   =    1.950    core radius for proj-oper                                                   
   RAUG   =    1.300    factor for augmentation sphere                                              
   RDEP   =    1.993    radius for radial grids                                                     
   RDEPT  =    1.837    core radius for aug-charge                                                  
                                                                                                    
   Atomic configuration                                                                             
    6 entries                                                                                       
     n  l   j            E        occ.                                                              
     1  0  0.50     -1785.8828   2.0000                                                             
     2  0  0.50      -139.4969   2.0000                                                             
     2  1  1.50       -95.5546   6.0000                                                             
     3  0  0.50       -10.8127   2.0000                                                             
     3  1  0.50        -4.0811   2.0000                                                             
     3  2  1.50        -4.0817   0.0000                                                             
   Description                                                                                      
     l       E           TYP  RCUT    TYP  RCUT                                                     
     0    -10.8127223     23  1.900                                                                 
     0     -7.6451159     23  1.900                                                                 
     1     -4.0811372     23  1.900                                                                 
     1      2.4879257     23  1.900                                                                 
     2     -4.0817478      7  1.900                                                                 
  local pseudopotential read in
  partial core-charges read in
  partial kinetic energy density read in
  atomic valenz-charges read in
  non local Contribution for L=           0  read in
    real space projection operators read in
  non local Contribution for L=           0  read in
    real space projection operators read in
  non local Contribution for L=           1  read in
    real space projection operators read in
  non local Contribution for L=           1  read in
    real space projection operators read in
    PAW grid and wavefunctions read in
 
   number of l-projection  operators is LMAX  =           4
   number of lm-projection operators is LMMAX =           8
 
 -----------------------------------------------------------------------------
|                                                                             |
|               ----> ADVICE to this user running VASP <----                  |
|                                                                             |
|     You have a (more or less) 'large supercell' and for larger cells it     |
|     might be more efficient to use real-space projection operators.         |
|     Therefore, try LREAL= Auto in the INCAR file.                           |
|     Mind: For very accurate calculation, you might also keep the            |
|     reciprocal projection scheme (i.e. LREAL=.FALSE.).                      |
|                                                                             |
 -----------------------------------------------------------------------------

  PAW_PBE B 06Sep2000                   :
 energy of atom  1       EATOM=  -71.1703
 kinetic energy error for atom=    0.0007 (will be added to EATOM!!)
  PAW_PBE Mo_sv 02Feb2006               :
 energy of atom  2       EATOM=-1862.2866
 kinetic energy error for atom=    0.0041 (will be added to EATOM!!)
  PAW_PBE Si 05Jan2001                  :
 energy of atom  3       EATOM= -103.0669
 kinetic energy error for atom=    0.0003 (will be added to EATOM!!)
 
 
 POSCAR: EA145
  positions in direct lattice
  No initial velocities read in

 METAGGA = R2SCA    LMAXTAU =  6    LMIXTAU =  F

 exchange correlation table for  LEXCH =        8
   RHO(1)=    0.500       N(1)  =     2000
   RHO(2)=  100.500       N(2)  =     4000
 


--------------------------------------------------------------------------------------------------------


 ion  position               nearest neighbor table
   1  0.649  0.867  0.253-  22 2.10  24 2.12  17 2.31  21 2.33
   2  0.614  0.396  0.747-  19 2.10  24 2.12  17 2.31  20 2.33
   3  0.604  0.351  0.218-  21 2.10  23 2.12  17 2.31  19 2.33
   4  0.396  0.649  0.782-  21 2.10  24 2.12  18 2.31  19 2.33
   5  0.633  0.851  0.747-  19 2.10  24 2.12  18 2.31  21 2.33
   6  0.367  0.149  0.253-  19 2.10  23 2.12  17 2.31  21 2.33
   7  0.133  0.386  0.782-  20 2.10  23 2.12  17 2.31  22 2.33
   8  0.386  0.604  0.253-  19 2.10  23 2.12  18 2.31  20 2.33
   9  0.867  0.614  0.218-  20 2.10  24 2.12  18 2.31  22 2.33
  10  0.886  0.633  0.782-  20 2.10  24 2.12  17 2.31  19 2.33
  11  0.896  0.114  0.747-  22 2.10  23 2.12  17 2.31  20 2.33
  12  0.104  0.886  0.253-  22 2.10  24 2.12  18 2.31  20 2.33
  13  0.149  0.896  0.782-  21 2.10  23 2.12  18 2.31  22 2.33
  14  0.851  0.104  0.218-  21 2.10  24 2.12  17 2.31  22 2.33
  15  0.351  0.133  0.747-  22 2.10  23 2.12  18 2.31  21 2.33
  16  0.114  0.367  0.218-  20 2.10  23 2.12  18 2.31  19 2.33
  17  0.750  0.250  0.500-   6 2.31   1 2.31   3 2.31  14 2.31   7 2.31  10 2.31  11 2.31   2 2.31
                            19 2.67  22 2.67  20 2.67  21 2.67
  18  0.250  0.750  0.500-   5 2.31  15 2.31  13 2.31   4 2.31   9 2.31  16 2.31  12 2.31   8 2.31
                            19 2.67  22 2.67  21 2.67  20 2.67
  19  0.500  0.500  0.500-   2 2.10   8 2.10   6 2.10   5 2.10   4 2.33   3 2.33  10 2.33  16 2.33
                            17 2.67  18 2.67  24 2.67  23 2.67
  20  0.000  0.500  0.000-   7 2.10   9 2.10  10 2.10  16 2.10   8 2.33  11 2.33  12 2.33   2 2.33
                            23 2.67  24 2.67  18 2.67  17 2.67
  21  0.500  0.000  0.000-   3 2.10   4 2.10  13 2.10  14 2.10   6 2.33   1 2.33   5 2.33  15 2.33
                            23 2.67  24 2.67  17 2.67  18 2.67
  22  0.000  0.000  0.500-  11 2.10  12 2.10   1 2.10  15 2.10  14 2.33  13 2.33   9 2.33   7 2.33
                            17 2.67  18 2.67  23 2.67  24 2.67
  23  0.250  0.250  0.000-   3 2.12  13 2.12  11 2.12   8 2.12   7 2.12  16 2.12  15 2.12   6 2.12
                            20 2.67  21 2.67  19 2.67  22 2.67
  24  0.750  0.750  0.000-   4 2.12  14 2.12  12 2.12   2 2.12   9 2.12  10 2.12   1 2.12   5 2.12
                            20 2.67  21 2.67  22 2.67  19 2.67
 
  LATTYP: Found a body centered tetragonal cell.
 ALAT       =     7.5454744536
 C/A-ratio  =     1.2865620047
  
  Lattice vectors:
  
 A1 = (   6.4310272818,   0.0000000000,  -3.2663166290)
 A2 = (  -2.4219831269,   5.9575254622,  -3.2663166290)
 A3 = (   0.0000000000,   0.0000000000,   7.2129700000)


Analysis of symmetry for initial positions (statically):
=====================================================================
 Subroutine PRICEL returns:
 Original cell was already a primitive cell.
 

 Routine SETGRP: Setting up the symmetry group for a 
 body centered tetragonal supercell.


 Subroutine GETGRP returns: Found  4 space group operations
 (whereof  2 operations were pure point group operations)
 out of a pool of 16 trial point group operations.


The static configuration has the point symmetry S_2 .
 The point group associated with its full space group is C_2h.


Analysis of symmetry for dynamics (positions and initial velocities):
=====================================================================
 Subroutine PRICEL returns:
 Original cell was already a primitive cell.
 

 Routine SETGRP: Setting up the symmetry group for a 
 body centered tetragonal supercell.


 Subroutine GETGRP returns: Found  4 space group operations
 (whereof  2 operations were pure point group operations)
 out of a pool of 16 trial point group operations.


The dynamic configuration has the point symmetry S_2 .
 The point group associated with its full space group is C_2h.


 Subroutine INISYM returns: Found  4 space group operations
 (whereof  2 operations are pure point group operations),
 and found     1 'primitive' translations


----------------------------------------------------------------------------------------

                                     Primitive cell                                     

  volume of cell :     276.3506

  direct lattice vectors                    reciprocal lattice vectors
     6.431027282  0.000000000 -3.266316629     0.155496153  0.063215686  0.000000000
    -2.421983127  5.957525462 -3.266316629     0.000000000  0.167854927  0.000000000
     0.000000000  0.000000000  7.212970000     0.070414776  0.104637865  0.138639146

  length of vectors
     7.212970000  7.212970000  7.212970000     0.167854927  0.167854927  0.187425015

  position of ions in fractional coordinates (direct lattice)
     0.649240000  0.866980000  0.253010000
     0.613970000  0.396240000  0.746990000
     0.603760000  0.350760000  0.217740000
     0.396240000  0.649240000  0.782260000
     0.633020000  0.850760000  0.746990000
     0.366980000  0.149240000  0.253010000
     0.133020000  0.386030000  0.782260000
     0.386030000  0.603760000  0.253010000
     0.866980000  0.613970000  0.217740000
     0.886030000  0.633020000  0.782260000
     0.896240000  0.113970000  0.746990000
     0.103760000  0.886030000  0.253010000
     0.149240000  0.896240000  0.782260000
     0.850760000  0.103760000  0.217740000
     0.350760000  0.133020000  0.746990000
     0.113970000  0.366980000  0.217740000
     0.750000000  0.250000000  0.500000000
     0.250000000  0.750000000  0.500000000
     0.500000000  0.500000000  0.500000000
     0.000000000  0.500000000  0.000000000
     0.500000000  0.000000000  0.000000000
     0.000000000  0.000000000  0.500000000
     0.250000000  0.250000000  0.000000000
     0.750000000  0.750000000  0.000000000

  ion indices of the primitive-cell ions
   primitive index   ion index
                 1           1
                 2           2
                 3           3
                 4           4
                 5           5
                 6           6
                 7           7
                 8           8
                 9           9
                10          10
                11          11
                12          12
                13          13
                14          14
                15          15
                16          16
                17          17
                18          18
                19          19
                20          20
                21          21
                22          22
                23          23
                24          24

----------------------------------------------------------------------------------------

 
 
 KPOINTS: EA                                      

Automatic generation of k-mesh.
 Grid dimensions read from file:
 generate k-points for:    6    6    7

 Generating k-lattice:

  Cartesian coordinates                     Fractional coordinates (reciprocal lattice)
     0.025916025  0.010535948  0.000000000     0.166666667  0.000000000  0.000000000
     0.000000000  0.027975821  0.000000000     0.000000000  0.166666667  0.000000000
     0.010059254  0.014948266  0.019805592     0.000000000  0.000000000  0.142857143

  Length of vectors
     0.027975821  0.027975821  0.026775002

  Shift w.r.t. Gamma in fractional coordinates (k-lattice)
     0.000000000  0.000000000  0.000000000

 -----------------------------------------------------------------------------
|                                                                             |
|           W    W    AA    RRRRR   N    N  II  N    N   GGGG   !!!           |
|           W    W   A  A   R    R  NN   N  II  NN   N  G    G  !!!           |
|           W    W  A    A  R    R  N N  N  II  N N  N  G       !!!           |
|           W WW W  AAAAAA  RRRRR   N  N N  II  N  N N  G  GGG   !            |
|           WW  WW  A    A  R   R   N   NN  II  N   NN  G    G                |
|           W    W  A    A  R    R  N    N  II  N    N   GGGG   !!!           |
|                                                                             |
|     Your reciprocal lattice and k-lattice belong to different lattice       |
|     classes:                                                                |
|                                                                             |
|        The reciprocal lattice is body-centered tetragonal,                  |
|        whereas your k-lattice is base-centered monoclinic.                  |
|                                                                             |
|     Results are often still useful ...                                      |
|                                                                             |
 -----------------------------------------------------------------------------

 WARNING: IBZKPT: internal override: KBLOWUP is changed to .FALSE.
      ... skipping the blow-up phase ...

 
 Subroutine IBZKPT returns following result:
 ===========================================
 
 Found     76 irreducible k-points:
 
 Following reciprocal coordinates:
            Coordinates               Weight
  0.000000  0.000000  0.000000      1.000000
  0.166667  0.000000  0.000000      4.000000
  0.333333  0.000000  0.000000      4.000000
  0.500000 -0.000000  0.000000      2.000000
  0.166667  0.166667  0.000000      2.000000
  0.333333  0.166667  0.000000      4.000000
  0.500000  0.166667  0.000000      4.000000
 -0.333333  0.166667  0.000000      4.000000
 -0.166667  0.166667  0.000000      2.000000
  0.333333  0.333333  0.000000      2.000000
  0.500000  0.333333  0.000000      4.000000
 -0.333333  0.333333  0.000000      2.000000
  0.500000  0.500000  0.000000      1.000000
 -0.000000  0.000000  0.142857      2.000000
  0.166667  0.000000  0.142857      4.000000
  0.333333  0.000000  0.142857      4.000000
  0.500000  0.000000  0.142857      4.000000
 -0.333333  0.000000  0.142857      4.000000
 -0.166667  0.000000  0.142857      4.000000
  0.166667  0.166667  0.142857      2.000000
  0.333333  0.166667  0.142857      4.000000
  0.500000  0.166667  0.142857      4.000000
 -0.333333  0.166667  0.142857      4.000000
 -0.166667  0.166667  0.142857      4.000000
  0.333333  0.333333  0.142857      2.000000
  0.500000  0.333333  0.142857      4.000000
 -0.333333  0.333333  0.142857      4.000000
 -0.166667  0.333333  0.142857      4.000000
  0.500000  0.500000  0.142857      2.000000
 -0.333333  0.500000  0.142857      4.000000
 -0.166667  0.500000  0.142857      4.000000
 -0.333333 -0.333333  0.142857      2.000000
 -0.166667 -0.333333  0.142857      4.000000
 -0.166667 -0.166667  0.142857      2.000000
 -0.000000  0.000000  0.285714      2.000000
  0.166667  0.000000  0.285714      4.000000
  0.333333  0.000000  0.285714      4.000000
  0.500000 -0.000000  0.285714      4.000000
 -0.333333  0.000000  0.285714      4.000000
 -0.166667  0.000000  0.285714      4.000000
  0.166667  0.166667  0.285714      2.000000
  0.333333  0.166667  0.285714      4.000000
  0.500000  0.166667  0.285714      4.000000
 -0.333333  0.166667  0.285714      4.000000
 -0.166667  0.166667  0.285714      4.000000
  0.333333  0.333333  0.285714      2.000000
  0.500000  0.333333  0.285714      4.000000
 -0.333333  0.333333  0.285714      4.000000
 -0.166667  0.333333  0.285714      4.000000
  0.500000  0.500000  0.285714      2.000000
 -0.333333  0.500000  0.285714      4.000000
 -0.166667  0.500000  0.285714      4.000000
 -0.333333 -0.333333  0.285714      2.000000
 -0.166667 -0.333333  0.285714      4.000000
 -0.166667 -0.166667  0.285714      2.000000
 -0.000000  0.000000  0.428571      2.000000
  0.166667  0.000000  0.428571      4.000000
  0.333333  0.000000  0.428571      4.000000
  0.500000  0.000000  0.428571      4.000000
 -0.333333 -0.000000  0.428571      4.000000
 -0.166667  0.000000  0.428571      4.000000
  0.166667  0.166667  0.428571      2.000000
  0.333333  0.166667  0.428571      4.000000
  0.500000  0.166667  0.428571      4.000000
 -0.333333  0.166667  0.428571      4.000000
 -0.166667  0.166667  0.428571      4.000000
  0.333333  0.333333  0.428571      2.000000
  0.500000  0.333333  0.428571      4.000000
 -0.333333  0.333333  0.428571      4.000000
 -0.166667  0.333333  0.428571      4.000000
  0.500000  0.500000  0.428571      2.000000
 -0.333333  0.500000  0.428571      4.000000
 -0.166667  0.500000  0.428571      4.000000
 -0.333333 -0.333333  0.428571      2.000000
 -0.166667 -0.333333  0.428571      4.000000
 -0.166667 -0.166667  0.428571      2.000000
 
 Following cartesian coordinates:
            Coordinates               Weight
  0.000000  0.000000  0.000000      1.000000
  0.025916  0.010536  0.000000      4.000000
  0.051832  0.021072  0.000000      4.000000
  0.077748  0.031608  0.000000      2.000000
  0.025916  0.038512  0.000000      2.000000
  0.051832  0.049048  0.000000      4.000000
  0.077748  0.059584  0.000000      4.000000
 -0.051832  0.006904  0.000000      4.000000
 -0.025916  0.017440  0.000000      2.000000
  0.051832  0.077024  0.000000      2.000000
  0.077748  0.087559  0.000000      4.000000
 -0.051832  0.034880  0.000000      2.000000
  0.077748  0.115535  0.000000      1.000000
  0.010059  0.014948  0.019806      2.000000
  0.035975  0.025484  0.019806      4.000000
  0.061891  0.036020  0.019806      4.000000
  0.087807  0.046556  0.019806      4.000000
 -0.041773 -0.006124  0.019806      4.000000
 -0.015857  0.004412  0.019806      4.000000
  0.035975  0.053460  0.019806      2.000000
  0.061891  0.063996  0.019806      4.000000
  0.087807  0.074532  0.019806      4.000000
 -0.041773  0.021852  0.019806      4.000000
 -0.015857  0.032388  0.019806      4.000000
  0.061891  0.091972  0.019806      2.000000
  0.087807  0.102508  0.019806      4.000000
 -0.041773  0.049828  0.019806      4.000000
 -0.015857  0.060364  0.019806      4.000000
  0.087807  0.130484  0.019806      2.000000
 -0.041773  0.077804  0.019806      4.000000
 -0.015857  0.088340  0.019806      4.000000
 -0.041773 -0.062075  0.019806      2.000000
 -0.015857 -0.051539  0.019806      4.000000
 -0.015857 -0.023564  0.019806      2.000000
  0.020119  0.029897  0.039611      2.000000
  0.046035  0.040432  0.039611      4.000000
  0.071951  0.050968  0.039611      4.000000
  0.097867  0.061504  0.039611      4.000000
 -0.031714  0.008825  0.039611      4.000000
 -0.005798  0.019361  0.039611      4.000000
  0.046035  0.068408  0.039611      2.000000
  0.071951  0.078944  0.039611      4.000000
  0.097867  0.089480  0.039611      4.000000
 -0.031714  0.036800  0.039611      4.000000
 -0.005798  0.047336  0.039611      4.000000
  0.071951  0.106920  0.039611      2.000000
  0.097867  0.117456  0.039611      4.000000
 -0.031714  0.064776  0.039611      4.000000
 -0.005798  0.075312  0.039611      4.000000
  0.097867  0.145432  0.039611      2.000000
 -0.031714  0.092752  0.039611      4.000000
 -0.005798  0.103288  0.039611      4.000000
 -0.031714 -0.047127  0.039611      2.000000
 -0.005798 -0.036591  0.039611      4.000000
 -0.005798 -0.008615  0.039611      2.000000
  0.030178  0.044845  0.059417      2.000000
  0.056094  0.055381  0.059417      4.000000
  0.082010  0.065917  0.059417      4.000000
  0.107926  0.076453  0.059417      4.000000
 -0.021654  0.023773  0.059417      4.000000
  0.004262  0.034309  0.059417      4.000000
  0.056094  0.083357  0.059417      2.000000
  0.082010  0.093893  0.059417      4.000000
  0.107926  0.104428  0.059417      4.000000
 -0.021654  0.051749  0.059417      4.000000
  0.004262  0.062285  0.059417      4.000000
  0.082010  0.121868  0.059417      2.000000
  0.107926  0.132404  0.059417      4.000000
 -0.021654  0.079725  0.059417      4.000000
  0.004262  0.090260  0.059417      4.000000
  0.107926  0.160380  0.059417      2.000000
 -0.021654  0.107700  0.059417      4.000000
  0.004262  0.118236  0.059417      4.000000
 -0.021654 -0.032179  0.059417      2.000000
  0.004262 -0.021643  0.059417      4.000000
  0.004262  0.006333  0.059417      2.000000
 


--------------------------------------------------------------------------------------------------------




 Dimension of arrays:
   k-points           NKPTS =     76   k-points in BZ     NKDIM =     76   number of bands    NBANDS=     84
   number of dos      NEDOS =    301   number of ions     NIONS =     24
   non local maximal  LDIM  =      6   non local SUM 2l+1 LMDIM =     18
   total plane-waves  NPLWV = 216000
   max r-space proj   IRMAX =      1   max aug-charges    IRDMAX= 273618
   dimension x,y,z NGX =    60 NGY =   60 NGZ =   60
   dimension x,y,z NGXF=   120 NGYF=  120 NGZF=  120
   support grid    NGXF=   240 NGYF=  240 NGZF=  240
   ions per type =              16   6   2
   NGX,Y,Z   is equivalent  to a cutoff of  13.83, 13.83, 13.83 a.u.
   NGXF,Y,Z  is equivalent  to a cutoff of  27.66, 27.66, 27.66 a.u.

 SYSTEM =  routine with relax: pwdword             
 POSCAR =  EA145                                   

 Startparameter for this run:
   NWRITE =      2    write-flag & timer
   PREC   = acc       normal or accurate (medium, high low for compatibility)
   ISTART =      0    job   : 0-new  1-cont  2-samecut
   ICHARG =      2    charge: 1-file 2-atom 10-const
   ISPIN  =      1    spin polarized calculation?
   LNONCOLLINEAR =      F non collinear calculations
   LSORBIT =      F    spin-orbit coupling
   INIWAV =      1    electr: 0-lowe 1-rand  2-diag
   LASPH  =      T    aspherical Exc in radial PAW
   METAGGA=      F    non-selfconsistent MetaGGA calc.

 Electronic Relaxation 1
   ENCUT  =  600.0 eV  44.10 Ry    6.64 a.u.  14.41 14.41 14.41*2*pi/ulx,y,z
   ENINI  =  600.0     initial cutoff
   ENAUG  =  535.5 eV  augmentation charge cutoff
   NELM   =    100;   NELMIN=  6; NELMDL= -5     # of ELM steps 
   EDIFF  = 0.1E-08   stopping-criterion for ELM
   LREAL  =      F    real-space projection
   NLSPLINE    = F    spline interpolate recip. space projectors
   LCOMPAT=      F    compatible to vasp.4.4
   GGA_COMPAT  = T    GGA compatible to vasp.4.4-vasp.4.6
   LMAXPAW     = -100 max onsite density
   LMAXMIX     =    2 max onsite mixed and CHGCAR
   VOSKOWN=      0    Vosko Wilk Nusair interpolation
   ROPT   =    0.00000   0.00000   0.00000
 Ionic relaxation
   EDIFFG = 0.1E-07   stopping-criterion for IOM
   NSW    =      0    number of steps for IOM
   NBLOCK =      1;   KBLOCK =      1    inner block; outer block 
   IBRION =     -1    ionic relax: 0-MD 1-quasi-New 2-CG
   NFREE  =      0    steps in history (QN), initial steepest desc. (CG)
   ISIF   =     -1    stress and relaxation
   IWAVPR =     10    prediction:  0-non 1-charg 2-wave 3-comb
   ISYM   =      2    0-nonsym 1-usesym 2-fastsym
   LCORR  =      T    Harris-Foulkes like correction to forces

   POTIM  = 0.5000    time-step for ionic-motion
   TEIN   =    0.0    initial temperature
   TEBEG  =    0.0;   TEEND  =   0.0 temperature during run
   SMASS  =  -3.00    Nose mass-parameter (am)
   estimated Nose-frequenzy (Omega)   =  0.10E-29 period in steps = 0.13E+47 mass=  -0.119E-26a.u.
   SCALEE = 1.0000    scale energy and forces
   NPACO  =    256;   APACO  = 16.0  distance and # of slots for P.C.
   PSTRESS=    0.0 pullay stress

  Mass of Ions in am
   POMASS =  10.81 95.94 28.09
  Ionic Valenz
   ZVAL   =   3.00 14.00  4.00
  Atomic Wigner-Seitz radii
   RWIGS  =  -1.00 -1.00 -1.00
  virtual crystal weights 
   VCA    =   1.00  1.00  1.00
   NELECT =     140.0000    total number of electrons
   NUPDOWN=      -1.0000    fix difference up-down

 DOS related values:
   EMIN   =  10.00;   EMAX   =-10.00  energy-range for DOS
   EFERMI =   0.00
   ISMEAR =     0;   SIGMA  =   0.02  broadening in eV -4-tet -1-fermi 0-gaus

 Electronic relaxation 2 (details)
   IALGO  =     58    algorithm
   LDIAG  =      T    sub-space diagonalisation (order eigenvalues)
   LSUBROT=      F    optimize rotation matrix (better conditioning)
   TURBO    =      0    0=normal 1=particle mesh
   IRESTART =      0    0=no restart 2=restart with 2 vectors
   NREBOOT  =      0    no. of reboots
   NMIN     =      0    reboot dimension
   EREF     =   0.00    reference energy to select bands
   IMIX   =      4    mixing-type and parameters
     AMIX     =   0.40;   BMIX     =  1.00
     AMIX_MAG =   1.60;   BMIX_MAG =  1.00
     AMIN     =   0.10
     WC   =   100.;   INIMIX=   1;  MIXPRE=   1;  MAXMIX= -45

 Intra band minimization:
   WEIMIN = 0.0000     energy-eigenvalue tresh-hold
   EBREAK =  0.30E-11  absolut break condition
   DEPER  =   0.30     relativ break condition  

   TIME   =   0.40     timestep for ELM

  volume/ion in A,a.u.               =      11.51        77.70
  Fermi-wavevector in a.u.,A,eV,Ry     =   1.305061  2.466207 23.173218  1.703183
  Thomas-Fermi vector in A             =   2.435955
 
 Write flags
   LWAVE        =      T    write WAVECAR
   LDOWNSAMPLE  =      F    k-point downsampling of WAVECAR
   LCHARG       =      T    write CHGCAR
   LVTOT        =      F    write LOCPOT, total local potential
   LVHAR        =      F    write LOCPOT, Hartree potential only
   LELF         =      F    write electronic localiz. function (ELF)
   LORBIT       =      0    0 simple, 1 ext, 2 COOP (PROOUT), +10 PAW based schemes


 Dipole corrections
   LMONO  =      F    monopole corrections only (constant potential shift)
   LDIPOL =      F    correct potential (dipole corrections)
   IDIPOL =      0    1-x, 2-y, 3-z, 4-all directions 
   EPSILON=  1.0000000 bulk dielectric constant

 Exchange correlation treatment:
   GGA     =    --    GGA type
   LEXCH   =     8    internal setting for exchange type
   VOSKOWN=      0    Vosko Wilk Nusair interpolation
   LHFCALC =     F    Hartree Fock is set to
   LHFONE  =     F    Hartree Fock one center treatment
   AEXX    =    0.0000 exact exchange contribution

 Linear response parameters
   LEPSILON=     F    determine dielectric tensor
   LRPA    =     F    only Hartree local field effects (RPA)
   LNABLA  =     F    use nabla operator in PAW spheres
   LVEL    =     F    velocity operator in full k-point grid
   LINTERFAST=   F  fast interpolation
   KINTER  =     0    interpolate to denser k-point grid
   CSHIFT  =0.1000    complex shift for real part using Kramers Kronig
   OMEGAMAX=  -1.0    maximum frequency
   DEG_THRESHOLD= 0.2000000E-02 threshold for treating states as degnerate
   RTIME   =   -0.100 relaxation time in fs
  (WPLASMAI=    0.000 imaginary part of plasma frequency in eV, 0.658/RTIME)
   DFIELD  = 0.0000000 0.0000000 0.0000000 field for delta impulse in time
 
 Orbital magnetization related:
   ORBITALMAG=     F  switch on orbital magnetization
   LCHIMAG   =     F  perturbation theory with respect to B field
   DQ        =  0.001000  dq finite difference perturbation B field
   LLRAUG    =     F  two centre corrections for induced B field



--------------------------------------------------------------------------------------------------------


 Static calculation
 charge density and potential will be updated during run
 non-spin polarized calculation
 Conjugate gradient for all bands (Freysoldt, et al. PRB 79, 241103 (2009))
 preconditioned conjugated gradient                                        
 perform sub-space diagonalisation
    before iterative eigenvector-optimisation
 modified Broyden-mixing scheme, WC =      100.0
 initial mixing is a Kerker type mixing with AMIX =  0.4000 and BMIX =      1.0000
 Hartree-type preconditioning will be used
 using additional bands           14
 reciprocal scheme for non local part
 use partial core corrections
 no Harris-corrections to forces 
 use gradient corrections 
 use of overlap-Matrix (Vanderbilt PP)
 Gauss-broadening in eV      SIGMA  =   0.02


--------------------------------------------------------------------------------------------------------


  energy-cutoff  :      600.00
  volume of cell :      276.35
      direct lattice vectors                 reciprocal lattice vectors
     6.431027282  0.000000000 -3.266316629     0.155496153  0.063215686  0.000000000
    -2.421983127  5.957525462 -3.266316629     0.000000000  0.167854927  0.000000000
     0.000000000  0.000000000  7.212970000     0.070414776  0.104637865  0.138639146

  length of vectors
     7.212970000  7.212970000  7.212970000     0.167854927  0.167854927  0.187425015


 
 k-points in units of 2pi/SCALE and weight: EA                                      
   0.00000000  0.00000000  0.00000000       0.004
   0.02591603  0.01053595  0.00000000       0.016
   0.05183205  0.02107190  0.00000000       0.016
   0.07774808  0.03160784  0.00000000       0.008
   0.02591603  0.03851177  0.00000000       0.008
   0.05183205  0.04904772  0.00000000       0.016
   0.07774808  0.05958366  0.00000000       0.016
  -0.05183205  0.00690393  0.00000000       0.016
  -0.02591603  0.01743987  0.00000000       0.008
   0.05183205  0.07702354  0.00000000       0.008
   0.07774808  0.08755949  0.00000000       0.016
  -0.05183205  0.03487975  0.00000000       0.008
   0.07774808  0.11553531  0.00000000       0.004
   0.01005925  0.01494827  0.01980559       0.008
   0.03597528  0.02548421  0.01980559       0.016
   0.06189130  0.03602016  0.01980559       0.016
   0.08780733  0.04655611  0.01980559       0.016
  -0.04177280 -0.00612363  0.01980559       0.016
  -0.01585677  0.00441232  0.01980559       0.016
   0.03597528  0.05346004  0.01980559       0.008
   0.06189130  0.06399598  0.01980559       0.016
   0.08780733  0.07453193  0.01980559       0.016
  -0.04177280  0.02185219  0.01980559       0.016
  -0.01585677  0.03238814  0.01980559       0.016
   0.06189130  0.09197180  0.01980559       0.008
   0.08780733  0.10250775  0.01980559       0.016
  -0.04177280  0.04982801  0.01980559       0.016
  -0.01585677  0.06036396  0.01980559       0.016
   0.08780733  0.13048357  0.01980559       0.008
  -0.04177280  0.07780383  0.01980559       0.016
  -0.01585677  0.08833978  0.01980559       0.016
  -0.04177280 -0.06207527  0.01980559       0.008
  -0.01585677 -0.05153932  0.01980559       0.016
  -0.01585677 -0.02356350  0.01980559       0.008
   0.02011851  0.02989653  0.03961118       0.008
   0.04603453  0.04043248  0.03961118       0.016
   0.07195056  0.05096843  0.03961118       0.016
   0.09786658  0.06150438  0.03961118       0.016
  -0.03171354  0.00882464  0.03961118       0.016
  -0.00579752  0.01936059  0.03961118       0.016
   0.04603453  0.06840830  0.03961118       0.008
   0.07195056  0.07894425  0.03961118       0.016
   0.09786658  0.08948020  0.03961118       0.016
  -0.03171354  0.03680046  0.03961118       0.016
  -0.00579752  0.04733641  0.03961118       0.016
   0.07195056  0.10692007  0.03961118       0.008
   0.09786658  0.11745602  0.03961118       0.016
  -0.03171354  0.06477628  0.03961118       0.016
  -0.00579752  0.07531223  0.03961118       0.016
   0.09786658  0.14543184  0.03961118       0.008
  -0.03171354  0.09275210  0.03961118       0.016
  -0.00579752  0.10328805  0.03961118       0.016
  -0.03171354 -0.04712700  0.03961118       0.008
  -0.00579752 -0.03659106  0.03961118       0.016
  -0.00579752 -0.00861524  0.03961118       0.008
   0.03017776  0.04484480  0.05941678       0.008
   0.05609379  0.05538075  0.05941678       0.016
   0.08200981  0.06591669  0.05941678       0.016
   0.10792584  0.07645264  0.05941678       0.016
  -0.02165429  0.02377290  0.05941678       0.016
   0.00426174  0.03430885  0.05941678       0.016
   0.05609379  0.08335657  0.05941678       0.008
   0.08200981  0.09389252  0.05941678       0.016
   0.10792584  0.10442846  0.05941678       0.016
  -0.02165429  0.05174873  0.05941678       0.016
   0.00426174  0.06228467  0.05941678       0.016
   0.08200981  0.12186834  0.05941678       0.008
   0.10792584  0.13240428  0.05941678       0.016
  -0.02165429  0.07972455  0.05941678       0.016
   0.00426174  0.09026049  0.05941678       0.016
   0.10792584  0.16038011  0.05941678       0.008
  -0.02165429  0.10770037  0.05941678       0.016
   0.00426174  0.11823632  0.05941678       0.016
  -0.02165429 -0.03217874  0.05941678       0.008
   0.00426174 -0.02164279  0.05941678       0.016
   0.00426174  0.00633303  0.05941678       0.008
 
 k-points in reciprocal lattice and weights: EA                                      
   0.00000000  0.00000000  0.00000000       0.004
   0.16666667  0.00000000  0.00000000       0.016
   0.33333333  0.00000000  0.00000000       0.016
   0.50000000 -0.00000000  0.00000000       0.008
   0.16666667  0.16666667  0.00000000       0.008
   0.33333333  0.16666667  0.00000000       0.016
   0.50000000  0.16666667  0.00000000       0.016
  -0.33333333  0.16666667  0.00000000       0.016
  -0.16666667  0.16666667  0.00000000       0.008
   0.33333333  0.33333333  0.00000000       0.008
   0.50000000  0.33333333  0.00000000       0.016
  -0.33333333  0.33333333  0.00000000       0.008
   0.50000000  0.50000000  0.00000000       0.004
  -0.00000000  0.00000000  0.14285714       0.008
   0.16666667  0.00000000  0.14285714       0.016
   0.33333333  0.00000000  0.14285714       0.016
   0.50000000  0.00000000  0.14285714       0.016
  -0.33333333  0.00000000  0.14285714       0.016
  -0.16666667  0.00000000  0.14285714       0.016
   0.16666667  0.16666667  0.14285714       0.008
   0.33333333  0.16666667  0.14285714       0.016
   0.50000000  0.16666667  0.14285714       0.016
  -0.33333333  0.16666667  0.14285714       0.016
  -0.16666667  0.16666667  0.14285714       0.016
   0.33333333  0.33333333  0.14285714       0.008
   0.50000000  0.33333333  0.14285714       0.016
  -0.33333333  0.33333333  0.14285714       0.016
  -0.16666667  0.33333333  0.14285714       0.016
   0.50000000  0.50000000  0.14285714       0.008
  -0.33333333  0.50000000  0.14285714       0.016
  -0.16666667  0.50000000  0.14285714       0.016
  -0.33333333 -0.33333333  0.14285714       0.008
  -0.16666667 -0.33333333  0.14285714       0.016
  -0.16666667 -0.16666667  0.14285714       0.008
  -0.00000000  0.00000000  0.28571429       0.008
   0.16666667  0.00000000  0.28571429       0.016
   0.33333333  0.00000000  0.28571429       0.016
   0.50000000 -0.00000000  0.28571429       0.016
  -0.33333333  0.00000000  0.28571429       0.016
  -0.16666667  0.00000000  0.28571429       0.016
   0.16666667  0.16666667  0.28571429       0.008
   0.33333333  0.16666667  0.28571429       0.016
   0.50000000  0.16666667  0.28571429       0.016
  -0.33333333  0.16666667  0.28571429       0.016
  -0.16666667  0.16666667  0.28571429       0.016
   0.33333333  0.33333333  0.28571429       0.008
   0.50000000  0.33333333  0.28571429       0.016
  -0.33333333  0.33333333  0.28571429       0.016
  -0.16666667  0.33333333  0.28571429       0.016
   0.50000000  0.50000000  0.28571429       0.008
  -0.33333333  0.50000000  0.28571429       0.016
  -0.16666667  0.50000000  0.28571429       0.016
  -0.33333333 -0.33333333  0.28571429       0.008
  -0.16666667 -0.33333333  0.28571429       0.016
  -0.16666667 -0.16666667  0.28571429       0.008
  -0.00000000  0.00000000  0.42857143       0.008
   0.16666667  0.00000000  0.42857143       0.016
   0.33333333  0.00000000  0.42857143       0.016
   0.50000000  0.00000000  0.42857143       0.016
  -0.33333333 -0.00000000  0.42857143       0.016
  -0.16666667  0.00000000  0.42857143       0.016
   0.16666667  0.16666667  0.42857143       0.008
   0.33333333  0.16666667  0.42857143       0.016
   0.50000000  0.16666667  0.42857143       0.016
  -0.33333333  0.16666667  0.42857143       0.016
  -0.16666667  0.16666667  0.42857143       0.016
   0.33333333  0.33333333  0.42857143       0.008
   0.50000000  0.33333333  0.42857143       0.016
  -0.33333333  0.33333333  0.42857143       0.016
  -0.16666667  0.33333333  0.42857143       0.016
   0.50000000  0.50000000  0.42857143       0.008
  -0.33333333  0.50000000  0.42857143       0.016
  -0.16666667  0.50000000  0.42857143       0.016
  -0.33333333 -0.33333333  0.42857143       0.008
  -0.16666667 -0.33333333  0.42857143       0.016
  -0.16666667 -0.16666667  0.42857143       0.008
 
 position of ions in fractional coordinates (direct lattice) 
   0.64924000  0.86698000  0.25301000
   0.61397000  0.39624000  0.74699000
   0.60376000  0.35076000  0.21774000
   0.39624000  0.64924000  0.78226000
   0.63302000  0.85076000  0.74699000
   0.36698000  0.14924000  0.25301000
   0.13302000  0.38603000  0.78226000
   0.38603000  0.60376000  0.25301000
   0.86698000  0.61397000  0.21774000
   0.88603000  0.63302000  0.78226000
   0.89624000  0.11397000  0.74699000
   0.10376000  0.88603000  0.25301000
   0.14924000  0.89624000  0.78226000
   0.85076000  0.10376000  0.21774000
   0.35076000  0.13302000  0.74699000
   0.11397000  0.36698000  0.21774000
   0.75000000  0.25000000  0.50000000
   0.25000000  0.75000000  0.50000000
   0.50000000  0.50000000  0.50000000
   0.00000000  0.50000000  0.00000000
   0.50000000  0.00000000  0.00000000
   0.00000000  0.00000000  0.50000000
   0.25000000  0.25000000  0.00000000
   0.75000000  0.75000000  0.00000000
 
 position of ions in cartesian coordinates  (Angst):
   2.07546922  5.16505543 -3.12750106
   2.98877123  2.36060989  2.08835074
   3.03326223  2.08966163 -1.54721246
   0.97578192  3.86786383  2.22754920
   2.01044252  5.06842436  0.54152117
   1.99860163  0.88910110  0.13881557
  -0.07950290  2.29978355  3.94703627
   1.02027293  3.59691557 -1.40801400
   4.08854705  3.65774191 -3.26669952
   4.16491934  3.77123277  0.68071964
   5.48771047  0.67897918  2.08835074
  -1.47866632  5.27854629 -1.40801400
  -1.21091165  5.33937262  2.22754920
   5.21995580  0.61815284 -1.54721246
   1.93357493  0.79247004  3.80783780
  -0.15587519  2.18629269 -0.00038289
   4.21777468  1.48938137  0.34016837
  -0.20873052  4.46814410  0.34016837
   2.00452208  2.97876273  0.34016837
  -1.21099156  2.97876273 -1.63315831
   3.21551364  0.00000000 -1.63315831
   0.00000000  0.00000000  3.60648500
   1.00226104  1.48938137 -1.63315831
   3.00678312  4.46814410 -4.89947494
 


--------------------------------------------------------------------------------------------------------


 k-point   1 :   0.0000 0.0000 0.0000  plane waves:    9271
 k-point   2 :   0.1667 0.0000 0.0000  plane waves:    9237
 k-point   3 :   0.3333 0.0000 0.0000  plane waves:    9226
 k-point   4 :   0.5000-0.0000 0.0000  plane waves:    9224
 k-point   5 :   0.1667 0.1667 0.0000  plane waves:    9225
 k-point   6 :   0.3333 0.1667 0.0000  plane waves:    9219
 k-point   7 :   0.5000 0.1667 0.0000  plane waves:    9223
 k-point   8 :  -0.3333 0.1667 0.0000  plane waves:    9224
 k-point   9 :  -0.1667 0.1667 0.0000  plane waves:    9241
 k-point  10 :   0.3333 0.3333 0.0000  plane waves:    9216
 k-point  11 :   0.5000 0.3333 0.0000  plane waves:    9229
 k-point  12 :  -0.3333 0.3333 0.0000  plane waves:    9219
 k-point  13 :   0.5000 0.5000 0.0000  plane waves:    9210
 k-point  14 :  -0.0000 0.0000 0.1429  plane waves:    9249
 k-point  15 :   0.1667 0.0000 0.1429  plane waves:    9225
 k-point  16 :   0.3333 0.0000 0.1429  plane waves:    9222
 k-point  17 :   0.5000 0.0000 0.1429  plane waves:    9221
 k-point  18 :  -0.3333 0.0000 0.1429  plane waves:    9228
 k-point  19 :  -0.1667 0.0000 0.1429  plane waves:    9237
 k-point  20 :   0.1667 0.1667 0.1429  plane waves:    9240
 k-point  21 :   0.3333 0.1667 0.1429  plane waves:    9230
 k-point  22 :   0.5000 0.1667 0.1429  plane waves:    9242
 k-point  23 :  -0.3333 0.1667 0.1429  plane waves:    9227
 k-point  24 :  -0.1667 0.1667 0.1429  plane waves:    9234
 k-point  25 :   0.3333 0.3333 0.1429  plane waves:    9240
 k-point  26 :   0.5000 0.3333 0.1429  plane waves:    9236
 k-point  27 :  -0.3333 0.3333 0.1429  plane waves:    9235
 k-point  28 :  -0.1667 0.3333 0.1429  plane waves:    9218
 k-point  29 :   0.5000 0.5000 0.1429  plane waves:    9220
 k-point  30 :  -0.3333 0.5000 0.1429  plane waves:    9229
 k-point  31 :  -0.1667 0.5000 0.1429  plane waves:    9215
 k-point  32 :  -0.3333-0.3333 0.1429  plane waves:    9204
 k-point  33 :  -0.1667-0.3333 0.1429  plane waves:    9195
 k-point  34 :  -0.1667-0.1667 0.1429  plane waves:    9224
 k-point  35 :  -0.0000 0.0000 0.2857  plane waves:    9225
 k-point  36 :   0.1667 0.0000 0.2857  plane waves:    9231
 k-point  37 :   0.3333 0.0000 0.2857  plane waves:    9219
 k-point  38 :   0.5000-0.0000 0.2857  plane waves:    9225
 k-point  39 :  -0.3333 0.0000 0.2857  plane waves:    9226
 k-point  40 :  -0.1667 0.0000 0.2857  plane waves:    9227
 k-point  41 :   0.1667 0.1667 0.2857  plane waves:    9237
 k-point  42 :   0.3333 0.1667 0.2857  plane waves:    9232
 k-point  43 :   0.5000 0.1667 0.2857  plane waves:    9234
 k-point  44 :  -0.3333 0.1667 0.2857  plane waves:    9215
 k-point  45 :  -0.1667 0.1667 0.2857  plane waves:    9230
 k-point  46 :   0.3333 0.3333 0.2857  plane waves:    9225
 k-point  47 :   0.5000 0.3333 0.2857  plane waves:    9218
 k-point  48 :  -0.3333 0.3333 0.2857  plane waves:    9221
 k-point  49 :  -0.1667 0.3333 0.2857  plane waves:    9227
 k-point  50 :   0.5000 0.5000 0.2857  plane waves:    9226
 k-point  51 :  -0.3333 0.5000 0.2857  plane waves:    9212
 k-point  52 :  -0.1667 0.5000 0.2857  plane waves:    9196
 k-point  53 :  -0.3333-0.3333 0.2857  plane waves:    9198
 k-point  54 :  -0.1667-0.3333 0.2857  plane waves:    9212
 k-point  55 :  -0.1667-0.1667 0.2857  plane waves:    9235
 k-point  56 :  -0.0000 0.0000 0.4286  plane waves:    9216
 k-point  57 :   0.1667 0.0000 0.4286  plane waves:    9221
 k-point  58 :   0.3333 0.0000 0.4286  plane waves:    9219
 k-point  59 :   0.5000 0.0000 0.4286  plane waves:    9208
 k-point  60 :  -0.3333-0.0000 0.4286  plane waves:    9228
 k-point  61 :  -0.1667 0.0000 0.4286  plane waves:    9240
 k-point  62 :   0.1667 0.1667 0.4286  plane waves:    9235
 k-point  63 :   0.3333 0.1667 0.4286  plane waves:    9229
 k-point  64 :   0.5000 0.1667 0.4286  plane waves:    9209
 k-point  65 :  -0.3333 0.1667 0.4286  plane waves:    9216
 k-point  66 :  -0.1667 0.1667 0.4286  plane waves:    9228
 k-point  67 :   0.3333 0.3333 0.4286  plane waves:    9210
 k-point  68 :   0.5000 0.3333 0.4286  plane waves:    9215
 k-point  69 :  -0.3333 0.3333 0.4286  plane waves:    9207
 k-point  70 :  -0.1667 0.3333 0.4286  plane waves:    9222
 k-point  71 :   0.5000 0.5000 0.4286  plane waves:    9204
 k-point  72 :  -0.3333 0.5000 0.4286  plane waves:    9188
 k-point  73 :  -0.1667 0.5000 0.4286  plane waves:    9199
 k-point  74 :  -0.3333-0.3333 0.4286  plane waves:    9185
 k-point  75 :  -0.1667-0.3333 0.4286  plane waves:    9208
 k-point  76 :  -0.1667-0.1667 0.4286  plane waves:    9237

 maximum and minimum number of plane-waves per node :      4649     4556

 maximum number of plane-waves:      9271
 maximum index in each direction: 
   IXMAX=   14   IYMAX=   14   IZMAX=   14
   IXMIN=  -14   IYMIN=  -14   IZMIN=  -14


 parallel 3D FFT for wavefunctions:
    minimum data exchange during FFTs selected (reduces bandwidth)
 parallel 3D FFT for charge:
    minimum data exchange during FFTs selected (reduces bandwidth)


 total amount of memory used by VASP MPI-rank0   470690. kBytes
=======================================================================

   base      :      30000. kBytes
   nonl-proj :     154255. kBytes
   fftplans  :      24330. kBytes
   grid      :      18307. kBytes
   one-center:        186. kBytes
   wavefun   :     243612. kBytes
 
     INWAV:  cpu time    0.0001: real time    0.0001
 Broyden mixing: mesh for mixing (old mesh)
   NGX = 29   NGY = 29   NGZ = 29
  (NGX  =120   NGY  =120   NGZ  =120)
  gives a total of  24389 points

 initial charge density was supplied:
 charge density of overlapping atoms calculated
 number of electron     140.0000000 magnetization 
 keeping initial charge density in first step


--------------------------------------------------------------------------------------------------------


 Maximum index for augmentation-charges        22269 (set IRDMAX)


--------------------------------------------------------------------------------------------------------


 First call to EWALD:  gamma=   0.272
 Maximum number of real-space cells 3x 3x 3
 Maximum number of reciprocal cells 3x 3x 3

    FEWALD:  cpu time    0.0207: real time    0.0208


--------------------------------------- Iteration      1(   1)  ---------------------------------------


    POTLOK:  cpu time    0.3458: real time    0.3484
    SETDIJ:  cpu time    0.7533: real time    0.7586
    TRIAL :  cpu time   48.8671: real time   49.2523
    CORREC:  cpu time    0.0019: real time    0.0019
    --------------------------------------------
      LOOP:  cpu time   50.0463: real time   50.4602

 eigenvalue-minimisations  : 13680
 total energy-change (2. order) : 0.1200318E+04  (-0.8970214E+04)
 number of electron     140.0000000 magnetization 
 augmentation part      140.0000000 magnetization 

 Free energy of the ion-electron system (eV)
  ---------------------------------------------------
  alpha Z        PSCENC =       594.51779102
  Ewald energy   TEWEN  =     -8510.98092531
  -Hartree energ DENC   =     -4063.30306148
  -exchange      EXHF   =         0.00000000
  -V(xc)+E(xc)   XCENC  =       586.60418792
  PAW double counting   =      9751.44097361    -9716.70682594
  entropy T*S    EENTRO =        -0.00114255
  eigenvalues    EBANDS =        40.20494261
  atomic energy  EATOM  =     12518.54185575
  ---------------------------------------------------
  free energy    TOTEN  =      1200.31779562 eV

  energy without entropy =     1200.31893818  energy(sigma->0) =     1200.31836690


--------------------------------------------------------------------------------------------------------




--------------------------------------- Iteration      1(   2)  ---------------------------------------


    TRIAL :  cpu time   50.2143: real time   50.9444
    CORREC:  cpu time    0.0017: real time    0.0017
    --------------------------------------------
      LOOP:  cpu time   50.2180: real time   50.9493

 eigenvalue-minimisations  : 14424
 total energy-change (2. order) :-0.1434241E+04  (-0.1397541E+04)
 number of electron     140.0000000 magnetization 
 augmentation part      140.0000000 magnetization 

 Free energy of the ion-electron system (eV)
  ---------------------------------------------------
  alpha Z        PSCENC =       594.51779102
  Ewald energy   TEWEN  =     -8510.98092531
  -Hartree energ DENC   =     -4063.30306148
  -exchange      EXHF   =         0.00000000
  -V(xc)+E(xc)   XCENC  =       586.60418792
  PAW double counting   =      9751.44097361    -9716.70682594
  entropy T*S    EENTRO =        -0.00205267
  eigenvalues    EBANDS =     -1394.03487229
  atomic energy  EATOM  =     12518.54185575
  ---------------------------------------------------
  free energy    TOTEN  =      -233.92292940 eV

  energy without entropy =     -233.92087673  energy(sigma->0) =     -233.92190306


--------------------------------------------------------------------------------------------------------




--------------------------------------- Iteration      1(   3)  ---------------------------------------


    TRIAL :  cpu time   54.6703: real time   55.3574
    CORREC:  cpu time    0.0019: real time    0.0020
    --------------------------------------------
      LOOP:  cpu time   54.6742: real time   55.3621

 eigenvalue-minimisations  : 16836
 total energy-change (2. order) :-0.7571916E+02  (-0.7256965E+02)
 number of electron     140.0000000 magnetization 
 augmentation part      140.0000000 magnetization 

 Free energy of the ion-electron system (eV)
  ---------------------------------------------------
  alpha Z        PSCENC =       594.51779102
  Ewald energy   TEWEN  =     -8510.98092531
  -Hartree energ DENC   =     -4063.30306148
  -exchange      EXHF   =         0.00000000
  -V(xc)+E(xc)   XCENC  =       586.60418792
  PAW double counting   =      9751.44097361    -9716.70682594
  entropy T*S    EENTRO =        -0.00201013
  eigenvalues    EBANDS =     -1469.75407011
  atomic energy  EATOM  =     12518.54185575
  ---------------------------------------------------
  free energy    TOTEN  =      -309.64208467 eV

  energy without entropy =     -309.64007454  energy(sigma->0) =     -309.64107961


--------------------------------------------------------------------------------------------------------




--------------------------------------- Iteration      1(   4)  ---------------------------------------


    TRIAL :  cpu time   53.3346: real time   53.9879
    CORREC:  cpu time    0.0019: real time    0.0019
    --------------------------------------------
      LOOP:  cpu time   53.3376: real time   53.9927

 eigenvalue-minimisations  : 16092
 total energy-change (2. order) :-0.2313759E+01  (-0.2250459E+01)
 number of electron     140.0000000 magnetization 
 augmentation part      140.0000000 magnetization 

 Free energy of the ion-electron system (eV)
  ---------------------------------------------------
  alpha Z        PSCENC =       594.51779102
  Ewald energy   TEWEN  =     -8510.98092531
  -Hartree energ DENC   =     -4063.30306148
  -exchange      EXHF   =         0.00000000
  -V(xc)+E(xc)   XCENC  =       586.60418792
  PAW double counting   =      9751.44097361    -9716.70682594
  entropy T*S    EENTRO =        -0.00173435
  eigenvalues    EBANDS =     -1472.06810471
  atomic energy  EATOM  =     12518.54185575
  ---------------------------------------------------
  free energy    TOTEN  =      -311.95584350 eV

  energy without entropy =     -311.95410915  energy(sigma->0) =     -311.95497633


--------------------------------------------------------------------------------------------------------




--------------------------------------- Iteration      1(   5)  ---------------------------------------


    TRIAL :  cpu time   52.5502: real time   53.2438
    CORREC:  cpu time    0.0018: real time    0.0018
    CHARGE:  cpu time    3.1812: real time    3.2035
    --------------------------------------------
      LOOP:  cpu time   55.7342: real time   56.4521

 eigenvalue-minimisations  : 15540
 total energy-change (2. order) :-0.6117028E-01  (-0.6068414E-01)
 number of electron     140.0000000 magnetization 
 augmentation part       11.8867714 magnetization 

 Free energy of the ion-electron system (eV)
  ---------------------------------------------------
  alpha Z        PSCENC =       594.51779102
  Ewald energy   TEWEN  =     -8510.98092531
  -Hartree energ DENC   =     -4063.30306148
  -exchange      EXHF   =         0.00000000
  -V(xc)+E(xc)   XCENC  =       586.60418792
  PAW double counting   =      9751.44097361    -9716.70682594
  entropy T*S    EENTRO =        -0.00171585
  eigenvalues    EBANDS =     -1472.12929350
  atomic energy  EATOM  =     12518.54185575
  ---------------------------------------------------
  free energy    TOTEN  =      -312.01701378 eV

  energy without entropy =     -312.01529793  energy(sigma->0) =     -312.01615586


--------------------------------------------------------------------------------------------------------




--------------------------------------- Iteration      1(   6)  ---------------------------------------


    POTLOK:  cpu time    0.2409: real time    0.2422
    SETDIJ:  cpu time    0.7618: real time    0.7659
    TRIAL :  cpu time   41.4895: real time   41.9070
    CORREC:  cpu time   13.1214: real time   13.2220
    CHARGE:  cpu time    3.3268: real time    3.3497
    --------------------------------------------
      LOOP:  cpu time   58.9482: real time   59.4953

 eigenvalue-minimisations  :     0
 total energy-change (2. order) : 0.6827116E+02  (-0.1297275E+02)
 number of electron     140.0000001 magnetization 
 augmentation part       13.9113047 magnetization 

 Free energy of the ion-electron system (eV)
  ---------------------------------------------------
  alpha Z        PSCENC =       594.51779102
  Ewald energy   TEWEN  =     -8510.98092531
  -Hartree energ DENC   =     -3692.14077842
  -exchange      EXHF   =         0.00000000
  -V(xc)+E(xc)   XCENC  =       589.44733113
  PAW double counting   =     19289.64845952   -19301.63760386
  entropy T*S    EENTRO =        -0.00247936
  eigenvalues    EBANDS =     -1731.14026483
  atomic energy  EATOM  =     12518.54185575
  ---------------------------------------------------
  free energy    TOTEN  =      -243.74585084 eV

  energy without entropy =     -243.74337148  energy(sigma->0) =     -243.74461116


--------------------------------------------------------------------------------------------------------




--------------------------------------- Iteration      1(   7)  ---------------------------------------


    POTLOK:  cpu time    0.2174: real time    0.2186
    SETDIJ:  cpu time    1.0259: real time    1.0320
    TRIAL :  cpu time   48.5718: real time   49.1290
    CORREC:  cpu time   13.5363: real time   13.6400
    CHARGE:  cpu time    3.6484: real time    3.6756
    --------------------------------------------
      LOOP:  cpu time   67.0092: real time   67.7047

 eigenvalue-minimisations  :     0
 total energy-change (2. order) :-0.1312153E+02  (-0.2617362E+01)
 number of electron     140.0000001 magnetization 
 augmentation part       13.9383119 magnetization 

 Free energy of the ion-electron system (eV)
  ---------------------------------------------------
  alpha Z        PSCENC =       594.51779102
  Ewald energy   TEWEN  =     -8510.98092531
  -Hartree energ DENC   =     -3972.08674378
  -exchange      EXHF   =         0.00000000
  -V(xc)+E(xc)   XCENC  =       599.14670264
  PAW double counting   =     18012.65872359   -18009.94331684
  entropy T*S    EENTRO =        -0.00249394
  eigenvalues    EBANDS =     -1488.71898667
  atomic energy  EATOM  =     12518.54185575
  ---------------------------------------------------
  free energy    TOTEN  =      -256.86737897 eV

  energy without entropy =     -256.86488503  energy(sigma->0) =     -256.86613200


--------------------------------------------------------------------------------------------------------




--------------------------------------- Iteration      1(   8)  ---------------------------------------


    POTLOK:  cpu time    0.5208: real time    0.5231
    SETDIJ:  cpu time    1.2778: real time    1.2837
    TRIAL :  cpu time   47.8969: real time   48.5125
    CORREC:  cpu time   14.6580: real time   14.7663
    CHARGE:  cpu time    3.8780: real time    3.9030
    --------------------------------------------
      LOOP:  cpu time   68.7854: real time   69.5456

 eigenvalue-minimisations  :     0
 total energy-change (2. order) :-0.2617922E+01  (-0.7965221E+00)
 number of electron     140.0000001 magnetization 
 augmentation part       13.8840843 magnetization 

 Free energy of the ion-electron system (eV)
  ---------------------------------------------------
  alpha Z        PSCENC =       594.51779102
  Ewald energy   TEWEN  =     -8510.98092531
  -Hartree energ DENC   =     -3985.21664194
  -exchange      EXHF   =         0.00000000
  -V(xc)+E(xc)   XCENC  =       599.84680736
  PAW double counting   =     17367.88780789   -17360.89714711
  entropy T*S    EENTRO =        -0.00308452
  eigenvalues    EBANDS =     -1483.18235427
  atomic energy  EATOM  =     12518.54185575
  ---------------------------------------------------
  free energy    TOTEN  =      -259.48530054 eV

  energy without entropy =     -259.48221602  energy(sigma->0) =     -259.48375828


--------------------------------------------------------------------------------------------------------




--------------------------------------- Iteration      1(   9)  ---------------------------------------


    POTLOK:  cpu time    0.3928: real time    0.3946
    SETDIJ:  cpu time    0.6721: real time    0.6768
    TRIAL :  cpu time   47.5281: real time   48.1616
    CORREC:  cpu time   14.7453: real time   14.8534
    CHARGE:  cpu time    3.4316: real time    3.4576
    --------------------------------------------
      LOOP:  cpu time   66.7756: real time   67.5499

 eigenvalue-minimisations  :     0
 total energy-change (2. order) :-0.8012280E+00  (-0.3172317E+00)
 number of electron     140.0000001 magnetization 
 augmentation part       13.8935741 magnetization 

 Free energy of the ion-electron system (eV)
  ---------------------------------------------------
  alpha Z        PSCENC =       594.51779102
  Ewald energy   TEWEN  =     -8510.98092531
  -Hartree energ DENC   =     -3963.91587746
  -exchange      EXHF   =         0.00000000
  -V(xc)+E(xc)   XCENC  =       599.48330333
  PAW double counting   =     17142.92217421   -17133.92566123
  entropy T*S    EENTRO =        -0.00255616
  eigenvalues    EBANDS =     -1506.92610438
  atomic energy  EATOM  =     12518.54185575
  ---------------------------------------------------
  free energy    TOTEN  =      -260.28652859 eV

  energy without entropy =     -260.28397243  energy(sigma->0) =     -260.28525051


--------------------------------------------------------------------------------------------------------




--------------------------------------- Iteration      1(  10)  ---------------------------------------


    POTLOK:  cpu time    0.2208: real time    0.2220
    SETDIJ:  cpu time    0.6497: real time    0.6536
    TRIAL :  cpu time   45.8185: real time   46.1787
    CORREC:  cpu time   14.9489: real time   15.0568
    CHARGE:  cpu time    3.2461: real time    3.2687
    --------------------------------------------
      LOOP:  cpu time   64.8885: real time   65.3854

 eigenvalue-minimisations  :     0
 total energy-change (2. order) :-0.3170790E+00  (-0.1387519E+00)
 number of electron     140.0000001 magnetization 
 augmentation part       13.8992915 magnetization 

 Free energy of the ion-electron system (eV)
  ---------------------------------------------------
  alpha Z        PSCENC =       594.51779102
  Ewald energy   TEWEN  =     -8510.98092531
  -Hartree energ DENC   =     -3971.91969246
  -exchange      EXHF   =         0.00000000
  -V(xc)+E(xc)   XCENC  =       599.86694092
  PAW double counting   =     17108.84193241   -17098.32707591
  entropy T*S    EENTRO =        -0.00249445
  eigenvalues    EBANDS =     -1501.14187786
  atomic energy  EATOM  =     12518.54185575
  ---------------------------------------------------
  free energy    TOTEN  =      -260.60360760 eV

  energy without entropy =     -260.60111315  energy(sigma->0) =     -260.60236037


--------------------------------------------------------------------------------------------------------




--------------------------------------- Iteration      1(  11)  ---------------------------------------


    POTLOK:  cpu time    0.2287: real time    0.2300
    SETDIJ:  cpu time    1.2970: real time    1.3033
    TRIAL :  cpu time   46.7925: real time   47.4130
    CORREC:  cpu time   13.4617: real time   13.5644
    CHARGE:  cpu time    3.1331: real time    3.1549
    --------------------------------------------
      LOOP:  cpu time   64.9180: real time   65.6712

 eigenvalue-minimisations  :     0
 total energy-change (2. order) :-0.1386560E+00  (-0.5798805E-01)
 number of electron     140.0000001 magnetization 
 augmentation part       13.8758164 magnetization 

 Free energy of the ion-electron system (eV)
  ---------------------------------------------------
  alpha Z        PSCENC =       594.51779102
  Ewald energy   TEWEN  =     -8510.98092531
  -Hartree energ DENC   =     -3983.73498431
  -exchange      EXHF   =         0.00000000
  -V(xc)+E(xc)   XCENC  =       600.26738815
  PAW double counting   =     17159.72399770   -17148.69977423
  entropy T*S    EENTRO =        -0.00191689
  eigenvalues    EBANDS =     -1490.37511793
  atomic energy  EATOM  =     12518.54185575
  ---------------------------------------------------
  free energy    TOTEN  =      -260.74226360 eV

  energy without entropy =     -260.74034671  energy(sigma->0) =     -260.74130516


--------------------------------------------------------------------------------------------------------




--------------------------------------- Iteration      1(  12)  ---------------------------------------


    POTLOK:  cpu time    0.2191: real time    0.2203
    SETDIJ:  cpu time    0.7999: real time    0.8048
    TRIAL :  cpu time   46.3205: real time   46.7839
    CORREC:  cpu time   14.9682: real time   15.0760
    CHARGE:  cpu time    3.0059: real time    3.0274
    --------------------------------------------
      LOOP:  cpu time   65.3160: real time   65.9152

 eigenvalue-minimisations  :     0
 total energy-change (2. order) :-0.5807191E-01  (-0.2270342E-01)
 number of electron     140.0000001 magnetization 
 augmentation part       13.8770209 magnetization 

 Free energy of the ion-electron system (eV)
  ---------------------------------------------------
  alpha Z        PSCENC =       594.51779102
  Ewald energy   TEWEN  =     -8510.98092531
  -Hartree energ DENC   =     -3977.37206515
  -exchange      EXHF   =         0.00000000
  -V(xc)+E(xc)   XCENC  =       600.10093191
  PAW double counting   =     17215.49535552   -17204.78826197
  entropy T*S    EENTRO =        -0.00179495
  eigenvalues    EBANDS =     -1496.31310040
  atomic energy  EATOM  =     12518.54185575
  ---------------------------------------------------
  free energy    TOTEN  =      -260.80033552 eV

  energy without entropy =     -260.79854056  energy(sigma->0) =     -260.79943804


--------------------------------------------------------------------------------------------------------




--------------------------------------- Iteration      1(  13)  ---------------------------------------


    POTLOK:  cpu time    0.2137: real time    0.2149
    SETDIJ:  cpu time    0.7367: real time    0.7409
    TRIAL :  cpu time   43.7587: real time   44.2461
    CORREC:  cpu time   14.5907: real time   14.7022
    CHARGE:  cpu time    3.9799: real time    4.0060
    --------------------------------------------
      LOOP:  cpu time   63.2846: real time   63.9157

 eigenvalue-minimisations  :     0
 total energy-change (2. order) :-0.2269276E-01  (-0.9604111E-02)
 number of electron     140.0000001 magnetization 
 augmentation part       13.8901146 magnetization 

 Free energy of the ion-electron system (eV)
  ---------------------------------------------------
  alpha Z        PSCENC =       594.51779102
  Ewald energy   TEWEN  =     -8510.98092531
  -Hartree energ DENC   =     -3974.58519897
  -exchange      EXHF   =         0.00000000
  -V(xc)+E(xc)   XCENC  =       600.03418052
  PAW double counting   =     17255.38504649   -17244.84018157
  entropy T*S    EENTRO =        -0.00178438
  eigenvalues    EBANDS =     -1498.89380125
  atomic energy  EATOM  =     12518.54185575
  ---------------------------------------------------
  free energy    TOTEN  =      -260.82302827 eV

  energy without entropy =     -260.82124389  energy(sigma->0) =     -260.82213608


--------------------------------------------------------------------------------------------------------




--------------------------------------- Iteration      1(  14)  ---------------------------------------


    POTLOK:  cpu time    0.2078: real time    0.2090
    SETDIJ:  cpu time    0.8551: real time    0.8599
    TRIAL :  cpu time   45.9568: real time   46.5044
    CORREC:  cpu time   13.6428: real time   13.7454
    CHARGE:  cpu time    3.5655: real time    3.5894
    --------------------------------------------
      LOOP:  cpu time   64.2305: real time   64.9119

 eigenvalue-minimisations  :     0
 total energy-change (2. order) :-0.9586925E-02  (-0.4371739E-02)
 number of electron     140.0000001 magnetization 
 augmentation part       13.8843406 magnetization 

 Free energy of the ion-electron system (eV)
  ---------------------------------------------------
  alpha Z        PSCENC =       594.51779102
  Ewald energy   TEWEN  =     -8510.98092531
  -Hartree energ DENC   =     -3976.58458701
  -exchange      EXHF   =         0.00000000
  -V(xc)+E(xc)   XCENC  =       600.11138044
  PAW double counting   =     17278.98643503   -17268.41962578
  entropy T*S    EENTRO =        -0.00186569
  eigenvalues    EBANDS =     -1497.00315495
  atomic energy  EATOM  =     12518.54185575
  ---------------------------------------------------
  free energy    TOTEN  =      -260.83261520 eV

  energy without entropy =     -260.83074951  energy(sigma->0) =     -260.83168235


--------------------------------------------------------------------------------------------------------




--------------------------------------- Iteration      1(  15)  ---------------------------------------


    POTLOK:  cpu time    0.2261: real time    0.2275
    SETDIJ:  cpu time    1.2161: real time    1.2233
    TRIAL :  cpu time   47.0855: real time   47.4765
    CORREC:  cpu time   13.6133: real time   13.7122
    CHARGE:  cpu time    3.0664: real time    3.0874
    --------------------------------------------
      LOOP:  cpu time   65.2134: real time   65.7335

 eigenvalue-minimisations  :     0
 total energy-change (2. order) :-0.4376276E-02  (-0.2040273E-02)
[...]
     29      -2.3598      2.00000
     30      -2.3135      2.00000
     31      -1.7375      2.00000
     32      -1.4967      2.00000
     33      -1.3790      2.00000
     34      -1.3282      2.00000
     35      -0.5808      2.00000
     36      -0.5372      2.00000
     37      -0.5255      2.00000
     38       0.8584      2.00000
     39       1.6694      2.00000
     40       1.7279      2.00000
     41       1.7297      2.00000
     42       1.7578      2.00000
     43       2.0334      2.00000
     44       2.2136      2.00000
     45       2.3299      2.00000
     46       2.3420      2.00000
     47       2.7246      2.00000
     48       2.8400      2.00000
     49       2.8833      2.00000
     50       3.2748      2.00000
     51       3.5426      2.00000
     52       3.5977      2.00000
     53       3.6791      2.00000
     54       3.8625      2.00000
     55       4.4647      2.00000
     56       4.6037      2.00000
     57       4.7012      2.00000
     58       4.8938      2.00000
     59       5.0009      2.00000
     60       5.0769      2.00000
     61       5.2290      2.00000
     62       5.5037      2.00000
     63       5.6687      2.00000
     64       5.7493      2.00000
     65       5.7918      2.00000
     66       6.2159      2.00000
     67       6.5295      2.00000
     68       7.1135      2.00000
     69       7.1836      2.00000
     70       7.2652      2.00000
     71       7.3162      1.99988
     72       7.4815      0.00000
     73       7.8865      0.00000
     74       7.9374      0.00000
     75       8.1071      0.00000
     76       8.2767      0.00000
     77       8.6752      0.00000
     78       8.7059      0.00000
     79       8.8737      0.00000
     80       9.1370      0.00000
     81       9.6468      0.00000
     82       9.6716      0.00000
     83      10.5281      0.00000
     84      10.7136      0.00000

 k-point    72 :      -0.3333    0.5000    0.4286
  band No.  band energies     occupation 
      1     -55.3962      2.00000
      2     -55.3013      2.00000
      3     -55.2656      2.00000
      4     -55.2626      2.00000
      5     -55.2524      2.00000
      6     -55.1565      2.00000
      7     -29.5349      2.00000
      8     -29.5168      2.00000
      9     -29.0641      2.00000
     10     -29.0252      2.00000
     11     -28.9624      2.00000
     12     -28.9603      2.00000
     13     -28.9578      2.00000
     14     -28.9315      2.00000
     15     -28.8427      2.00000
     16     -28.8243      2.00000
     17     -28.7632      2.00000
     18     -28.7481      2.00000
     19     -28.7289      2.00000
     20     -28.7080      2.00000
     21     -28.6610      2.00000
     22     -28.5893      2.00000
     23     -28.1779      2.00000
     24     -28.1529      2.00000
     25      -6.9524      2.00000
     26      -5.9360      2.00000
     27      -3.8346      2.00000
     28      -3.7419      2.00000
     29      -2.3764      2.00000
     30      -2.2440      2.00000
     31      -1.8232      2.00000
     32      -1.5195      2.00000
     33      -1.4572      2.00000
     34      -1.3016      2.00000
     35      -0.5591      2.00000
     36      -0.4730      2.00000
     37      -0.4578      2.00000
     38       0.7962      2.00000
     39       1.3581      2.00000
     40       1.3848      2.00000
     41       1.8033      2.00000
     42       1.8795      2.00000
     43       2.0822      2.00000
     44       2.2830      2.00000
     45       2.4326      2.00000
     46       2.5188      2.00000
     47       2.7034      2.00000
     48       2.8431      2.00000
     49       2.9063      2.00000
     50       3.2604      2.00000
     51       3.6743      2.00000
     52       3.6935      2.00000
     53       3.7291      2.00000
     54       3.8512      2.00000
     55       4.3944      2.00000
     56       4.6463      2.00000
     57       4.6580      2.00000
     58       4.8341      2.00000
     59       4.9626      2.00000
     60       5.0764      2.00000
     61       5.3189      2.00000
     62       5.4563      2.00000
     63       5.7059      2.00000
     64       5.7328      2.00000
     65       5.9069      2.00000
     66       6.2210      2.00000
     67       6.4900      2.00000
     68       6.9641      2.00000
     69       7.0375      2.00000
     70       7.2653      2.00000
     71       7.3095      1.99998
     72       7.4816      0.00000
     73       7.7857      0.00000
     74       7.8796      0.00000
     75       8.1518      0.00000
     76       8.3910      0.00000
     77       8.6881      0.00000
     78       8.7368      0.00000
     79       8.8460      0.00000
     80       9.1427      0.00000
     81       9.8198      0.00000
     82       9.8829      0.00000
     83      10.4201      0.00000
     84      10.5977      0.00000

 k-point    73 :      -0.1667    0.5000    0.4286
  band No.  band energies     occupation 
      1     -55.3876      2.00000
      2     -55.3274      2.00000
      3     -55.2656      2.00000
      4     -55.2632      2.00000
      5     -55.2257      2.00000
      6     -55.1650      2.00000
      7     -29.5055      2.00000
      8     -29.4541      2.00000
      9     -29.2134      2.00000
     10     -29.0919      2.00000
     11     -29.0102      2.00000
     12     -28.9705      2.00000
     13     -28.9561      2.00000
     14     -28.9339      2.00000
     15     -28.8502      2.00000
     16     -28.7897      2.00000
     17     -28.7602      2.00000
     18     -28.7487      2.00000
     19     -28.6817      2.00000
     20     -28.6533      2.00000
     21     -28.5990      2.00000
     22     -28.4981      2.00000
     23     -28.2486      2.00000
     24     -28.1845      2.00000
     25      -6.8500      2.00000
     26      -6.1074      2.00000
     27      -3.7108      2.00000
     28      -3.4857      2.00000
     29      -2.6503      2.00000
     30      -2.2550      2.00000
     31      -2.0666      2.00000
     32      -1.6491      2.00000
     33      -1.5737      2.00000
     34      -1.2254      2.00000
     35      -0.2577      2.00000
     36      -0.2230      2.00000
     37      -0.0629      2.00000
     38       0.6399      2.00000
     39       0.8621      2.00000
     40       1.0379      2.00000
     41       1.5803      2.00000
     42       1.8269      2.00000
     43       2.0825      2.00000
     44       2.3942      2.00000
     45       2.4715      2.00000
     46       2.7347      2.00000
     47       2.8629      2.00000
     48       2.8921      2.00000
     49       3.0624      2.00000
     50       3.1888      2.00000
     51       3.6960      2.00000
     52       3.7293      2.00000
     53       3.9900      2.00000
     54       4.0717      2.00000
     55       4.3399      2.00000
     56       4.3618      2.00000
     57       4.5673      2.00000
     58       4.5881      2.00000
     59       4.7496      2.00000
     60       4.8387      2.00000
     61       5.4811      2.00000
     62       5.7701      2.00000
     63       5.8213      2.00000
     64       5.9612      2.00000
     65       6.0537      2.00000
     66       6.2856      2.00000
     67       6.4908      2.00000
     68       6.5746      2.00000
     69       7.0907      2.00000
     70       7.2365      2.00000
     71       7.4193      0.00057
     72       7.7003      0.00000
     73       7.8627      0.00000
     74       7.9382      0.00000
     75       8.2315      0.00000
     76       8.5023      0.00000
     77       8.6958      0.00000
     78       8.7743      0.00000
     79       8.9410      0.00000
     80       9.3036      0.00000
     81       9.5658      0.00000
     82       9.8595      0.00000
     83      10.1644      0.00000
     84      10.1867      0.00000

 k-point    74 :      -0.3333   -0.3333    0.4286
  band No.  band energies     occupation 
      1     -55.3957      2.00000
      2     -55.3032      2.00000
      3     -55.2674      2.00000
      4     -55.2631      2.00000
      5     -55.2481      2.00000
      6     -55.1571      2.00000
      7     -29.5365      2.00000
      8     -29.5090      2.00000
      9     -29.0833      2.00000
     10     -29.0252      2.00000
     11     -28.9616      2.00000
     12     -28.9613      2.00000
     13     -28.9560      2.00000
     14     -28.9336      2.00000
     15     -28.8334      2.00000
     16     -28.8328      2.00000
     17     -28.7645      2.00000
     18     -28.7505      2.00000
     19     -28.7275      2.00000
     20     -28.7051      2.00000
     21     -28.6458      2.00000
     22     -28.5854      2.00000
     23     -28.1837      2.00000
     24     -28.1540      2.00000
     25      -6.9881      2.00000
     26      -5.9104      2.00000
     27      -3.7961      2.00000
     28      -3.6778      2.00000
     29      -2.4010      2.00000
     30      -2.0492      2.00000
     31      -1.9520      2.00000
     32      -1.6873      2.00000
     33      -1.5499      2.00000
     34      -1.2351      2.00000
     35      -0.5815      2.00000
     36      -0.3087      2.00000
     37      -0.2928      2.00000
     38       0.6120      2.00000
     39       0.9783      2.00000
     40       0.9881      2.00000
     41       1.8531      2.00000
     42       1.9378      2.00000
     43       2.1318      2.00000
     44       2.1381      2.00000
     45       2.5911      2.00000
     46       2.6896      2.00000
     47       2.8424      2.00000
     48       2.9623      2.00000
     49       2.9890      2.00000
     50       3.2399      2.00000
     51       3.6925      2.00000
     52       3.7533      2.00000
     53       4.0560      2.00000
     54       4.0921      2.00000
     55       4.2532      2.00000
     56       4.5773      2.00000
     57       4.6042      2.00000
     58       4.8645      2.00000
     59       4.9027      2.00000
     60       5.1736      2.00000
     61       5.3210      2.00000
     62       5.5125      2.00000
     63       5.6481      2.00000
     64       5.8427      2.00000
     65       6.0150      2.00000
     66       6.2820      2.00000
     67       6.3559      2.00000
     68       6.6791      2.00000
     69       6.7448      2.00000
     70       7.1195      2.00000
     71       7.2819      2.00000
     72       7.4763      0.00000
     73       7.6983      0.00000
     74       7.8491      0.00000
     75       8.1997      0.00000
     76       8.5218      0.00000
     77       8.7001      0.00000
     78       8.7979      0.00000
     79       8.8245      0.00000
     80       9.1859      0.00000
     81      10.0468      0.00000
     82      10.2275      0.00000
     83      10.3022      0.00000
     84      10.3911      0.00000

 k-point    75 :      -0.1667   -0.3333    0.4286
  band No.  band energies     occupation 
      1     -55.3873      2.00000
      2     -55.3278      2.00000
      3     -55.2667      2.00000
      4     -55.2633      2.00000
      5     -55.2239      2.00000
      6     -55.1656      2.00000
      7     -29.5128      2.00000
      8     -29.4412      2.00000
      9     -29.2310      2.00000
     10     -29.0758      2.00000
     11     -29.0080      2.00000
     12     -28.9700      2.00000
     13     -28.9568      2.00000
     14     -28.9347      2.00000
     15     -28.8485      2.00000
     16     -28.7902      2.00000
     17     -28.7615      2.00000
     18     -28.7504      2.00000
     19     -28.6806      2.00000
     20     -28.6671      2.00000
     21     -28.6051      2.00000
     22     -28.4766      2.00000
     23     -28.2604      2.00000
     24     -28.1788      2.00000
     25      -6.9013      2.00000
     26      -6.0549      2.00000
     27      -3.6738      2.00000
     28      -3.3960      2.00000
     29      -2.7092      2.00000
     30      -2.3918      2.00000
     31      -1.9302      2.00000
     32      -1.7652      2.00000
     33      -1.5713      2.00000
     34      -1.1297      2.00000
     35      -0.1685      2.00000
     36      -0.0062      2.00000
     37      -0.0023      2.00000
     38       0.3331      2.00000
     39       0.5585      2.00000
     40       0.7804      2.00000
     41       1.6617      2.00000
     42       1.8731      2.00000
     43       2.1283      2.00000
     44       2.2643      2.00000
     45       2.4145      2.00000
     46       2.7069      2.00000
     47       2.9468      2.00000
     48       2.9980      2.00000
     49       3.1921      2.00000
     50       3.4609      2.00000
     51       3.6517      2.00000
     52       3.7578      2.00000
     53       3.9250      2.00000
     54       4.1462      2.00000
     55       4.2236      2.00000
     56       4.3158      2.00000
     57       4.5625      2.00000
     58       4.8151      2.00000
     59       4.9686      2.00000
     60       5.0308      2.00000
     61       5.3709      2.00000
     62       5.5900      2.00000
     63       5.8727      2.00000
     64       5.9969      2.00000
     65       6.0994      2.00000
     66       6.2589      2.00000
     67       6.4264      2.00000
     68       6.7398      2.00000
     69       6.9510      2.00000
     70       7.1790      2.00000
     71       7.3672      1.18767
     72       7.5948      0.00000
     73       7.7920      0.00000
     74       8.0036      0.00000
     75       8.1014      0.00000
     76       8.5775      0.00000
     77       8.7303      0.00000
     78       8.8071      0.00000
     79       8.8490      0.00000
     80       9.2844      0.00000
     81       9.4693      0.00000
     82       9.5649      0.00000
     83      10.0339      0.00000
     84      10.2684      0.00000

 k-point    76 :      -0.1667   -0.1667    0.4286
  band No.  band energies     occupation 
      1     -55.3809      2.00000
      2     -55.3393      2.00000
      3     -55.2674      2.00000
      4     -55.2637      2.00000
      5     -55.2113      2.00000
      6     -55.1720      2.00000
      7     -29.5302      2.00000
      8     -29.3549      2.00000
      9     -29.3405      2.00000
     10     -29.0267      2.00000
     11     -28.9670      2.00000
     12     -28.9624      2.00000
     13     -28.9580      2.00000
     14     -28.9545      2.00000
     15     -28.8129      2.00000
     16     -28.8046      2.00000
     17     -28.8018      2.00000
     18     -28.7518      2.00000
     19     -28.7270      2.00000
     20     -28.6690      2.00000
     21     -28.6158      2.00000
     22     -28.3742      2.00000
     23     -28.3430      2.00000
     24     -28.1555      2.00000
     25      -6.8304      2.00000
     26      -6.0893      2.00000
     27      -3.7257      2.00000
     28      -3.1221      2.00000
     29      -3.1066      2.00000
     30      -2.6593      2.00000
     31      -2.1792      2.00000
     32      -1.4294      2.00000
     33      -1.2244      2.00000
     34      -0.9097      2.00000
     35      -0.1795      2.00000
     36      -0.0319      2.00000
     37       0.2511      2.00000
     38       0.3260      2.00000
     39       0.4688      2.00000
     40       0.6282      2.00000
     41       1.5885      2.00000
     42       1.7871      2.00000
     43       2.0567      2.00000
     44       2.1039      2.00000
     45       2.2359      2.00000
     46       2.8335      2.00000
     47       2.8818      2.00000
     48       3.0867      2.00000
     49       3.2568      2.00000
     50       3.5739      2.00000
     51       3.6027      2.00000
     52       3.6743      2.00000
     53       3.8280      2.00000
     54       3.8593      2.00000
     55       4.2097      2.00000
     56       4.3969      2.00000
     57       4.4166      2.00000
     58       4.6490      2.00000
     59       4.8660      2.00000
     60       5.4498      2.00000
     61       5.4746      2.00000
     62       5.6021      2.00000
     63       5.8946      2.00000
     64       6.1900      2.00000
     65       6.2097      2.00000
     66       6.5164      2.00000
     67       6.6254      2.00000
     68       6.8005      2.00000
     69       7.1167      2.00000
     70       7.4261      0.00009
     71       7.4962      0.00000
     72       7.7352      0.00000
     73       7.8202      0.00000
     74       7.8316      0.00000
     75       8.1098      0.00000
     76       8.3558      0.00000
     77       8.6192      0.00000
     78       8.8174      0.00000
     79       9.0700      0.00000
     80       9.0877      0.00000
     81       9.2353      0.00000
     82       9.3898      0.00000
     83       9.7850      0.00000
     84       9.8698      0.00000


--------------------------------------------------------------------------------------------------------


 soft charge-density along one line, spin component           1
         0         1         2         3         4         5         6         7         8         9
 total charge-density along one line
 
 pseudopotential strength for first ion, spin component:           1
  6.106   9.265  -0.002  -0.007   0.002  -0.007  -0.012   0.002
  9.265  14.051  -0.004  -0.011   0.003  -0.012  -0.018   0.002
 -0.002  -0.004  -2.052  -0.000  -0.001  -3.444  -0.001  -0.002
 -0.007  -0.011  -0.000  -2.049  -0.002  -0.001  -3.439  -0.005
  0.002   0.003  -0.001  -0.002  -2.058  -0.002  -0.005  -3.455
 -0.007  -0.012  -3.444  -0.001  -0.002  -5.570  -0.003  -0.004
 -0.012  -0.018  -0.001  -3.439  -0.005  -0.003  -5.562  -0.009
  0.002   0.002  -0.002  -0.005  -3.455  -0.004  -0.009  -5.592
 total augmentation occupancy for first ion, spin component:           1
  2.980  -0.634   0.406  -0.390   0.372  -0.131   0.165  -0.136
 -0.634   0.164  -0.113   0.194  -0.139   0.035  -0.065   0.048
  0.406  -0.113   1.915   0.104  -0.039  -0.473  -0.025   0.004
 -0.390   0.194   0.104   1.922   0.106  -0.025  -0.492  -0.004
  0.372  -0.139  -0.039   0.106   2.192   0.004  -0.004  -0.514
 -0.131   0.035  -0.473  -0.025   0.004   0.122   0.006   0.002
  0.165  -0.065  -0.025  -0.492  -0.004   0.006   0.133  -0.005
 -0.136   0.048   0.004  -0.004  -0.514   0.002  -0.005   0.129


------------------------ aborting loop because EDIFF is reached ----------------------------------------




--------------------------------------------------------------------------------------------------------



  FREE ENERGIE OF THE ION-ELECTRON SYSTEM (eV)
  ---------------------------------------------------
  free  energy   TOTEN  =      -260.84066087 eV

  energy  without entropy=     -260.83865077  energy(sigma->0) =     -260.83965582
 


--------------------------------------------------------------------------------------------------------


    POTLOK:  cpu time    1.0439: real time    1.0503


--------------------------------------------------------------------------------------------------------


 writing wavefunctions
     LOOP+:  cpu time 2300.7888: real time 2323.0159
    4ORBIT:  cpu time    0.0000: real time    0.0000

 total amount of memory used by VASP MPI-rank0   470690. kBytes
=======================================================================

   base      :      30000. kBytes
   nonl-proj :     154255. kBytes
   fftplans  :      24330. kBytes
   grid      :      18307. kBytes
   one-center:        186. kBytes
   wavefun   :     243612. kBytes
 
  
  
 General timing and accounting informations for this job:
 ========================================================
  
                  Total CPU time used (sec):     2311.799
                            User time (sec):     2258.939
                          System time (sec):       52.860
                         Elapsed time (sec):     2340.649
  
                   Maximum memory used (kb):      700076.
                   Average memory used (kb):          N/A
  
                          Minor page faults:      7742728
                          Major page faults:           47
                 Voluntary context switches:        14109
