<?xml version="1.0" encoding="ISO-8859-1"?>
<modeling>
 <generator>
  <i name="program" type="string">vasp </i>
  <i name="version" type="string">6.2.0  </i>
  <i name="subversion" type="string">18Jan21 (build Jan 05 2022 15:41:44) complex                          parallel </i>
  <i name="platform" type="string">LinuxIFC </i>
  <i name="date" type="string">2025 05 07 </i>
  <i name="time" type="string">18:41:55 </i>
 </generator>
 <incar>
  <i type="string" name="SYSTEM">routine with relax: pwdword</i>
  <i type="string" name="PREC">Acc</i>
  <i type="int" name="IALGO">    38</i>
  <i type="string" name="ALGO">A</i>
  <i type="logical" name="ADDGRID"> T  </i>
  <i type="int" name="ICHARG">     2</i>
  <i type="int" name="NELM">   100</i>
  <i type="int" name="NELMIN">     6</i>
  <i name="EDIFF">      0.00000000</i>
  <i type="int" name="NSW">     0</i>
  <i type="int" name="ISIF">    -1</i>
  <i name="SYMPREC">      0.00010000</i>
  <i name="ENCUT">    600.00000000</i>
  <i type="logical" name="LREAL"> F  </i>
  <i type="int" name="ISMEAR">     0</i>
  <i name="SIGMA">      0.02000000</i>
  <i type="logical" name="LASPH"> T  </i>
  <i type="string" name="METAGGA">R2SCAN</i>
  <i type="logical" name="LMIXTAU"> F  </i>
 </incar>
 <primitive_cell>
  <structure name="primitive_cell" >
   <crystal>
    <varray name="basis" >
     <v>      -3.26399291       2.30243184      -0.00000000 </v>
     <v>       1.62414335       2.30243184       2.83127430 </v>
     <v>       1.62414335       2.30243184      -2.80399570 </v>
    </varray>
    <i name="volume">     63.42271292 </i>
    <varray name="rec_basis" >
     <v>      -0.20457695       0.14430928       0.00000000 </v>
     <v>       0.10179333       0.14430512       0.17745379 </v>
     <v>       0.10278362       0.14570899      -0.17745379 </v>
    </varray>
   </crystal>
   <varray name="positions" >
    <v>       0.50000000       0.50000000       0.50000000 </v>
    <v>       0.50000000       0.50000000       0.00000000 </v>
    <v>       0.00000000       0.00000000       0.00000000 </v>
    <v>       0.50000000       0.00000000       0.50000000 </v>
    <v>       1.00000000       0.50000000       0.50000000 </v>
   </varray>
  </structure>
  <varray name="primitive_index" >
   <v type="int" >        1 </v>
   <v type="int" >        3 </v>
   <v type="int" >        4 </v>
   <v type="int" >        7 </v>
   <v type="int" >        8 </v>
  </varray>
 </primitive_cell>
 <kpoints>
  <generation param="Gamma">
   <v type="int" name="divisions">       8        8        9 </v>
   <v name="usershift">      0.00000000       0.00000000       0.00000000 </v>
   <v name="genvec1">      0.12500000       0.00000000       0.00000000 </v>
   <v name="genvec2">      0.00000000       0.12500000       0.00000000 </v>
   <v name="genvec3">      0.00000000       0.00000000       0.11111111 </v>
   <v name="shift">      0.00000000       0.00000000       0.00000000 </v>
  </generation>
  <varray name="kpointlist" >
   <v>       0.00000000       0.00000000       0.00000000 </v>
   <v>       0.12500000       0.00000000       0.00000000 </v>
   <v>       0.25000000       0.00000000       0.00000000 </v>
   <v>       0.37500000      -0.00000000       0.00000000 </v>
   <v>       0.50000000       0.00000000       0.00000000 </v>
   <v>       0.12500000       0.12500000       0.00000000 </v>
   <v>       0.25000000       0.12500000       0.00000000 </v>
   <v>       0.37500000       0.12500000       0.00000000 </v>
   <v>       0.50000000       0.12500000       0.00000000 </v>
   <v>      -0.37500000       0.12500000       0.00000000 </v>
   <v>      -0.25000000       0.12500000       0.00000000 </v>
   <v>      -0.12500000       0.12500000       0.00000000 </v>
   <v>       0.25000000       0.25000000       0.00000000 </v>
   <v>       0.37500000       0.25000000       0.00000000 </v>
   <v>       0.50000000       0.25000000       0.00000000 </v>
   <v>      -0.37500000       0.25000000       0.00000000 </v>
   <v>      -0.25000000       0.25000000       0.00000000 </v>
   <v>       0.37500000       0.37500000       0.00000000 </v>
   <v>       0.50000000       0.37500000       0.00000000 </v>
   <v>      -0.37500000       0.37500000       0.00000000 </v>
   <v>       0.50000000       0.50000000       0.00000000 </v>
   <v>      -0.00000000      -0.00000000       0.11111111 </v>
   <v>       0.12500000      -0.00000000       0.11111111 </v>
   <v>       0.25000000      -0.00000000       0.11111111 </v>
   <v>       0.37500000      -0.00000000       0.11111111 </v>
   <v>       0.50000000      -0.00000000       0.11111111 </v>
   <v>      -0.37500000      -0.00000000       0.11111111 </v>
   <v>      -0.25000000       0.00000000       0.11111111 </v>
   <v>      -0.12500000       0.00000000       0.11111111 </v>
   <v>       0.12500000       0.12500000       0.11111111 </v>
   <v>       0.25000000       0.12500000       0.11111111 </v>
   <v>       0.37500000       0.12500000       0.11111111 </v>
   <v>       0.50000000       0.12500000       0.11111111 </v>
   <v>      -0.37500000       0.12500000       0.11111111 </v>
   <v>      -0.25000000       0.12500000       0.11111111 </v>
   <v>      -0.12500000       0.12500000       0.11111111 </v>
   <v>       0.25000000       0.25000000       0.11111111 </v>
   <v>       0.37500000       0.25000000       0.11111111 </v>
   <v>       0.50000000       0.25000000       0.11111111 </v>
   <v>      -0.37500000       0.25000000       0.11111111 </v>
   <v>      -0.25000000       0.25000000       0.11111111 </v>
   <v>      -0.12500000       0.25000000       0.11111111 </v>
   <v>       0.37500000       0.37500000       0.11111111 </v>
   <v>       0.50000000       0.37500000       0.11111111 </v>
   <v>      -0.37500000       0.37500000       0.11111111 </v>
   <v>      -0.25000000       0.37500000       0.11111111 </v>
   <v>      -0.12500000       0.37500000       0.11111111 </v>
   <v>       0.50000000       0.50000000       0.11111111 </v>
   <v>      -0.37500000       0.50000000       0.11111111 </v>
   <v>      -0.25000000       0.50000000       0.11111111 </v>
   <v>      -0.12500000       0.50000000       0.11111111 </v>
   <v>      -0.37500000      -0.37500000       0.11111111 </v>
   <v>      -0.25000000      -0.37500000       0.11111111 </v>
   <v>      -0.12500000      -0.37500000       0.11111111 </v>
   <v>      -0.25000000      -0.25000000       0.11111111 </v>
   <v>      -0.12500000      -0.25000000       0.11111111 </v>
   <v>      -0.12500000      -0.12500000       0.11111111 </v>
   <v>       0.00000000       0.00000000       0.22222222 </v>
   <v>       0.12500000       0.00000000       0.22222222 </v>
   <v>       0.25000000       0.00000000       0.22222222 </v>
   <v>       0.37500000       0.00000000       0.22222222 </v>
   <v>       0.50000000       0.00000000       0.22222222 </v>
   <v>      -0.37500000       0.00000000       0.22222222 </v>
   <v>      -0.25000000       0.00000000       0.22222222 </v>
   <v>      -0.12500000       0.00000000       0.22222222 </v>
   <v>       0.12500000       0.12500000       0.22222222 </v>
   <v>       0.25000000       0.12500000       0.22222222 </v>
   <v>       0.37500000       0.12500000       0.22222222 </v>
   <v>       0.50000000       0.12500000       0.22222222 </v>
   <v>      -0.37500000       0.12500000       0.22222222 </v>
   <v>      -0.25000000       0.12500000       0.22222222 </v>
   <v>      -0.12500000       0.12500000       0.22222222 </v>
   <v>       0.25000000       0.25000000       0.22222222 </v>
   <v>       0.37500000       0.25000000       0.22222222 </v>
   <v>       0.50000000       0.25000000       0.22222222 </v>
   <v>      -0.37500000       0.25000000       0.22222222 </v>
   <v>      -0.25000000       0.25000000       0.22222222 </v>
   <v>      -0.12500000       0.25000000       0.22222222 </v>
   <v>       0.37500000       0.37500000       0.22222222 </v>
   <v>       0.50000000       0.37500000       0.22222222 </v>
   <v>      -0.37500000       0.37500000       0.22222222 </v>
   <v>      -0.25000000       0.37500000       0.22222222 </v>
   <v>      -0.12500000       0.37500000       0.22222222 </v>
   <v>       0.50000000       0.50000000       0.22222222 </v>
   <v>      -0.37500000       0.50000000       0.22222222 </v>
   <v>      -0.25000000       0.50000000       0.22222222 </v>
   <v>      -0.12500000       0.50000000       0.22222222 </v>
   <v>      -0.37500000      -0.37500000       0.22222222 </v>
   <v>      -0.25000000      -0.37500000       0.22222222 </v>
   <v>      -0.12500000      -0.37500000       0.22222222 </v>
   <v>      -0.25000000      -0.25000000       0.22222222 </v>
   <v>      -0.12500000      -0.25000000       0.22222222 </v>
   <v>      -0.12500000      -0.12500000       0.22222222 </v>
   <v>       0.00000000       0.00000000       0.33333333 </v>
   <v>       0.12500000       0.00000000       0.33333333 </v>
   <v>       0.25000000      -0.00000000       0.33333333 </v>
   <v>       0.37500000       0.00000000       0.33333333 </v>
   <v>       0.50000000      -0.00000000       0.33333333 </v>
   <v>      -0.37500000       0.00000000       0.33333333 </v>
   <v>      -0.25000000       0.00000000       0.33333333 </v>
   <v>      -0.12500000       0.00000000       0.33333333 </v>
   <v>       0.12500000       0.12500000       0.33333333 </v>
   <v>       0.25000000       0.12500000       0.33333333 </v>
   <v>       0.37500000       0.12500000       0.33333333 </v>
   <v>       0.50000000       0.12500000       0.33333333 </v>
   <v>      -0.37500000       0.12500000       0.33333333 </v>
   <v>      -0.25000000       0.12500000       0.33333333 </v>
   <v>      -0.12500000       0.12500000       0.33333333 </v>
   <v>       0.25000000       0.25000000       0.33333333 </v>
   <v>       0.37500000       0.25000000       0.33333333 </v>
   <v>       0.50000000       0.25000000       0.33333333 </v>
   <v>      -0.37500000       0.25000000       0.33333333 </v>
   <v>      -0.25000000       0.25000000       0.33333333 </v>
   <v>      -0.12500000       0.25000000       0.33333333 </v>
   <v>       0.37500000       0.37500000       0.33333333 </v>
   <v>       0.50000000       0.37500000       0.33333333 </v>
   <v>      -0.37500000       0.37500000       0.33333333 </v>
   <v>      -0.25000000       0.37500000       0.33333333 </v>
   <v>      -0.12500000       0.37500000       0.33333333 </v>
   <v>       0.50000000       0.50000000       0.33333333 </v>
   <v>      -0.37500000       0.50000000       0.33333333 </v>
   <v>      -0.25000000       0.50000000       0.33333333 </v>
   <v>      -0.12500000       0.50000000       0.33333333 </v>
   <v>      -0.37500000      -0.37500000       0.33333333 </v>
   <v>      -0.25000000      -0.37500000       0.33333333 </v>
   <v>      -0.12500000      -0.37500000       0.33333333 </v>
   <v>      -0.25000000      -0.25000000       0.33333333 </v>
   <v>      -0.12500000      -0.25000000       0.33333333 </v>
   <v>      -0.12500000      -0.12500000       0.33333333 </v>
   <v>       0.00000000       0.00000000       0.44444444 </v>
   <v>       0.12500000       0.00000000       0.44444444 </v>
   <v>       0.25000000       0.00000000       0.44444444 </v>
   <v>       0.37500000       0.00000000       0.44444444 </v>
   <v>       0.50000000       0.00000000       0.44444444 </v>
   <v>      -0.37500000       0.00000000       0.44444444 </v>
   <v>      -0.25000000       0.00000000       0.44444444 </v>
   <v>      -0.12500000       0.00000000       0.44444444 </v>
   <v>       0.12500000       0.12500000       0.44444444 </v>
   <v>       0.25000000       0.12500000       0.44444444 </v>
   <v>       0.37500000       0.12500000       0.44444444 </v>
   <v>       0.50000000       0.12500000       0.44444444 </v>
   <v>      -0.37500000       0.12500000       0.44444444 </v>
   <v>      -0.25000000       0.12500000       0.44444444 </v>
   <v>      -0.12500000       0.12500000       0.44444444 </v>
   <v>       0.25000000       0.25000000       0.44444444 </v>
   <v>       0.37500000       0.25000000       0.44444444 </v>
   <v>       0.50000000       0.25000000       0.44444444 </v>
   <v>      -0.37500000       0.25000000       0.44444444 </v>
   <v>      -0.25000000       0.25000000       0.44444444 </v>
   <v>      -0.12500000       0.25000000       0.44444444 </v>
   <v>       0.37500000       0.37500000       0.44444444 </v>
   <v>       0.50000000       0.37500000       0.44444444 </v>
   <v>      -0.37500000       0.37500000       0.44444444 </v>
   <v>      -0.25000000       0.37500000       0.44444444 </v>
   <v>      -0.12500000       0.37500000       0.44444444 </v>
   <v>       0.50000000       0.50000000       0.44444444 </v>
   <v>      -0.37500000       0.50000000       0.44444444 </v>
   <v>      -0.25000000       0.50000000       0.44444444 </v>
   <v>      -0.12500000       0.50000000       0.44444444 </v>
   <v>      -0.37500000      -0.37500000       0.44444444 </v>
   <v>      -0.25000000      -0.37500000       0.44444444 </v>
   <v>      -0.12500000      -0.37500000       0.44444444 </v>
   <v>      -0.25000000      -0.25000000       0.44444444 </v>
   <v>      -0.12500000      -0.25000000       0.44444444 </v>
   <v>      -0.12500000      -0.12500000       0.44444444 </v>
  </varray>
  <varray name="weights" >
   <v>       0.00173611 </v>
   <v>       0.00694444 </v>
   <v>       0.00694444 </v>
   <v>       0.00694444 </v>
   <v>       0.00347222 </v>
   <v>       0.00347222 </v>
   <v>       0.00694444 </v>
   <v>       0.00694444 </v>
   <v>       0.00694444 </v>
   <v>       0.00694444 </v>
   <v>       0.00694444 </v>
   <v>       0.00347222 </v>
   <v>       0.00347222 </v>
   <v>       0.00694444 </v>
   <v>       0.00694444 </v>
   <v>       0.00694444 </v>
   <v>       0.00347222 </v>
   <v>       0.00347222 </v>
   <v>       0.00694444 </v>
   <v>       0.00347222 </v>
   <v>       0.00173611 </v>
   <v>       0.00347222 </v>
   <v>       0.00694444 </v>
   <v>       0.00694444 </v>
   <v>       0.00694444 </v>
   <v>       0.00694444 </v>
   <v>       0.00694444 </v>
   <v>       0.00694444 </v>
   <v>       0.00694444 </v>
   <v>       0.00347222 </v>
   <v>       0.00694444 </v>
   <v>       0.00694444 </v>
   <v>       0.00694444 </v>
   <v>       0.00694444 </v>
   <v>       0.00694444 </v>
   <v>       0.00694444 </v>
   <v>       0.00347222 </v>
   <v>       0.00694444 </v>
   <v>       0.00694444 </v>
   <v>       0.00694444 </v>
   <v>       0.00694444 </v>
   <v>       0.00694444 </v>
   <v>       0.00347222 </v>
   <v>       0.00694444 </v>
   <v>       0.00694444 </v>
   <v>       0.00694444 </v>
   <v>       0.00694444 </v>
   <v>       0.00347222 </v>
   <v>       0.00694444 </v>
   <v>       0.00694444 </v>
   <v>       0.00694444 </v>
   <v>       0.00347222 </v>
   <v>       0.00694444 </v>
   <v>       0.00694444 </v>
   <v>       0.00347222 </v>
   <v>       0.00694444 </v>
   <v>       0.00347222 </v>
   <v>       0.00347222 </v>
   <v>       0.00694444 </v>
   <v>       0.00694444 </v>
   <v>       0.00694444 </v>
   <v>       0.00694444 </v>
   <v>       0.00694444 </v>
   <v>       0.00694444 </v>
   <v>       0.00694444 </v>
   <v>       0.00347222 </v>
   <v>       0.00694444 </v>
   <v>       0.00694444 </v>
   <v>       0.00694444 </v>
   <v>       0.00694444 </v>
   <v>       0.00694444 </v>
   <v>       0.00694444 </v>
   <v>       0.00347222 </v>
   <v>       0.00694444 </v>
   <v>       0.00694444 </v>
   <v>       0.00694444 </v>
   <v>       0.00694444 </v>
   <v>       0.00694444 </v>
   <v>       0.00347222 </v>
   <v>       0.00694444 </v>
   <v>       0.00694444 </v>
   <v>       0.00694444 </v>
   <v>       0.00694444 </v>
   <v>       0.00347222 </v>
   <v>       0.00694444 </v>
   <v>       0.00694444 </v>
   <v>       0.00694444 </v>
   <v>       0.00347222 </v>
   <v>       0.00694444 </v>
   <v>       0.00694444 </v>
   <v>       0.00347222 </v>
   <v>       0.00694444 </v>
   <v>       0.00347222 </v>
   <v>       0.00347222 </v>
   <v>       0.00694444 </v>
   <v>       0.00694444 </v>
   <v>       0.00694444 </v>
   <v>       0.00694444 </v>
   <v>       0.00694444 </v>
   <v>       0.00694444 </v>
   <v>       0.00694444 </v>
   <v>       0.00347222 </v>
   <v>       0.00694444 </v>
   <v>       0.00694444 </v>
   <v>       0.00694444 </v>
   <v>       0.00694444 </v>
   <v>       0.00694444 </v>
   <v>       0.00694444 </v>
   <v>       0.00347222 </v>
   <v>       0.00694444 </v>
   <v>       0.00694444 </v>
   <v>       0.00694444 </v>
   <v>       0.00694444 </v>
   <v>       0.00694444 </v>
   <v>       0.00347222 </v>
   <v>       0.00694444 </v>
   <v>       0.00694444 </v>
   <v>       0.00694444 </v>
   <v>       0.00694444 </v>
   <v>       0.00347222 </v>
   <v>       0.00694444 </v>
   <v>       0.00694444 </v>
   <v>       0.00694444 </v>
   <v>       0.00347222 </v>
   <v>       0.00694444 </v>
   <v>       0.00694444 </v>
   <v>       0.00347222 </v>
   <v>       0.00694444 </v>
   <v>       0.00347222 </v>
   <v>       0.00347222 </v>
   <v>       0.00694444 </v>
   <v>       0.00694444 </v>
   <v>       0.00694444 </v>
   <v>       0.00694444 </v>
   <v>       0.00694444 </v>
   <v>       0.00694444 </v>
   <v>       0.00694444 </v>
   <v>       0.00347222 </v>
   <v>       0.00694444 </v>
   <v>       0.00694444 </v>
   <v>       0.00694444 </v>
   <v>       0.00694444 </v>
   <v>       0.00694444 </v>
   <v>       0.00694444 </v>
   <v>       0.00347222 </v>
   <v>       0.00694444 </v>
   <v>       0.00694444 </v>
   <v>       0.00694444 </v>
   <v>       0.00694444 </v>
   <v>       0.00694444 </v>
   <v>       0.00347222 </v>
   <v>       0.00694444 </v>
   <v>       0.00694444 </v>
   <v>       0.00694444 </v>
   <v>       0.00694444 </v>
   <v>       0.00347222 </v>
   <v>       0.00694444 </v>
   <v>       0.00694444 </v>
   <v>       0.00694444 </v>
   <v>       0.00347222 </v>
   <v>       0.00694444 </v>
   <v>       0.00694444 </v>
   <v>       0.00347222 </v>
   <v>       0.00694444 </v>
   <v>       0.00347222 </v>
  </varray>
 </kpoints>
 <parameters>
  <separator name="general" >
   <i type="string" name="SYSTEM">routine with relax: pwdword</i>
   <i type="logical" name="LCOMPAT"> F  </i>
  </separator>
  <separator name="electronic" >
   <i type="string" name="PREC">acc</i>
   <i name="ENMAX">    600.00000000</i>
   <i name="ENAUG">    535.51400000</i>
   <i name="EDIFF">      0.00000000</i>
   <i type="int" name="IALGO">    58</i>
   <i type="int" name="IWAVPR">    10</i>
   <i type="int" name="NBANDS">    48</i>
   <i type="int" name="NBANDSLOW">    -1</i>
   <i type="int" name="NBANDSHIGH">    -1</i>
   <i name="NELECT">     78.00000000</i>
   <i type="int" name="TURBO">     0</i>
   <i type="int" name="IRESTART">     0</i>
   <i type="int" name="NREBOOT">     0</i>
   <i type="int" name="NMIN">     0</i>
   <i name="EREF">      0.00000000</i>
   <separator name="electronic smearing" >
    <i type="int" name="ISMEAR">     0</i>
    <i name="SIGMA">      0.02000000</i>
    <i name="KSPACING">      0.50000000</i>
    <i type="logical" name="KGAMMA"> T  </i>
    <i type="logical" name="KBLOWUP"> F  </i>
   </separator>
   <separator name="electronic projectors" >
    <i type="logical" name="LREAL"> F  </i>
    <v name="ROPT">      0.00000000      0.00000000      0.00000000</v>
    <i type="int" name="LMAXPAW">  -100</i>
    <i type="int" name="LMAXMIX">     2</i>
    <i type="logical" name="NLSPLINE"> F  </i>
   </separator>
   <separator name="electronic startup" >
    <i type="int" name="ISTART">     0</i>
    <i type="int" name="ICHARG">     2</i>
    <i type="int" name="INIWAV">     1</i>
   </separator>
   <separator name="electronic spin" >
    <i type="int" name="ISPIN">     1</i>
    <i type="logical" name="LNONCOLLINEAR"> F  </i>
    <v name="MAGMOM">      1.00000000      1.00000000      1.00000000      1.00000000      1.00000000      1.00000000      1.00000000      1.00000000      1.00000000      1.00000000</v>
    <i name="NUPDOWN">     -1.00000000</i>
    <i type="logical" name="LSORBIT"> F  </i>
    <v name="SAXIS">      0.00000000      0.00000000      1.00000000</v>
    <i type="logical" name="LSPIRAL"> F  </i>
    <v name="QSPIRAL">      0.00000000      0.00000000      0.00000000</v>
    <i type="logical" name="LZEROZ"> F  </i>
   </separator>
   <separator name="electronic exchange-correlation" >
    <i type="logical" name="LASPH"> T  </i>
    <i type="logical" name="LMETAGGA"> F  </i>
   </separator>
   <separator name="electronic convergence" >
    <i type="int" name="NELM">   100</i>
    <i type="int" name="NELMDL">    -5</i>
    <i type="int" name="NELMIN">     6</i>
    <i name="ENINI">    600.00000000</i>
    <separator name="electronic convergence detail" >
     <i type="logical" name="LDIAG"> T  </i>
     <i type="logical" name="LSUBROT"> F  </i>
     <i name="WEIMIN">      0.00000000</i>
     <i name="EBREAK">      0.00000000</i>
     <i name="DEPER">      0.30000000</i>
     <i type="int" name="NRMM">     4</i>
     <i name="TIME">      0.40000000</i>
    </separator>
   </separator>
   <separator name="electronic mixer" >
    <i name="AMIX">      0.40000000</i>
    <i name="BMIX">      1.00000000</i>
    <i name="AMIN">      0.10000000</i>
    <i name="AMIX_MAG">      1.60000000</i>
    <i name="BMIX_MAG">      1.00000000</i>
    <separator name="electronic mixer details" >
     <i type="int" name="IMIX">     4</i>
     <i type="logical" name="MIXFIRST"> F  </i>
     <i type="int" name="MAXMIX">   -45</i>
     <i name="WC">    100.00000000</i>
     <i type="int" name="INIMIX">     1</i>
     <i type="int" name="MIXPRE">     1</i>
     <i type="int" name="MREMOVE">     5</i>
    </separator>
   </separator>
   <separator name="electronic dipolcorrection" >
    <i type="logical" name="LDIPOL"> F  </i>
    <i type="logical" name="LMONO"> F  </i>
    <i type="int" name="IDIPOL">     0</i>
    <i name="EPSILON">      1.00000000</i>
    <v name="DIPOL">   -100.00000000   -100.00000000   -100.00000000</v>
    <i name="EFIELD">      0.00000000</i>
   </separator>
  </separator>
  <separator name="grids" >
   <i type="int" name="NGX">    48</i>
   <i type="int" name="NGY">    48</i>
   <i type="int" name="NGZ">    48</i>
   <i type="int" name="NGXF">    96</i>
   <i type="int" name="NGYF">    96</i>
   <i type="int" name="NGZF">    96</i>
   <i type="logical" name="ADDGRID"> T  </i>
  </separator>
  <separator name="ionic" >
   <i type="int" name="NSW">     0</i>
   <i type="int" name="IBRION">    -1</i>
   <i type="int" name="MDALGO">     0</i>
   <i type="int" name="ISIF">    -1</i>
   <i name="PSTRESS">      0.00000000</i>
   <i name="EDIFFG">      0.00000001</i>
   <i type="int" name="NFREE">     0</i>
   <i name="POTIM">      0.50000000</i>
   <i name="SMASS">     -3.00000000</i>
   <i name="SCALEE">      1.00000000</i>
  </separator>
  <separator name="ionic md" >
   <i name="TEBEG">      0.00010000</i>
   <i name="TEEND">      0.00010000</i>
   <i type="int" name="NBLOCK">     1</i>
   <i type="int" name="KBLOCK">     1</i>
   <i type="int" name="NPACO">   256</i>
   <i name="APACO">     16.00000000</i>
  </separator>
  <separator name="symmetry" >
   <i type="int" name="ISYM">     2</i>
   <i name="SYMPREC">      0.00010000</i>
  </separator>
  <separator name="dos" >
   <i type="int" name="LORBIT">     0</i>
   <v name="RWIGS">     -1.00000000     -1.00000000     -1.00000000</v>
   <i type="int" name="NEDOS">   301</i>
   <i name="EMIN">     10.00000000</i>
   <i name="EMAX">    -10.00000000</i>
   <i name="EFERMI">      0.00000000</i>
  </separator>
  <separator name="writing" >
   <i type="int" name="NWRITE">     2</i>
   <i type="logical" name="LWAVE"> T  </i>
   <i type="logical" name="LDOWNSAMPLE"> F  </i>
   <i type="logical" name="LCHARG"> T  </i>
   <i type="logical" name="LPARD"> F  </i>
   <i type="logical" name="LVTOT"> F  </i>
   <i type="logical" name="LVHAR"> F  </i>
   <i type="logical" name="LELF"> F  </i>
   <i type="logical" name="LOPTICS"> F  </i>
   <v name="STM">      0.00000000      0.00000000      0.00000000      0.00000000      0.00000000      0.00000000      0.00000000</v>
  </separator>
  <separator name="performance" >
   <i type="int" name="NPAR">     6</i>
   <i type="int" name="NSIM">     4</i>
   <i type="int" name="NBLK">    -1</i>
   <i type="logical" name="LPLANE"> T  </i>
   <i type="logical" name="LSCALAPACK"> T  </i>
   <i type="logical" name="LSCAAWARE"> F  </i>
   <i type="logical" name="LSCALU"> F  </i>
   <i type="logical" name="LASYNC"> F  </i>
   <i type="logical" name="LORBITALREAL"> F  </i>
  </separator>
  <separator name="miscellaneous" >
   <i type="int" name="IDIOT">     3</i>
   <i type="int" name="PHON_NSTRUCT">    -1</i>
   <i type="logical" name="LMUSIC"> F  </i>
   <v name="POMASS">     10.81100000     95.94000000     28.08500000</v>
   <v name="DARWINR">      0.00000000      0.00000000      0.00000000</v>
   <v name="DARWINV">      1.00000000      1.00000000      1.00000000</v>
   <i type="logical" name="LCORR"> T  </i>
  </separator>
  <i type="logical" name="GGA_COMPAT"> T  </i>
  <i type="logical" name="LBERRY"> F  </i>
  <i type="int" name="ICORELEVEL">     0</i>
  <i type="logical" name="LDAU"> F  </i>
  <i type="int" name="I_CONSTRAINED_M">     0</i>
  <separator name="electronic exchange-correlation" >
   <i type="string" name="GGA">--</i>
   <i type="int" name="VOSKOWN">     0</i>
   <i type="logical" name="LHFCALC"> F  </i>
   <i type="string" name="PRECFOCK"></i>
   <i type="logical" name="LSYMGRAD"> F  </i>
   <i type="logical" name="LHFONE"> F  </i>
   <i type="logical" name="LRHFCALC"> F  </i>
   <i type="logical" name="LTHOMAS"> F  </i>
   <i type="logical" name="LMODELHF"> F  </i>
   <i type="logical" name="LFOCKACE"> F  </i>
   <i name="ENCUT4O">     -1.00000000</i>
   <i type="int" name="EXXOEP">     0</i>
   <i type="int" name="FOURORBIT">     0</i>
   <i name="AEXX">      0.00000000</i>
   <i name="HFALPHA">      0.00000000</i>
   <i name="MCALPHA">      0.00000000</i>
   <i name="ALDAX">      1.00000000</i>
   <i name="AGGAX">      1.00000000</i>
   <i name="ALDAC">      1.00000000</i>
   <i name="AGGAC">      1.00000000</i>
   <i type="int" name="NKREDX">     1</i>
   <i type="int" name="NKREDY">     1</i>
   <i type="int" name="NKREDZ">     1</i>
   <i type="logical" name="SHIFTRED"> F  </i>
   <i type="logical" name="ODDONLY"> F  </i>
   <i type="logical" name="EVENONLY"> F  </i>
   <i type="int" name="LMAXFOCK">     0</i>
   <i type="int" name="NMAXFOCKAE">     0</i>
   <i type="logical" name="LFOCKAEDFT"> F  </i>
   <i name="HFSCREEN">      0.00000000</i>
   <i name="HFSCREENC">      0.00000000</i>
   <i type="int" name="NBANDSGWLOW">     0</i>
  </separator>
  <separator name="vdW DFT" >
   <i type="logical" name="LUSE_VDW"> F  </i>
   <i name="Zab_VDW">     -0.84910000</i>
   <i name="PARAM1">      0.12340000</i>
   <i name="PARAM2">      1.00000000</i>
   <i name="PARAM3">      0.00000000</i>
  </separator>
  <separator name="model GW" >
   <i type="int" name="MODEL_GW">     0</i>
   <i name="MODEL_EPS0">      7.61072555</i>
   <i name="MODEL_ALPHA">      1.00000000</i>
  </separator>
  <separator name="linear response parameters" >
   <i type="logical" name="LEPSILON"> F  </i>
   <i type="logical" name="LRPA"> F  </i>
   <i type="logical" name="LNABLA"> F  </i>
   <i type="logical" name="LVEL"> F  </i>
   <i type="int" name="KINTER">     0</i>
   <i name="CSHIFT">      0.10000000</i>
   <i name="OMEGAMAX">     -1.00000000</i>
   <i name="DEG_THRESHOLD">      0.00200000</i>
   <i name="RTIME">     -0.10000000</i>
   <i name="WPLASMAI">      0.00000000</i>
   <v name="DFIELD">      0.00000000      0.00000000      0.00000000</v>
   <v name="WPLASMA">      0.00000000      0.00000000      0.00000000      0.00000000      0.00000000      0.00000000      0.00000000      0.00000000      0.00000000</v>
  </separator>
  <separator name="orbital magnetization" >
   <i type="logical" name="NUCIND"> F  </i>
   <v name="MAGPOS">      0.00000000      0.00000000      0.00000000</v>
   <i type="logical" name="LNICSALL"> T  </i>
   <i type="logical" name="ORBITALMAG"> F  </i>
   <i type="logical" name="LMAGBLOCH"> F  </i>
   <i type="logical" name="LCHIMAG"> F  </i>
   <i type="logical" name="LGAUGE"> T  </i>
   <i type="int" name="MAGATOM">     0</i>
   <v name="MAGDIPOL">      0.00000000      0.00000000      0.00000000</v>
   <v name="AVECCONST">      0.00000000      0.00000000      0.00000000</v>
  </separator>
  <separator name="response functions" >
   <i type="logical" name="LFINITE_TEMPERATURE"> F  </i>
   <i type="logical" name="LADDER"> F  </i>
   <i type="logical" name="LRPAFORCE"> F  </i>
   <i type="logical" name="LFXC"> F  </i>
   <i type="logical" name="LHARTREE"> T  </i>
   <i type="int" name="IBSE">     0</i>
   <v type="int" name="KPOINT">    -1     0     0     0</v>
   <i type="logical" name="LTCTC"> F  </i>
   <i type="logical" name="LTCTE"> F  </i>
   <i type="logical" name="LTETE"> F  </i>
   <i type="logical" name="LTRIPLET"> F  </i>
   <i type="logical" name="LFXCEPS"> F  </i>
   <i type="logical" name="LFXHEG"> F  </i>
   <i type="int" name="NATURALO">     2</i>
   <i type="logical" name="LHOLEGF"> F  </i>
   <i type="logical" name="L2ORDER"> F  </i>
   <i type="logical" name="LDMP1"> F  </i>
   <i type="logical" name="LMP2LT"> F  </i>
   <i type="logical" name="LSMP2LT"> F  </i>
   <i type="logical" name="LGWLF"> F  </i>
   <i name="ENCUTGW">     -2.00000000</i>
   <i name="ENCUTGWSOFT">     -2.00000000</i>
   <i name="ENCUTLF">     -1.00000000</i>
   <i type="logical" name="LESF_SPLINES"> F  </i>
   <i type="int" name="LMAXMP2">    -1</i>
   <i name="SCISSOR">      0.00000000</i>
   <i type="int" name="NOMEGA">     0</i>
   <i type="int" name="NOMEGAR">     0</i>
   <i type="int" name="NBANDSGW">    -1</i>
   <i type="int" name="NBANDSO">    -1</i>
   <i type="int" name="NBANDSV">    -1</i>
   <i type="int" name="NELM">   100</i>
   <i type="int" name="NELMHF">     1</i>
   <i type="int" name="DIM">     3</i>
   <i type="int" name="IESPILON">     4</i>
   <i type="int" name="ANTIRES">     0</i>
   <i name="OMEGAMAX">    -30.00000000</i>
   <i name="OMEGAMIN">    -30.00000000</i>
   <i name="OMEGATL">   -200.00000000</i>
   <i type="int" name="OMEGAGRID">     0</i>
   <i name="CSHIFT">     -0.10000000</i>
   <i type="logical" name="LSELFENERGY"> F  </i>
   <i type="logical" name="LSPECTRAL"> F  </i>
   <i type="logical" name="LSPECTRALGW"> F  </i>
   <i type="logical" name="LSINGLES"> F  </i>
   <i type="logical" name="LFERMIGW"> F  </i>
   <i type="logical" name="ODDONLYGW"> F  </i>
   <i type="logical" name="EVENONLYGW"> F  </i>
   <i type="int" name="NKREDLFX">     1</i>
   <i type="int" name="NKREDLFY">     1</i>
   <i type="int" name="NKREDLFZ">     1</i>
   <i type="int" name="MAXMEM">  2800</i>
   <i type="int" name="TELESCOPE">     0</i>
   <i type="int" name="NTAUPAR">    -1</i>
   <i type="int" name="NOMEGAPAR">    -1</i>
   <i name="DAMP_NEWTON">      0.80000001</i>
   <i name="LAMBDA">      1.00000000</i>
  </separator>
  <separator name="External order field" >
   <i name="OFIELD_KAPPA">      0.00000000</i>
   <v name="OFIELD_K">      0.00000000      0.00000000      0.00000000</v>
   <i name="OFIELD_Q6_NEAR">      0.00000000</i>
   <i name="OFIELD_Q6_FAR">      0.00000000</i>
   <i name="OFIELD_A">      0.00000000</i>
  </separator>
 </parameters>
 <atominfo>
  <atoms>      10 </atoms>
  <types>       3 </types>
  <array name="atoms" >
   <dimension dim="1">ion</dimension>
   <field type="string">element</field>
   <field type="int">atomtype</field>
   <set>
    <rc><c>B </c><c>   1</c></rc>
    <rc><c>B </c><c>   1</c></rc>
    <rc><c>Mo</c><c>   2</c></rc>
    <rc><c>Mo</c><c>   2</c></rc>
    <rc><c>Mo</c><c>   2</c></rc>
    <rc><c>Mo</c><c>   2</c></rc>
    <rc><c>Si</c><c>   3</c></rc>
    <rc><c>Si</c><c>   3</c></rc>
    <rc><c>Si</c><c>   3</c></rc>
    <rc><c>Si</c><c>   3</c></rc>
   </set>
  </array>
  <array name="atomtypes" >
   <dimension dim="1">type</dimension>
   <field type="int">atomspertype</field>
   <field type="string">element</field>
   <field>mass</field>
   <field>valence</field>
   <field type="string">pseudopotential</field>
   <set>
    <rc><c>   2</c><c>B </c><c>     10.81100000</c><c>      3.00000000</c><c>  PAW_PBE B 06Sep2000                   </c></rc>
    <rc><c>   4</c><c>Mo</c><c>     95.94000000</c><c>     14.00000000</c><c>  PAW_PBE Mo_sv 02Feb2006               </c></rc>
    <rc><c>   4</c><c>Si</c><c>     28.08500000</c><c>      4.00000000</c><c>  PAW_PBE Si 05Jan2001                  </c></rc>
   </set>
  </array>
 </atominfo>
 <structure name="initialpos" >
  <crystal>
   <varray name="basis" >
    <v>       4.88813626       0.00000000      -2.80399570 </v>
    <v>      -1.63984956       4.60486368      -2.80399570 </v>
    <v>       0.00000000       0.00000000       5.63527000 </v>
   </varray>
   <i name="volume">    126.84542585 </i>
   <varray name="rec_basis" >
    <v>       0.20457695       0.07285241       0.00000000 </v>
    <v>       0.00000000       0.21716169       0.00000000 </v>
    <v>       0.10179333       0.14430512       0.17745379 </v>
   </varray>
  </crystal>
  <varray name="positions" >
   <v>       0.25000000       0.75000000       0.50000000 </v>
   <v>       0.75000000       0.25000000       0.50000000 </v>
   <v>       0.50000000       0.00000000       0.50000000 </v>
   <v>       0.00000000       0.00000000       0.00000000 </v>
   <v>       0.00000000       0.50000000       0.50000000 </v>
   <v>       0.50000000       0.50000000       0.00000000 </v>
   <v>       0.00000000       0.50000000       0.00000000 </v>
   <v>       0.50000000       0.50000000       0.50000000 </v>
   <v>       0.50000000       0.00000000       0.00000000 </v>
   <v>       0.00000000       0.00000000       0.50000000 </v>
  </varray>
 </structure>
 <calculation>
  <scstep>
   <time name="total">   18.66   18.82</time>
   <energy>
    <i name="alphaZ">    372.67908315 </i>
    <i name="ewald">  -6560.31636180 </i>
    <i name="hartreedc">  -1730.49582353 </i>
    <i name="XCdc">    308.25220638 </i>
    <i name="pawpsdc">   6361.18088108 </i>
    <i name="pawaedc">  -6305.13563559 </i>
    <i name="eentropy">     -0.00055003 </i>
    <i name="bandstr">    236.84064238 </i>
    <i name="atom">   8003.73552278 </i>
    <i name="e_fr_energy">    686.73996482 </i>
    <i name="e_wo_entrp">    686.74051485 </i>
    <i name="e_0_energy">    686.74023983 </i>
   </energy>
  </scstep>
  <scstep>
   <time name="total">   19.15   19.31</time>
   <energy>
    <i name="e_fr_energy">   -146.55831846 </i>
    <i name="e_wo_entrp">   -146.55713279 </i>
    <i name="e_0_energy">   -146.55772562 </i>
   </energy>
  </scstep>
  <scstep>
   <time name="total">   21.34   21.52</time>
   <energy>
    <i name="e_fr_energy">   -180.56570573 </i>
    <i name="e_wo_entrp">   -180.56476481 </i>
    <i name="e_0_energy">   -180.56523527 </i>
   </energy>
  </scstep>
  <scstep>
   <time name="total">   19.63   19.79</time>
   <energy>
    <i name="e_fr_energy">   -181.11845696 </i>
    <i name="e_wo_entrp">   -181.11719815 </i>
    <i name="e_0_energy">   -181.11782755 </i>
   </energy>
  </scstep>
  <scstep>
   <time name="total">   22.36   22.55</time>
   <energy>
    <i name="e_fr_energy">   -181.13070513 </i>
    <i name="e_wo_entrp">   -181.12943783 </i>
    <i name="e_0_energy">   -181.13007148 </i>
   </energy>
  </scstep>
  <scstep>
   <time name="total">   21.80   21.96</time>
   <energy>
    <i name="e_fr_energy">   -115.02648411 </i>
    <i name="e_wo_entrp">   -115.02533022 </i>
    <i name="e_0_energy">   -115.02590716 </i>
   </energy>
  </scstep>
  <scstep>
   <time name="total">   20.88   21.05</time>
   <energy>
    <i name="e_fr_energy">   -141.84795595 </i>
    <i name="e_wo_entrp">   -141.84639011 </i>
    <i name="e_0_energy">   -141.84717303 </i>
   </energy>
  </scstep>
  <scstep>
   <time name="total">   21.88   22.04</time>
   <energy>
    <i name="e_fr_energy">   -145.56575085 </i>
    <i name="e_wo_entrp">   -145.56406952 </i>
    <i name="e_0_energy">   -145.56491019 </i>
   </energy>
  </scstep>
  <scstep>
   <time name="total">   21.13   21.29</time>
   <energy>
    <i name="e_fr_energy">   -146.35445082 </i>
    <i name="e_wo_entrp">   -146.35267352 </i>
    <i name="e_0_energy">   -146.35356217 </i>
   </energy>
  </scstep>
  <scstep>
   <time name="total">   21.73   21.90</time>
   <energy>
    <i name="e_fr_energy">   -146.61687323 </i>
    <i name="e_wo_entrp">   -146.61506488 </i>
    <i name="e_0_energy">   -146.61596906 </i>
   </energy>
  </scstep>
  <scstep>
   <time name="total">   21.47   21.64</time>
   <energy>
    <i name="e_fr_energy">   -146.70161253 </i>
    <i name="e_wo_entrp">   -146.69995069 </i>
    <i name="e_0_energy">   -146.70078161 </i>
   </energy>
  </scstep>
  <scstep>
   <time name="total">   21.50   21.66</time>
   <energy>
    <i name="e_fr_energy">   -146.74976082 </i>
    <i name="e_wo_entrp">   -146.74814962 </i>
    <i name="e_0_energy">   -146.74895522 </i>
   </energy>
  </scstep>
  <scstep>
   <time name="total">   20.85   21.01</time>
   <energy>
    <i name="e_fr_energy">   -146.77460921 </i>
    <i name="e_wo_entrp">   -146.77296672 </i>
    <i name="e_0_energy">   -146.77378797 </i>
   </energy>
  </scstep>
  <scstep>
   <time name="total">   21.13   21.29</time>
   <energy>
    <i name="e_fr_energy">   -146.78628668 </i>
    <i name="e_wo_entrp">   -146.78462581 </i>
    <i name="e_0_energy">   -146.78545624 </i>
   </energy>
  </scstep>
  <scstep>
   <time name="total">   21.91   22.07</time>
   <energy>
    <i name="e_fr_energy">   -146.79099177 </i>
    <i name="e_wo_entrp">   -146.78932897 </i>
    <i name="e_0_energy">   -146.79016037 </i>
   </energy>
  </scstep>
  <scstep>
   <time name="total">   20.98   21.14</time>
   <energy>
    <i name="e_fr_energy">   -146.79245257 </i>
    <i name="e_wo_entrp">   -146.79075904 </i>
    <i name="e_0_energy">   -146.79160581 </i>
   </energy>
  </scstep>
  <scstep>
   <time name="total">   21.92   22.09</time>
   <energy>
    <i name="e_fr_energy">   -146.79335696 </i>
    <i name="e_wo_entrp">   -146.79164920 </i>
    <i name="e_0_energy">   -146.79250308 </i>
   </energy>
  </scstep>
  <scstep>
   <time name="total">   20.90   21.05</time>
   <energy>
    <i name="e_fr_energy">   -146.79378231 </i>
    <i name="e_wo_entrp">   -146.79206809 </i>
    <i name="e_0_energy">   -146.79292520 </i>
   </energy>
  </scstep>
  <scstep>
   <time name="total">   20.92   21.08</time>
   <energy>
    <i name="e_fr_energy">   -146.79394192 </i>
    <i name="e_wo_entrp">   -146.79223121 </i>
    <i name="e_0_energy">   -146.79308657 </i>
   </energy>
  </scstep>
  <scstep>
   <time name="total">   21.49   21.65</time>
   <energy>
    <i name="e_fr_energy">   -146.79399766 </i>
    <i name="e_wo_entrp">   -146.79228879 </i>
    <i name="e_0_energy">   -146.79314323 </i>
   </energy>
  </scstep>
  <scstep>
   <time name="total">   21.43   21.59</time>
   <energy>
    <i name="e_fr_energy">   -146.79403527 </i>
    <i name="e_wo_entrp">   -146.79233075 </i>
    <i name="e_0_energy">   -146.79318301 </i>
   </energy>
  </scstep>
  <scstep>
   <time name="total">   21.87   22.04</time>
   <energy>
    <i name="e_fr_energy">   -146.79405124 </i>
    <i name="e_wo_entrp">   -146.79234841 </i>
    <i name="e_0_energy">   -146.79319982 </i>
   </energy>
  </scstep>
  <scstep>
   <time name="total">   21.15   21.31</time>
   <energy>
    <i name="e_fr_energy">   -146.79405670 </i>
    <i name="e_wo_entrp">   -146.79235623 </i>
    <i name="e_0_energy">   -146.79320647 </i>
   </energy>
  </scstep>
  <scstep>
   <time name="total">   21.82   21.98</time>
   <energy>
    <i name="e_fr_energy">   -146.79405966 </i>
    <i name="e_wo_entrp">   -146.79236017 </i>
    <i name="e_0_energy">   -146.79320992 </i>
   </energy>
  </scstep>
  <scstep>
   <time name="total">   20.86   21.01</time>
   <energy>
    <i name="e_fr_energy">   -146.79406133 </i>
    <i name="e_wo_entrp">   -146.79236194 </i>
    <i name="e_0_energy">   -146.79321163 </i>
   </energy>
  </scstep>
  <scstep>
   <time name="total">   21.47   21.63</time>
   <energy>
    <i name="e_fr_energy">   -146.79406181 </i>
    <i name="e_wo_entrp">   -146.79236209 </i>
    <i name="e_0_energy">   -146.79321195 </i>
   </energy>
  </scstep>
  <scstep>
   <time name="total">   21.15   21.30</time>
   <energy>
    <i name="e_fr_energy">   -146.79406199 </i>
    <i name="e_wo_entrp">   -146.79236197 </i>
    <i name="e_0_energy">   -146.79321198 </i>
   </energy>
  </scstep>
  <scstep>
   <time name="total">   21.33   21.52</time>
   <energy>
    <i name="e_fr_energy">   -146.79406210 </i>
    <i name="e_wo_entrp">   -146.79236141 </i>
    <i name="e_0_energy">   -146.79321175 </i>
   </energy>
  </scstep>
  <scstep>
   <time name="total">   21.07   21.23</time>
   <energy>
    <i name="e_fr_energy">   -146.79406219 </i>
    <i name="e_wo_entrp">   -146.79236116 </i>
    <i name="e_0_energy">   -146.79321167 </i>
   </energy>
  </scstep>
  <scstep>
   <time name="total">   21.01   21.17</time>
   <energy>
    <i name="e_fr_energy">   -146.79406221 </i>
    <i name="e_wo_entrp">   -146.79236104 </i>
    <i name="e_0_energy">   -146.79321162 </i>
   </energy>
  </scstep>
  <scstep>
   <time name="total">   20.83   20.99</time>
   <energy>
    <i name="e_fr_energy">   -146.79406221 </i>
    <i name="e_wo_entrp">   -146.79236100 </i>
    <i name="e_0_energy">   -146.79321161 </i>
   </energy>
  </scstep>
  <scstep>
   <time name="total">   20.89   21.04</time>
   <energy>
    <i name="e_fr_energy">   -146.79406222 </i>
    <i name="e_wo_entrp">   -146.79236106 </i>
    <i name="e_0_energy">   -146.79321164 </i>
   </energy>
  </scstep>
  <scstep>
   <time name="total">   21.90   22.06</time>
   <energy>
    <i name="e_fr_energy">   -146.79406223 </i>
    <i name="e_wo_entrp">   -146.79236107 </i>
    <i name="e_0_energy">   -146.79321165 </i>
   </energy>
  </scstep>
  <scstep>
   <time name="total">   21.34   21.50</time>
   <energy>
    <i name="e_fr_energy">   -146.79406224 </i>
    <i name="e_wo_entrp">   -146.79236118 </i>
    <i name="e_0_energy">   -146.79321171 </i>
   </energy>
  </scstep>
  <scstep>
   <time name="total">   21.53   21.69</time>
   <energy>
    <i name="e_fr_energy">   -146.79406224 </i>
    <i name="e_wo_entrp">   -146.79236121 </i>
    <i name="e_0_energy">   -146.79321173 </i>
   </energy>
  </scstep>
  <scstep>
   <time name="total">   23.92   24.09</time>
   <energy>
    <i name="alphaZ">    372.67908315 </i>
    <i name="ewald">  -6560.31636180 </i>
    <i name="hartreedc">  -1640.55684043 </i>
    <i name="XCdc">    316.41990833 </i>
    <i name="pawpsdc">  10739.76491425 </i>
    <i name="pawaedc"> -10695.59199198 </i>
    <i name="eentropy">     -0.00170103 </i>
    <i name="bandstr">   -682.92659551 </i>
    <i name="atom">   8003.73552278 </i>
    <i name="e_fr_energy">   -146.79406224 </i>
    <i name="e_wo_entrp">   -146.79236121 </i>
    <i name="e_0_energy">   -146.79321173 </i>
   </energy>
  </scstep>
  <structure>
   <crystal>
    <varray name="basis" >
     <v>       4.88813626       0.00000000      -2.80399570 </v>
     <v>      -1.63984956       4.60486368      -2.80399570 </v>
     <v>       0.00000000       0.00000000       5.63527000 </v>
    </varray>
    <i name="volume">    126.84542585 </i>
    <varray name="rec_basis" >
     <v>       0.20457695       0.07285241       0.00000000 </v>
     <v>       0.00000000       0.21716169       0.00000000 </v>
     <v>       0.10179333       0.14430512       0.17745379 </v>
    </varray>
   </crystal>
   <varray name="positions" >
    <v>       0.25000000       0.75000000       0.50000000 </v>
    <v>       0.75000000       0.25000000       0.50000000 </v>
    <v>       0.50000000       0.00000000       0.50000000 </v>
    <v>       0.00000000       0.00000000       0.00000000 </v>
    <v>       0.00000000       0.50000000       0.50000000 </v>
    <v>       0.50000000       0.50000000       0.00000000 </v>
    <v>       0.00000000       0.50000000       0.00000000 </v>
    <v>       0.50000000       0.50000000       0.50000000 </v>
    <v>       0.50000000       0.00000000       0.00000000 </v>
    <v>       0.00000000       0.00000000       0.50000000 </v>
   </varray>
  </structure>
  <varray name="forces" >
   <v>       0.00000000       0.00000000       0.00000000 </v>
   <v>       0.00000000       0.00000000       0.00000000 </v>
   <v>       0.00000000       0.00000000       0.00000000 </v>
   <v>       0.00000000       0.00000000       0.00000000 </v>
   <v>       0.00000000       0.00000000       0.00000000 </v>
   <v>       0.00000000       0.00000000       0.00000000 </v>
   <v>       0.00000000       0.00000000       0.00000000 </v>
   <v>       0.00000000       0.00000000       0.00000000 </v>
   <v>       0.00000000       0.00000000       0.00000000 </v>
   <v>       0.00000000       0.00000000       0.00000000 </v>
  </varray>
  <varray name="stress" >
   <v>       0.00000000       0.00000000       0.00000000 </v>
   <v>       0.00000000       0.00000000       0.00000000 </v>
   <v>       0.00000000       0.00000000       0.00000000 </v>
  </varray>
  <energy>
   <i name="e_fr_energy">   -146.79406224 </i>
   <i name="e_wo_entrp">   -146.79236121 </i>
   <i name="e_0_energy">   -146.79321173 </i>
  </energy>
  <time name="totalsc">  768.22  774.13</time>
  <eigenvalues>
   <array>
    <dimension dim="1">band</dimension>
    <dimension dim="2">kpoint</dimension>
    <dimension dim="3">spin</dimension>
    <field>eigene</field>
    <field>occ</field>
    <set>
     <set comment="spin 1">
      <set comment="kpoint 1">
       <r>  -51.1934    1.0000 </r>
       <r>  -51.1509    1.0000 </r>
       <r>  -51.0145    1.0000 </r>
       <r>  -50.9752    1.0000 </r>
       <r>  -24.9343    1.0000 </r>
       <r>  -24.9343    1.0000 </r>
       <r>  -24.9218    1.0000 </r>
       <r>  -24.9117    1.0000 </r>
       <r>  -24.8328    1.0000 </r>
       <r>  -24.8327    1.0000 </r>
       <r>  -24.4210    1.0000 </r>
       <r>  -24.3802    1.0000 </r>
       <r>  -24.1455    1.0000 </r>
       <r>  -24.1454    1.0000 </r>
       <r>  -24.0744    1.0000 </r>
       <r>  -24.0744    1.0000 </r>
       <r>   -2.8849    1.0000 </r>
       <r>    0.9369    1.0000 </r>
       <r>    0.9370    1.0000 </r>
       <r>    1.6448    1.0000 </r>
       <r>    4.5081    1.0000 </r>
       <r>    5.3006    1.0000 </r>
       <r>    5.3006    1.0000 </r>
       <r>    5.4721    1.0000 </r>
       <r>    6.0256    1.0000 </r>
       <r>    6.2382    1.0000 </r>
       <r>    7.9872    1.0000 </r>
       <r>    8.0439    1.0000 </r>
       <r>    8.2961    1.0000 </r>
       <r>    8.2995    1.0000 </r>
       <r>    8.4903    1.0000 </r>
       <r>    8.5611    1.0000 </r>
       <r>    8.5612    1.0000 </r>
       <r>    8.9344    1.0000 </r>
       <r>    8.9344    1.0000 </r>
       <r>   11.5787    1.0000 </r>
       <r>   11.5788    1.0000 </r>
       <r>   11.8183    0.9997 </r>
       <r>   11.9707    0.0000 </r>
       <r>   12.0366    0.0000 </r>
       <r>   12.4329    0.0000 </r>
       <r>   12.4331    0.0000 </r>
       <r>   12.6440    0.0000 </r>
       <r>   13.5668    0.0000 </r>
       <r>   13.5669    0.0000 </r>
       <r>   13.8588    0.0000 </r>
       <r>   14.3263    0.0000 </r>
       <r>   14.3263    0.0000 </r>
      </set>
      <set comment="kpoint 2">
       <r>  -51.1908    1.0000 </r>
       <r>  -51.1510    1.0000 </r>
       <r>  -51.0145    1.0000 </r>
       <r>  -50.9777    1.0000 </r>
       <r>  -24.9306    1.0000 </r>
       <r>  -24.9211    1.0000 </r>
       <r>  -24.9116    1.0000 </r>
       <r>  -24.9062    1.0000 </r>
       <r>  -24.8368    1.0000 </r>
       <r>  -24.8056    1.0000 </r>
       <r>  -24.4202    1.0000 </r>
       <r>  -24.3824    1.0000 </r>
       <r>  -24.1764    1.0000 </r>
       <r>  -24.1427    1.0000 </r>
       <r>  -24.1038    1.0000 </r>
       <r>  -24.0771    1.0000 </r>
       <r>   -2.7764    1.0000 </r>
       <r>    0.6167    1.0000 </r>
       <r>    1.0292    1.0000 </r>
       <r>    1.8786    1.0000 </r>
       <r>    4.1447    1.0000 </r>
       <r>    4.6450    1.0000 </r>
       <r>    5.6478    1.0000 </r>
       <r>    6.0320    1.0000 </r>
       <r>    6.1228    1.0000 </r>
       <r>    6.2373    1.0000 </r>
       <r>    7.6817    1.0000 </r>
       <r>    7.9738    1.0000 </r>
       <r>    8.0487    1.0000 </r>
       <r>    8.3588    1.0000 </r>
       <r>    8.6046    1.0000 </r>
       <r>    8.6510    1.0000 </r>
       <r>    8.9270    1.0000 </r>
       <r>    8.9529    1.0000 </r>
       <r>    9.1886    1.0000 </r>
       <r>   11.4992    1.0000 </r>
       <r>   11.5141    1.0000 </r>
       <r>   11.9066    0.0027 </r>
       <r>   12.0456    0.0000 </r>
       <r>   12.1556    0.0000 </r>
       <r>   12.2157    0.0000 </r>
       <r>   12.2319    0.0000 </r>
       <r>   12.4220    0.0000 </r>
       <r>   13.6222    0.0000 </r>
       <r>   13.6677    0.0000 </r>
       <r>   13.9129    0.0000 </r>
       <r>   14.2239    0.0000 </r>
       <r>   14.6826    0.0000 </r>
      </set>
      <set comment="kpoint 3">
       <r>  -51.1838    1.0000 </r>
       <r>  -51.1523    1.0000 </r>
       <r>  -51.0138    1.0000 </r>
       <r>  -50.9845    1.0000 </r>
       <r>  -24.9199    1.0000 </r>
       <r>  -24.9193    1.0000 </r>
       <r>  -24.9116    1.0000 </r>
       <r>  -24.8481    1.0000 </r>
       <r>  -24.8261    1.0000 </r>
       <r>  -24.7284    1.0000 </r>
       <r>  -24.4175    1.0000 </r>
       <r>  -24.3883    1.0000 </r>
       <r>  -24.2632    1.0000 </r>
       <r>  -24.1869    1.0000 </r>
       <r>  -24.1351    1.0000 </r>
       <r>  -24.0849    1.0000 </r>
       <r>   -2.4609    1.0000 </r>
       <r>    0.0177    1.0000 </r>
       <r>    1.2995    1.0000 </r>
       <r>    2.2446    1.0000 </r>
       <r>    3.5408    1.0000 </r>
       <r>    3.9685    1.0000 </r>
       <r>    6.0332    1.0000 </r>
       <r>    6.1679    1.0000 </r>
       <r>    6.3677    1.0000 </r>
       <r>    6.5821    1.0000 </r>
       <r>    7.3662    1.0000 </r>
       <r>    7.7366    1.0000 </r>
       <r>    7.9117    1.0000 </r>
       <r>    8.1866    1.0000 </r>
       <r>    8.9413    1.0000 </r>
       <r>    9.0743    1.0000 </r>
       <r>    9.0896    1.0000 </r>
       <r>    9.2180    1.0000 </r>
       <r>    9.9161    1.0000 </r>
       <r>   11.2111    1.0000 </r>
       <r>   11.2547    1.0000 </r>
       <r>   11.6213    1.0000 </r>
       <r>   11.8599    0.6977 </r>
       <r>   12.0266    0.0000 </r>
       <r>   12.1679    0.0000 </r>
       <r>   12.3767    0.0000 </r>
       <r>   12.5266    0.0000 </r>
       <r>   13.2781    0.0000 </r>
       <r>   13.7667    0.0000 </r>
       <r>   13.7812    0.0000 </r>
       <r>   13.9072    0.0000 </r>
       <r>   15.3579    0.0000 </r>
      </set>
      <set comment="kpoint 4">
       <r>  -51.1739    1.0000 </r>
       <r>  -51.1563    1.0000 </r>
       <r>  -51.0104    1.0000 </r>
       <r>  -50.9940    1.0000 </r>
       <r>  -24.9167    1.0000 </r>
       <r>  -24.9124    1.0000 </r>
       <r>  -24.9037    1.0000 </r>
       <r>  -24.8649    1.0000 </r>
       <r>  -24.7058    1.0000 </r>
       <r>  -24.6162    1.0000 </r>
       <r>  -24.4125    1.0000 </r>
       <r>  -24.3966    1.0000 </r>
       <r>  -24.3866    1.0000 </r>
       <r>  -24.3085    1.0000 </r>
       <r>  -24.1236    1.0000 </r>
       <r>  -24.0964    1.0000 </r>
       <r>   -1.9688    1.0000 </r>
       <r>   -0.6632    1.0000 </r>
       <r>    1.7273    1.0000 </r>
       <r>    2.6071    1.0000 </r>
       <r>    2.9001    1.0000 </r>
       <r>    3.4148    1.0000 </r>
       <r>    5.9388    1.0000 </r>
       <r>    6.2562    1.0000 </r>
       <r>    6.6150    1.0000 </r>
       <r>    7.1406    1.0000 </r>
       <r>    7.4121    1.0000 </r>
       <r>    7.4330    1.0000 </r>
       <r>    7.6837    1.0000 </r>
       <r>    8.1991    1.0000 </r>
       <r>    9.0511    1.0000 </r>
       <r>    9.2003    1.0000 </r>
       <r>    9.4871    1.0000 </r>
       <r>    9.9393    1.0000 </r>
       <r>   10.6372    1.0000 </r>
       <r>   10.7771    1.0000 </r>
       <r>   10.8756    1.0000 </r>
       <r>   11.0800    1.0000 </r>
       <r>   11.7140    1.0000 </r>
       <r>   11.8648    0.5667 </r>
       <r>   12.4896    0.0000 </r>
       <r>   12.5619    0.0000 </r>
       <r>   12.7055    0.0000 </r>
       <r>   12.8646    0.0000 </r>
       <r>   13.3499    0.0000 </r>
       <r>   13.6718    0.0000 </r>
       <r>   13.7631    0.0000 </r>
       <r>   14.6725    0.0000 </r>
      </set>
      <set comment="kpoint 5">
       <r>  -51.1639    1.0000 </r>
       <r>  -51.1639    1.0000 </r>
       <r>  -51.0034    1.0000 </r>
       <r>  -51.0034    1.0000 </r>
       <r>  -24.9142    1.0000 </r>
       <r>  -24.9142    1.0000 </r>
       <r>  -24.8844    1.0000 </r>
       <r>  -24.8844    1.0000 </r>
       <r>  -24.5755    1.0000 </r>
       <r>  -24.5755    1.0000 </r>
       <r>  -24.4357    1.0000 </r>
       <r>  -24.4357    1.0000 </r>
       <r>  -24.4052    1.0000 </r>
       <r>  -24.4052    1.0000 </r>
       <r>  -24.1100    1.0000 </r>
       <r>  -24.1100    1.0000 </r>
       <r>   -1.3486    1.0000 </r>
       <r>   -1.3486    1.0000 </r>
       <r>    2.2773    1.0000 </r>
       <r>    2.2773    1.0000 </r>
       <r>    2.9788    1.0000 </r>
       <r>    2.9788    1.0000 </r>
       <r>    6.0229    1.0000 </r>
       <r>    6.0229    1.0000 </r>
       <r>    7.0082    1.0000 </r>
       <r>    7.0082    1.0000 </r>
       <r>    7.5846    1.0000 </r>
       <r>    7.5846    1.0000 </r>
       <r>    7.7809    1.0000 </r>
       <r>    7.7809    1.0000 </r>
       <r>    9.1483    1.0000 </r>
       <r>    9.1483    1.0000 </r>
       <r>   10.1210    1.0000 </r>
       <r>   10.1210    1.0000 </r>
       <r>   10.7039    1.0000 </r>
       <r>   10.7039    1.0000 </r>
       <r>   10.7534    1.0000 </r>
       <r>   10.7534    1.0000 </r>
       <r>   11.7256    1.0000 </r>
       <r>   11.7256    1.0000 </r>
       <r>   12.6420    0.0000 </r>
       <r>   12.6420    0.0000 </r>
       <r>   12.8900    0.0000 </r>
       <r>   12.8900    0.0000 </r>
       <r>   13.0660    0.0000 </r>
       <r>   13.0660    0.0000 </r>
       <r>   14.0233    0.0000 </r>
       <r>   14.0235    0.0000 </r>
      </set>
      <set comment="kpoint 6">
       <r>  -51.1883    1.0000 </r>
       <r>  -51.1510    1.0000 </r>
       <r>  -51.0148    1.0000 </r>
       <r>  -50.9801    1.0000 </r>
       <r>  -24.9218    1.0000 </r>
       <r>  -24.9106    1.0000 </r>
       <r>  -24.9033    1.0000 </r>
       <r>  -24.9028    1.0000 </r>
       <r>  -24.8107    1.0000 </r>
       <r>  -24.8076    1.0000 </r>
       <r>  -24.4175    1.0000 </r>
       <r>  -24.3864    1.0000 </r>
       <r>  -24.1751    1.0000 </r>
       <r>  -24.1718    1.0000 </r>
       <r>  -24.1070    1.0000 </r>
       <r>  -24.1066    1.0000 </r>
       <r>   -2.5917    1.0000 </r>
       <r>    0.4350    1.0000 </r>
       <r>    0.9732    1.0000 </r>
       <r>    2.0411    1.0000 </r>
       <r>    3.6033    1.0000 </r>
       <r>    5.0558    1.0000 </r>
       <r>    5.2311    1.0000 </r>
       <r>    6.0276    1.0000 </r>
       <r>    6.2067    1.0000 </r>
       <r>    6.5590    1.0000 </r>
       <r>    7.2238    1.0000 </r>
       <r>    7.9048    1.0000 </r>
       <r>    8.0772    1.0000 </r>
       <r>    8.1274    1.0000 </r>
       <r>    8.8715    1.0000 </r>
       <r>    8.9037    1.0000 </r>
       <r>    8.9685    1.0000 </r>
       <r>    9.4547    1.0000 </r>
       <r>    9.5941    1.0000 </r>
       <r>   11.2980    1.0000 </r>
       <r>   11.5388    1.0000 </r>
       <r>   11.6545    1.0000 </r>
       <r>   11.7490    1.0000 </r>
       <r>   11.9353    0.0000 </r>
       <r>   11.9620    0.0000 </r>
       <r>   12.1716    0.0000 </r>
       <r>   12.5498    0.0000 </r>
       <r>   13.7983    0.0000 </r>
       <r>   13.8243    0.0000 </r>
       <r>   13.9637    0.0000 </r>
       <r>   14.3313    0.0000 </r>
       <r>   14.9511    0.0000 </r>
      </set>
      <set comment="kpoint 7">
       <r>  -51.1814    1.0000 </r>
       <r>  -51.1517    1.0000 </r>
       <r>  -51.0145    1.0000 </r>
       <r>  -50.9868    1.0000 </r>
       <r>  -24.9208    1.0000 </r>
       <r>  -24.9097    1.0000 </r>
       <r>  -24.8929    1.0000 </r>
       <r>  -24.8234    1.0000 </r>
       <r>  -24.8201    1.0000 </r>
       <r>  -24.7314    1.0000 </r>
       <r>  -24.4134    1.0000 </r>
       <r>  -24.3937    1.0000 </r>
       <r>  -24.2600    1.0000 </r>
       <r>  -24.1902    1.0000 </r>
       <r>  -24.1654    1.0000 </r>
       <r>  -24.1148    1.0000 </r>
       <r>   -2.2160    1.0000 </r>
       <r>   -0.1448    1.0000 </r>
       <r>    1.1272    1.0000 </r>
       <r>    2.4886    1.0000 </r>
       <r>    2.9267    1.0000 </r>
       <r>    4.4954    1.0000 </r>
       <r>    5.8427    1.0000 </r>
       <r>    6.0025    1.0000 </r>
       <r>    6.1673    1.0000 </r>
       <r>    6.8971    1.0000 </r>
       <r>    7.0362    1.0000 </r>
       <r>    7.6735    1.0000 </r>
       <r>    7.9459    1.0000 </r>
       <r>    8.2923    1.0000 </r>
       <r>    9.0795    1.0000 </r>
       <r>    9.1102    1.0000 </r>
       <r>    9.3354    1.0000 </r>
       <r>    9.8757    1.0000 </r>
       <r>   10.3383    1.0000 </r>
       <r>   10.9329    1.0000 </r>
       <r>   11.1380    1.0000 </r>
       <r>   11.3073    1.0000 </r>
       <r>   11.3817    1.0000 </r>
       <r>   11.8098    1.0000 </r>
       <r>   12.0257    0.0000 </r>
       <r>   12.0742    0.0000 </r>
       <r>   13.0883    0.0000 </r>
       <r>   13.5058    0.0000 </r>
       <r>   13.7578    0.0000 </r>
       <r>   13.8158    0.0000 </r>
       <r>   14.2090    0.0000 </r>
       <r>   14.6519    0.0000 </r>
      </set>
      <set comment="kpoint 8">
       <r>  -51.1719    1.0000 </r>
       <r>  -51.1551    1.0000 </r>
       <r>  -51.0117    1.0000 </r>
       <r>  -50.9960    1.0000 </r>
       <r>  -24.9187    1.0000 </r>
       <r>  -24.9096    1.0000 </r>
       <r>  -24.8772    1.0000 </r>
       <r>  -24.8363    1.0000 </r>
       <r>  -24.7036    1.0000 </r>
       <r>  -24.6185    1.0000 </r>
       <r>  -24.4077    1.0000 </r>
       <r>  -24.4028    1.0000 </r>
       <r>  -24.3832    1.0000 </r>
       <r>  -24.3121    1.0000 </r>
       <r>  -24.1536    1.0000 </r>
       <r>  -24.1267    1.0000 </r>
       <r>   -1.6908    1.0000 </r>
       <r>   -0.8361    1.0000 </r>
       <r>    1.4432    1.0000 </r>
       <r>    2.3176    1.0000 </r>
       <r>    2.9899    1.0000 </r>
       <r>    3.9409    1.0000 </r>
       <r>    5.8227    1.0000 </r>
       <r>    6.1731    1.0000 </r>
       <r>    6.5418    1.0000 </r>
       <r>    7.1409    1.0000 </r>
       <r>    7.1466    1.0000 </r>
       <r>    7.4547    1.0000 </r>
       <r>    7.8871    1.0000 </r>
       <r>    8.3407    1.0000 </r>
       <r>    9.1216    1.0000 </r>
       <r>    9.2486    1.0000 </r>
       <r>    9.9755    1.0000 </r>
       <r>   10.1645    1.0000 </r>
       <r>   10.4024    1.0000 </r>
       <r>   10.4411    1.0000 </r>
       <r>   11.0116    1.0000 </r>
       <r>   11.2500    1.0000 </r>
       <r>   11.3921    1.0000 </r>
       <r>   11.6930    1.0000 </r>
       <r>   12.2112    0.0000 </r>
       <r>   12.3496    0.0000 </r>
       <r>   12.9003    0.0000 </r>
       <r>   13.0102    0.0000 </r>
       <r>   13.2917    0.0000 </r>
       <r>   13.9884    0.0000 </r>
       <r>   14.1097    0.0000 </r>
       <r>   14.2757    0.0000 </r>
      </set>
      <set comment="kpoint 9">
       <r>  -51.1623    1.0000 </r>
       <r>  -51.1622    1.0000 </r>
       <r>  -51.0053    1.0000 </r>
       <r>  -51.0050    1.0000 </r>
       <r>  -24.9162    1.0000 </r>
       <r>  -24.9108    1.0000 </r>
       <r>  -24.8581    1.0000 </r>
       <r>  -24.8555    1.0000 </r>
       <r>  -24.5745    1.0000 </r>
       <r>  -24.5722    1.0000 </r>
       <r>  -24.4385    1.0000 </r>
       <r>  -24.4373    1.0000 </r>
       <r>  -24.4113    1.0000 </r>
       <r>  -24.4005    1.0000 </r>
       <r>  -24.1407    1.0000 </r>
       <r>  -24.1397    1.0000 </r>
       <r>   -1.5068    1.0000 </r>
       <r>   -1.0769    1.0000 </r>
       <r>    1.7869    1.0000 </r>
       <r>    1.8598    1.0000 </r>
       <r>    3.4555    1.0000 </r>
       <r>    3.5128    1.0000 </r>
       <r>    5.6871    1.0000 </r>
       <r>    6.4745    1.0000 </r>
       <r>    7.0021    1.0000 </r>
       <r>    7.0631    1.0000 </r>
       <r>    7.3477    1.0000 </r>
       <r>    7.6670    1.0000 </r>
       <r>    7.7773    1.0000 </r>
       <r>    7.8552    1.0000 </r>
       <r>    9.0978    1.0000 </r>
       <r>    9.2257    1.0000 </r>
       <r>    9.8062    1.0000 </r>
       <r>   10.2075    1.0000 </r>
       <r>   10.6314    1.0000 </r>
       <r>   10.6633    1.0000 </r>
       <r>   10.8487    1.0000 </r>
       <r>   10.9761    1.0000 </r>
       <r>   11.6521    1.0000 </r>
       <r>   11.7843    1.0000 </r>
       <r>   12.2868    0.0000 </r>
       <r>   12.7253    0.0000 </r>
       <r>   12.7258    0.0000 </r>
       <r>   12.8091    0.0000 </r>
       <r>   12.9960    0.0000 </r>
       <r>   13.6499    0.0000 </r>
       <r>   13.7726    0.0000 </r>
       <r>   14.3284    0.0000 </r>
      </set>
      <set comment="kpoint 10">
       <r>  -51.1718    1.0000 </r>
       <r>  -51.1553    1.0000 </r>
       <r>  -51.0114    1.0000 </r>
       <r>  -50.9962    1.0000 </r>
       <r>  -24.9142    1.0000 </r>
       <r>  -24.9132    1.0000 </r>
       <r>  -24.8747    1.0000 </r>
       <r>  -24.8385    1.0000 </r>
       <r>  -24.7012    1.0000 </r>
       <r>  -24.6203    1.0000 </r>
       <r>  -24.4177    1.0000 </r>
       <r>  -24.3930    1.0000 </r>
       <r>  -24.3846    1.0000 </r>
       <r>  -24.3110    1.0000 </r>
       <r>  -24.1545    1.0000 </r>
       <r>  -24.1259    1.0000 </r>
       <r>   -2.0843    1.0000 </r>
       <r>   -0.4468    1.0000 </r>
       <r>    1.3459    1.0000 </r>
       <r>    2.3678    1.0000 </r>
       <r>    3.0352    1.0000 </r>
       <r>    4.0667    1.0000 </r>
       <r>    5.7473    1.0000 </r>
       <r>    6.5723    1.0000 </r>
       <r>    6.9018    1.0000 </r>
       <r>    6.9858    1.0000 </r>
       <r>    7.4564    1.0000 </r>
       <r>    7.5707    1.0000 </r>
       <r>    7.6281    1.0000 </r>
       <r>    8.1741    1.0000 </r>
       <r>    8.7321    1.0000 </r>
       <r>    9.3425    1.0000 </r>
       <r>    9.3541    1.0000 </r>
       <r>    9.9064    1.0000 </r>
       <r>   10.2647    1.0000 </r>
       <r>   10.4807    1.0000 </r>
       <r>   11.0851    1.0000 </r>
       <r>   11.2753    1.0000 </r>
       <r>   12.0032    0.0000 </r>
       <r>   12.0455    0.0000 </r>
       <r>   12.4254    0.0000 </r>
       <r>   12.4286    0.0000 </r>
       <r>   12.6423    0.0000 </r>
       <r>   13.0360    0.0000 </r>
       <r>   13.3229    0.0000 </r>
       <r>   13.4875    0.0000 </r>
       <r>   13.8822    0.0000 </r>
       <r>   14.8365    0.0000 </r>
      </set>
      <set comment="kpoint 11">
       <r>  -51.1814    1.0000 </r>
       <r>  -51.1519    1.0000 </r>
       <r>  -51.0142    1.0000 </r>
       <r>  -50.9870    1.0000 </r>
       <r>  -24.9162    1.0000 </r>
       <r>  -24.9130    1.0000 </r>
       <r>  -24.8909    1.0000 </r>
       <r>  -24.8216    1.0000 </r>
       <r>  -24.8215    1.0000 </r>
       <r>  -24.7328    1.0000 </r>
       <r>  -24.4210    1.0000 </r>
       <r>  -24.3863    1.0000 </r>
       <r>  -24.2609    1.0000 </r>
       <r>  -24.1895    1.0000 </r>
       <r>  -24.1660    1.0000 </r>
       <r>  -24.1142    1.0000 </r>
       <r>   -2.5118    1.0000 </r>
       <r>    0.1276    1.0000 </r>
       <r>    1.0232    1.0000 </r>
       <r>    2.6408    1.0000 </r>
       <r>    2.9641    1.0000 </r>
       <r>    4.6491    1.0000 </r>
       <r>    5.8488    1.0000 </r>
       <r>    5.9908    1.0000 </r>
       <r>    6.6258    1.0000 </r>
       <r>    6.9240    1.0000 </r>
       <r>    7.5150    1.0000 </r>
       <r>    7.7263    1.0000 </r>
       <r>    7.9641    1.0000 </r>
       <r>    8.2207    1.0000 </r>
       <r>    8.5451    1.0000 </r>
       <r>    9.0236    1.0000 </r>
       <r>    9.2118    1.0000 </r>
       <r>    9.2963    1.0000 </r>
       <r>    9.4434    1.0000 </r>
       <r>   10.8768    1.0000 </r>
       <r>   11.4155    1.0000 </r>
       <r>   11.8573    0.7575 </r>
       <r>   12.0723    0.0000 </r>
       <r>   12.1465    0.0000 </r>
       <r>   12.3658    0.0000 </r>
       <r>   12.4108    0.0000 </r>
       <r>   12.8545    0.0000 </r>
       <r>   13.0293    0.0000 </r>
       <r>   13.5416    0.0000 </r>
       <r>   13.6209    0.0000 </r>
       <r>   13.8292    0.0000 </r>
       <r>   14.5441    0.0000 </r>
      </set>
      <set comment="kpoint 12">
       <r>  -51.1883    1.0000 </r>
       <r>  -51.1511    1.0000 </r>
       <r>  -51.0146    1.0000 </r>
       <r>  -50.9802    1.0000 </r>
       <r>  -24.9191    1.0000 </r>
       <r>  -24.9123    1.0000 </r>
       <r>  -24.9022    1.0000 </r>
       <r>  -24.9018    1.0000 </r>
       <r>  -24.8116    1.0000 </r>
       <r>  -24.8083    1.0000 </r>
       <r>  -24.4216    1.0000 </r>
       <r>  -24.3825    1.0000 </r>
       <r>  -24.1756    1.0000 </r>
       <r>  -24.1720    1.0000 </r>
       <r>  -24.1067    1.0000 </r>
       <r>  -24.1062    1.0000 </r>
       <r>   -2.7495    1.0000 </r>
       <r>    0.5456    1.0000 </r>
       <r>    0.8936    1.0000 </r>
       <r>    2.2190    1.0000 </r>
       <r>    3.6234    1.0000 </r>
       <r>    5.1318    1.0000 </r>
       <r>    5.3651    1.0000 </r>
       <r>    5.8980    1.0000 </r>
       <r>    6.4430    1.0000 </r>
       <r>    6.5234    1.0000 </r>
       <r>    7.7796    1.0000 </r>
       <r>    7.9631    1.0000 </r>
       <r>    8.0955    1.0000 </r>
       <r>    8.1555    1.0000 </r>
       <r>    8.5796    1.0000 </r>
       <r>    8.7241    1.0000 </r>
       <r>    8.9749    1.0000 </r>
       <r>    8.9766    1.0000 </r>
       <r>    9.0318    1.0000 </r>
       <r>   11.2508    1.0000 </r>
       <r>   11.5744    1.0000 </r>
       <r>   11.9766    0.0000 </r>
       <r>   11.9943    0.0000 </r>
       <r>   12.2181    0.0000 </r>
       <r>   12.2593    0.0000 </r>
       <r>   12.5694    0.0000 </r>
       <r>   12.8295    0.0000 </r>
       <r>   13.6080    0.0000 </r>
       <r>   13.6188    0.0000 </r>
       <r>   13.6646    0.0000 </r>
       <r>   13.7309    0.0000 </r>
       <r>   14.3194    0.0000 </r>
      </set>
      <set comment="kpoint 13">
       <r>  -51.1750    1.0000 </r>
       <r>  -51.1511    1.0000 </r>
       <r>  -51.0155    1.0000 </r>
       <r>  -50.9931    1.0000 </r>
       <r>  -24.9206    1.0000 </r>
       <r>  -24.9077    1.0000 </r>
       <r>  -24.8148    1.0000 </r>
       <r>  -24.8128    1.0000 </r>
       <r>  -24.7469    1.0000 </r>
       <r>  -24.7363    1.0000 </r>
       <r>  -24.4088    1.0000 </r>
       <r>  -24.4018    1.0000 </r>
       <r>  -24.2571    1.0000 </r>
       <r>  -24.2457    1.0000 </r>
       <r>  -24.1998    1.0000 </r>
       <r>  -24.1979    1.0000 </r>
       <r>   -1.8086    1.0000 </r>
       <r>   -0.4647    1.0000 </r>
       <r>    0.8960    1.0000 </r>
       <r>    2.2569    1.0000 </r>
       <r>    3.0990    1.0000 </r>
       <r>    4.7346    1.0000 </r>
       <r>    5.7345    1.0000 </r>
       <r>    6.0629    1.0000 </r>
       <r>    6.1719    1.0000 </r>
       <r>    6.8797    1.0000 </r>
       <r>    7.0067    1.0000 </r>
       <r>    7.5756    1.0000 </r>
       <r>    8.0368    1.0000 </r>
       <r>    8.4920    1.0000 </r>
       <r>    9.2844    1.0000 </r>
       <r>    9.4266    1.0000 </r>
       <r>    9.4741    1.0000 </r>
       <r>   10.1449    1.0000 </r>
       <r>   10.3751    1.0000 </r>
       <r>   10.7409    1.0000 </r>
       <r>   11.1290    1.0000 </r>
       <r>   11.2063    1.0000 </r>
       <r>   11.3380    1.0000 </r>
       <r>   11.5534    1.0000 </r>
       <r>   11.9094    0.0014 </r>
       <r>   11.9624    0.0000 </r>
       <r>   13.2032    0.0000 </r>
       <r>   13.5943    0.0000 </r>
       <r>   13.6809    0.0000 </r>
       <r>   13.8688    0.0000 </r>
       <r>   13.9588    0.0000 </r>
       <r>   14.2485    0.0000 </r>
      </set>
      <set comment="kpoint 14">
       <r>  -51.1664    1.0000 </r>
       <r>  -51.1527    1.0000 </r>
       <r>  -51.0145    1.0000 </r>
       <r>  -51.0014    1.0000 </r>
       <r>  -24.9189    1.0000 </r>
       <r>  -24.9066    1.0000 </r>
       <r>  -24.7987    1.0000 </r>
       <r>  -24.7574    1.0000 </r>
       <r>  -24.6947    1.0000 </r>
       <r>  -24.6269    1.0000 </r>
       <r>  -24.4105    1.0000 </r>
       <r>  -24.4035    1.0000 </r>
       <r>  -24.3749    1.0000 </r>
       <r>  -24.3213    1.0000 </r>
       <r>  -24.2385    1.0000 </r>
       <r>  -24.2114    1.0000 </r>
       <r>   -1.2927    1.0000 </r>
       <r>   -0.9755    1.0000 </r>
       <r>    0.9343    1.0000 </r>
       <r>    1.6974    1.0000 </r>
       <r>    3.7671    1.0000 </r>
       <r>    4.4533    1.0000 </r>
       <r>    5.4904    1.0000 </r>
       <r>    6.5896    1.0000 </r>
       <r>    6.6501    1.0000 </r>
       <r>    6.8715    1.0000 </r>
       <r>    7.1069    1.0000 </r>
       <r>    7.5619    1.0000 </r>
       <r>    7.8206    1.0000 </r>
       <r>    8.5381    1.0000 </r>
       <r>    9.3500    1.0000 </r>
       <r>    9.4155    1.0000 </r>
       <r>    9.7355    1.0000 </r>
       <r>    9.9867    1.0000 </r>
       <r>   10.2358    1.0000 </r>
       <r>   10.5596    1.0000 </r>
       <r>   10.9039    1.0000 </r>
       <r>   11.4934    1.0000 </r>
       <r>   11.4966    1.0000 </r>
       <r>   11.7441    1.0000 </r>
       <r>   12.1530    0.0000 </r>
       <r>   12.2384    0.0000 </r>
       <r>   12.7790    0.0000 </r>
       <r>   12.7808    0.0000 </r>
       <r>   13.3377    0.0000 </r>
       <r>   13.8010    0.0000 </r>
       <r>   13.8152    0.0000 </r>
       <r>   14.5976    0.0000 </r>
      </set>
      <set comment="kpoint 15">
       <r>  -51.1582    1.0000 </r>
       <r>  -51.1579    1.0000 </r>
       <r>  -51.0098    1.0000 </r>
       <r>  -51.0092    1.0000 </r>
       <r>  -24.9167    1.0000 </r>
       <r>  -24.9070    1.0000 </r>
       <r>  -24.7802    1.0000 </r>
       <r>  -24.7757    1.0000 </r>
       <r>  -24.5700    1.0000 </r>
       <r>  -24.5657    1.0000 </r>
       <r>  -24.4446    1.0000 </r>
       <r>  -24.4424    1.0000 </r>
       <r>  -24.4179    1.0000 </r>
       <r>  -24.3977    1.0000 </r>
       <r>  -24.2261    1.0000 </r>
       <r>  -24.2240    1.0000 </r>
       <r>   -1.5359    1.0000 </r>
       <r>   -0.7403    1.0000 </r>
       <r>    1.2081    1.0000 </r>
       <r>    1.2491    1.0000 </r>
       <r>    4.0479    1.0000 </r>
       <r>    4.4012    1.0000 </r>
       <r>    5.4363    1.0000 </r>
       <r>    6.8447    1.0000 </r>
       <r>    6.9139    1.0000 </r>
       <r>    7.1931    1.0000 </r>
       <r>    7.3189    1.0000 </r>
       <r>    7.5649    1.0000 </r>
       <r>    7.8636    1.0000 </r>
       <r>    8.0056    1.0000 </r>
       <r>    8.9871    1.0000 </r>
       <r>    9.4921    1.0000 </r>
       <r>    9.6104    1.0000 </r>
       <r>    9.9897    1.0000 </r>
       <r>   10.5212    1.0000 </r>
       <r>   10.5325    1.0000 </r>
       <r>   10.8784    1.0000 </r>
       <r>   10.9177    1.0000 </r>
       <r>   11.8343    0.9900 </r>
       <r>   12.0347    0.0000 </r>
       <r>   12.0712    0.0000 </r>
       <r>   12.4650    0.0000 </r>
       <r>   12.5783    0.0000 </r>
       <r>   12.7666    0.0000 </r>
       <r>   12.8836    0.0000 </r>
       <r>   13.6316    0.0000 </r>
       <r>   14.1352    0.0000 </r>
       <r>   14.1838    0.0000 </r>
      </set>
      <set comment="kpoint 16">
       <r>  -51.1661    1.0000 </r>
       <r>  -51.1531    1.0000 </r>
       <r>  -51.0139    1.0000 </r>
       <r>  -51.0020    1.0000 </r>
       <r>  -24.9149    1.0000 </r>
       <r>  -24.9091    1.0000 </r>
       <r>  -24.7943    1.0000 </r>
       <r>  -24.7613    1.0000 </r>
       <r>  -24.6905    1.0000 </r>
       <r>  -24.6303    1.0000 </r>
       <r>  -24.4222    1.0000 </r>
       <r>  -24.3921    1.0000 </r>
       <r>  -24.3774    1.0000 </r>
       <r>  -24.3192    1.0000 </r>
       <r>  -24.2404    1.0000 </r>
       <r>  -24.2096    1.0000 </r>
       <r>   -2.0217    1.0000 </r>
       <r>   -0.2326    1.0000 </r>
       <r>    0.9195    1.0000 </r>
       <r>    1.6638    1.0000 </r>
       <r>    3.6385    1.0000 </r>
       <r>    4.9841    1.0000 </r>
       <r>    5.5060    1.0000 </r>
       <r>    6.3520    1.0000 </r>
       <r>    6.8829    1.0000 </r>
       <r>    7.4594    1.0000 </r>
       <r>    7.4634    1.0000 </r>
       <r>    7.7234    1.0000 </r>
       <r>    7.7623    1.0000 </r>
       <r>    8.2499    1.0000 </r>
       <r>    8.5204    1.0000 </r>
       <r>    9.5981    1.0000 </r>
       <r>    9.6336    1.0000 </r>
       <r>    9.8005    1.0000 </r>
       <r>    9.9059    1.0000 </r>
       <r>   10.0085    1.0000 </r>
       <r>   11.0937    1.0000 </r>
       <r>   11.2852    1.0000 </r>
       <r>   12.0393    0.0000 </r>
       <r>   12.0764    0.0000 </r>
       <r>   12.2398    0.0000 </r>
       <r>   12.3268    0.0000 </r>
       <r>   12.5071    0.0000 </r>
       <r>   12.8918    0.0000 </r>
       <r>   13.4914    0.0000 </r>
       <r>   13.5304    0.0000 </r>
       <r>   13.9754    0.0000 </r>
       <r>   14.1333    0.0000 </r>
      </set>
      <set comment="kpoint 17">
       <r>  -51.1748    1.0000 </r>
       <r>  -51.1514    1.0000 </r>
       <r>  -51.0150    1.0000 </r>
       <r>  -50.9934    1.0000 </r>
       <r>  -24.9139    1.0000 </r>
       <r>  -24.9125    1.0000 </r>
       <r>  -24.8112    1.0000 </r>
       <r>  -24.8094    1.0000 </r>
       <r>  -24.7499    1.0000 </r>
       <r>  -24.7387    1.0000 </r>
       <r>  -24.4230    1.0000 </r>
       <r>  -24.3879    1.0000 </r>
       <r>  -24.2589    1.0000 </r>
       <r>  -24.2469    1.0000 </r>
       <r>  -24.1984    1.0000 </r>
       <r>  -24.1965    1.0000 </r>
       <r>   -2.3604    1.0000 </r>
       <r>    0.1072    1.0000 </r>
       <r>    0.7949    1.0000 </r>
       <r>    2.2647    1.0000 </r>
       <r>    3.1771    1.0000 </r>
       <r>    5.5182    1.0000 </r>
       <r>    5.5337    1.0000 </r>
       <r>    5.6069    1.0000 </r>
       <r>    6.9964    1.0000 </r>
       <r>    7.1549    1.0000 </r>
       <r>    7.5458    1.0000 </r>
       <r>    7.7923    1.0000 </r>
       <r>    7.9013    1.0000 </r>
       <r>    8.2956    1.0000 </r>
       <r>    8.3862    1.0000 </r>
       <r>    9.2569    1.0000 </r>
       <r>    9.3148    1.0000 </r>
       <r>    9.5042    1.0000 </r>
       <r>    9.5110    1.0000 </r>
       <r>   10.3068    1.0000 </r>
       <r>   11.4561    1.0000 </r>
       <r>   11.7983    1.0000 </r>
       <r>   11.8803    0.1772 </r>
       <r>   12.2220    0.0000 </r>
       <r>   12.4402    0.0000 </r>
       <r>   12.4849    0.0000 </r>
       <r>   12.5750    0.0000 </r>
       <r>   12.8893    0.0000 </r>
       <r>   13.7014    0.0000 </r>
       <r>   13.7232    0.0000 </r>
       <r>   13.8218    0.0000 </r>
       <r>   13.9928    0.0000 </r>
      </set>
      <set comment="kpoint 18">
       <r>  -51.1594    1.0000 </r>
       <r>  -51.1513    1.0000 </r>
       <r>  -51.0162    1.0000 </r>
       <r>  -51.0083    1.0000 </r>
       <r>  -24.9177    1.0000 </r>
       <r>  -24.9044    1.0000 </r>
       <r>  -24.6838    1.0000 </r>
       <r>  -24.6777    1.0000 </r>
       <r>  -24.6501    1.0000 </r>
       <r>  -24.6320    1.0000 </r>
       <r>  -24.4180    1.0000 </r>
       <r>  -24.3997    1.0000 </r>
       <r>  -24.3712    1.0000 </r>
       <r>  -24.3525    1.0000 </r>
       <r>  -24.3375    1.0000 </r>
       <r>  -24.3315    1.0000 </r>
       <r>   -1.1656    1.0000 </r>
       <r>   -0.8396    1.0000 </r>
       <r>    0.6280    1.0000 </r>
       <r>    1.2036    1.0000 </r>
       <r>    4.5721    1.0000 </r>
       <r>    4.6506    1.0000 </r>
       <r>    5.2780    1.0000 </r>
       <r>    6.7046    1.0000 </r>
       <r>    7.0423    1.0000 </r>
       <r>    7.1424    1.0000 </r>
       <r>    7.1786    1.0000 </r>
       <r>    7.4660    1.0000 </r>
       <r>    7.7383    1.0000 </r>
       <r>    8.4934    1.0000 </r>
       <r>    9.2179    1.0000 </r>
       <r>    9.3829    1.0000 </r>
       <r>    9.6404    1.0000 </r>
       <r>   10.0919    1.0000 </r>
       <r>   10.1135    1.0000 </r>
       <r>   10.7938    1.0000 </r>
       <r>   10.7992    1.0000 </r>
       <r>   11.2506    1.0000 </r>
       <r>   11.4785    1.0000 </r>
       <r>   11.9478    0.0000 </r>
       <r>   12.3627    0.0000 </r>
       <r>   12.3801    0.0000 </r>
       <r>   12.5836    0.0000 </r>
       <r>   12.6412    0.0000 </r>
       <r>   12.8374    0.0000 </r>
       <r>   12.8629    0.0000 </r>
       <r>   14.1407    0.0000 </r>
       <r>   14.6381    0.0000 </r>
      </set>
      <set comment="kpoint 19">
       <r>  -51.1539    1.0000 </r>
       <r>  -51.1534    1.0000 </r>
       <r>  -51.0145    1.0000 </r>
       <r>  -51.0136    1.0000 </r>
       <r>  -24.9163    1.0000 </r>
       <r>  -24.9040    1.0000 </r>
       <r>  -24.6641    1.0000 </r>
       <r>  -24.6586    1.0000 </r>
       <r>  -24.5643    1.0000 </r>
       <r>  -24.5587    1.0000 </r>
       <r>  -24.4516    1.0000 </r>
       <r>  -24.4485    1.0000 </r>
       <r>  -24.4230    1.0000 </r>
       <r>  -24.3962    1.0000 </r>
       <r>  -24.3493    1.0000 </r>
       <r>  -24.3462    1.0000 </r>
       <r>   -1.4715    1.0000 </r>
       <r>   -0.4167    1.0000 </r>
       <r>    0.6899    1.0000 </r>
       <r>    0.8452    1.0000 </r>
       <r>    4.5100    1.0000 </r>
       <r>    5.2685    1.0000 </r>
       <r>    5.2712    1.0000 </r>
       <r>    6.6394    1.0000 </r>
       <r>    6.6922    1.0000 </r>
       <r>    7.5055    1.0000 </r>
       <r>    7.5293    1.0000 </r>
       <r>    7.6536    1.0000 </r>
       <r>    8.0870    1.0000 </r>
       <r>    8.1884    1.0000 </r>
       <r>    8.8913    1.0000 </r>
       <r>    8.9548    1.0000 </r>
       <r>    9.9399    1.0000 </r>
       <r>   10.0844    1.0000 </r>
       <r>   10.5928    1.0000 </r>
       <r>   10.6479    1.0000 </r>
       <r>   10.8342    1.0000 </r>
       <r>   10.8791    1.0000 </r>
       <r>   11.4436    1.0000 </r>
       <r>   11.8656    0.5458 </r>
       <r>   11.8837    0.1220 </r>
       <r>   12.1204    0.0000 </r>
       <r>   12.2754    0.0000 </r>
       <r>   12.5166    0.0000 </r>
       <r>   13.0323    0.0000 </r>
       <r>   13.3379    0.0000 </r>
       <r>   13.4634    0.0000 </r>
       <r>   13.9874    0.0000 </r>
      </set>
      <set comment="kpoint 20">
       <r>  -51.1590    1.0000 </r>
       <r>  -51.1518    1.0000 </r>
       <r>  -51.0154    1.0000 </r>
       <r>  -51.0090    1.0000 </r>
       <r>  -24.9154    1.0000 </r>
       <r>  -24.9057    1.0000 </r>
       <r>  -24.6782    1.0000 </r>
[...]
       <r>  -50.9948    1.0000 </r>
       <r>  -24.9166    1.0000 </r>
       <r>  -24.9107    1.0000 </r>
       <r>  -24.8453    1.0000 </r>
       <r>  -24.7918    1.0000 </r>
       <r>  -24.7548    1.0000 </r>
       <r>  -24.6768    1.0000 </r>
       <r>  -24.4140    1.0000 </r>
       <r>  -24.3971    1.0000 </r>
       <r>  -24.3226    1.0000 </r>
       <r>  -24.2583    1.0000 </r>
       <r>  -24.2011    1.0000 </r>
       <r>  -24.1615    1.0000 </r>
       <r>   -1.9774    1.0000 </r>
       <r>   -0.4020    1.0000 </r>
       <r>    1.0137    1.0000 </r>
       <r>    2.2161    1.0000 </r>
       <r>    3.1012    1.0000 </r>
       <r>    4.6448    1.0000 </r>
       <r>    6.0946    1.0000 </r>
       <r>    6.2274    1.0000 </r>
       <r>    6.4207    1.0000 </r>
       <r>    6.7811    1.0000 </r>
       <r>    7.1754    1.0000 </r>
       <r>    7.5570    1.0000 </r>
       <r>    7.8157    1.0000 </r>
       <r>    8.3973    1.0000 </r>
       <r>    8.9785    1.0000 </r>
       <r>    9.3714    1.0000 </r>
       <r>    9.6960    1.0000 </r>
       <r>   10.0606    1.0000 </r>
       <r>   10.3978    1.0000 </r>
       <r>   10.5696    1.0000 </r>
       <r>   10.9008    1.0000 </r>
       <r>   11.0408    1.0000 </r>
       <r>   11.4953    1.0000 </r>
       <r>   11.7194    1.0000 </r>
       <r>   12.1260    0.0000 </r>
       <r>   12.5651    0.0000 </r>
       <r>   12.9980    0.0000 </r>
       <r>   13.1535    0.0000 </r>
       <r>   13.3521    0.0000 </r>
       <r>   13.6960    0.0000 </r>
       <r>   14.0844    0.0000 </r>
       <r>   14.3751    0.0000 </r>
      </set>
      <set comment="kpoint 165">
       <r>  -51.1658    1.0000 </r>
       <r>  -51.1516    1.0000 </r>
       <r>  -51.0154    1.0000 </r>
       <r>  -51.0023    1.0000 </r>
       <r>  -24.9129    1.0000 </r>
       <r>  -24.9107    1.0000 </r>
       <r>  -24.7418    1.0000 </r>
       <r>  -24.7384    1.0000 </r>
       <r>  -24.6995    1.0000 </r>
       <r>  -24.6839    1.0000 </r>
       <r>  -24.4196    1.0000 </r>
       <r>  -24.3954    1.0000 </r>
       <r>  -24.3205    1.0000 </r>
       <r>  -24.3040    1.0000 </r>
       <r>  -24.2704    1.0000 </r>
       <r>  -24.2670    1.0000 </r>
       <r>   -1.9149    1.0000 </r>
       <r>   -0.2606    1.0000 </r>
       <r>    0.7461    1.0000 </r>
       <r>    1.5789    1.0000 </r>
       <r>    3.6907    1.0000 </r>
       <r>    5.3872    1.0000 </r>
       <r>    5.9366    1.0000 </r>
       <r>    5.9586    1.0000 </r>
       <r>    6.7225    1.0000 </r>
       <r>    7.0645    1.0000 </r>
       <r>    7.4943    1.0000 </r>
       <r>    7.5360    1.0000 </r>
       <r>    7.7135    1.0000 </r>
       <r>    8.5588    1.0000 </r>
       <r>    8.6560    1.0000 </r>
       <r>    9.8091    1.0000 </r>
       <r>    9.8404    1.0000 </r>
       <r>    9.9593    1.0000 </r>
       <r>   10.0357    1.0000 </r>
       <r>   10.1395    1.0000 </r>
       <r>   10.7764    1.0000 </r>
       <r>   10.7866    1.0000 </r>
       <r>   11.9341    0.0000 </r>
       <r>   12.0453    0.0000 </r>
       <r>   12.1210    0.0000 </r>
       <r>   12.6357    0.0000 </r>
       <r>   12.7681    0.0000 </r>
       <r>   12.7703    0.0000 </r>
       <r>   13.4290    0.0000 </r>
       <r>   13.5879    0.0000 </r>
       <r>   13.7283    0.0000 </r>
       <r>   13.9226    0.0000 </r>
      </set>
     </set>
    </set>
   </array>
  </eigenvalues>
  <separator name="orbital magnetization" >
   <v name="MAGDIPOLOUT">      0.00000000      0.00000000      0.00000000</v>
  </separator>
  <dos>
   <i name="efermi">     11.86721458 </i>
   <total>
    <array>
     <dimension dim="1">gridpoints</dimension>
     <dimension dim="2">spin</dimension>
     <field>energy</field>
     <field>total</field>
     <field>integrated</field>
     <set>
      <set comment="spin 1">
       <r>   -54.5706     0.0000     0.0000 </r>
       <r>   -54.3229     0.0000     0.0000 </r>
       <r>   -54.0753     0.0000     0.0000 </r>
       <r>   -53.8276     0.0000     0.0000 </r>
       <r>   -53.5799     0.0000     0.0000 </r>
       <r>   -53.3323     0.0000     0.0000 </r>
       <r>   -53.0846     0.0000     0.0000 </r>
       <r>   -52.8370     0.0000     0.0000 </r>
       <r>   -52.5893     0.0000     0.0000 </r>
       <r>   -52.3416     0.0000     0.0000 </r>
       <r>   -52.0940     0.0000     0.0000 </r>
       <r>   -51.8463     0.0000     0.0000 </r>
       <r>   -51.5987     0.0000     0.0000 </r>
       <r>   -51.3510     0.0000     0.0000 </r>
       <r>   -51.1033    16.1492     3.9995 </r>
       <r>   -50.8557    15.5484     8.0000 </r>
       <r>   -50.6080     0.0000     8.0000 </r>
       <r>   -50.3604     0.0000     8.0000 </r>
       <r>   -50.1127     0.0000     8.0000 </r>
       <r>   -49.8651     0.0000     8.0000 </r>
       <r>   -49.6174     0.0000     8.0000 </r>
       <r>   -49.3697     0.0000     8.0000 </r>
       <r>   -49.1221     0.0000     8.0000 </r>
       <r>   -48.8744     0.0000     8.0000 </r>
       <r>   -48.6268     0.0000     8.0000 </r>
       <r>   -48.3791     0.0000     8.0000 </r>
       <r>   -48.1314     0.0000     8.0000 </r>
       <r>   -47.8838     0.0000     8.0000 </r>
       <r>   -47.6361     0.0000     8.0000 </r>
       <r>   -47.3885     0.0000     8.0000 </r>
       <r>   -47.1408     0.0000     8.0000 </r>
       <r>   -46.8931     0.0000     8.0000 </r>
       <r>   -46.6455     0.0000     8.0000 </r>
       <r>   -46.3978     0.0000     8.0000 </r>
       <r>   -46.1502     0.0000     8.0000 </r>
       <r>   -45.9025     0.0000     8.0000 </r>
       <r>   -45.6548     0.0000     8.0000 </r>
       <r>   -45.4072     0.0000     8.0000 </r>
       <r>   -45.1595     0.0000     8.0000 </r>
       <r>   -44.9119     0.0000     8.0000 </r>
       <r>   -44.6642     0.0000     8.0000 </r>
       <r>   -44.4166     0.0000     8.0000 </r>
       <r>   -44.1689     0.0000     8.0000 </r>
       <r>   -43.9212     0.0000     8.0000 </r>
       <r>   -43.6736     0.0000     8.0000 </r>
       <r>   -43.4259     0.0000     8.0000 </r>
       <r>   -43.1783     0.0000     8.0000 </r>
       <r>   -42.9306     0.0000     8.0000 </r>
       <r>   -42.6829     0.0000     8.0000 </r>
       <r>   -42.4353     0.0000     8.0000 </r>
       <r>   -42.1876     0.0000     8.0000 </r>
       <r>   -41.9400     0.0000     8.0000 </r>
       <r>   -41.6923     0.0000     8.0000 </r>
       <r>   -41.4446     0.0000     8.0000 </r>
       <r>   -41.1970     0.0000     8.0000 </r>
       <r>   -40.9493     0.0000     8.0000 </r>
       <r>   -40.7017     0.0000     8.0000 </r>
       <r>   -40.4540     0.0000     8.0000 </r>
       <r>   -40.2063     0.0000     8.0000 </r>
       <r>   -39.9587     0.0000     8.0000 </r>
       <r>   -39.7110     0.0000     8.0000 </r>
       <r>   -39.4634     0.0000     8.0000 </r>
       <r>   -39.2157     0.0000     8.0000 </r>
       <r>   -38.9681     0.0000     8.0000 </r>
       <r>   -38.7204     0.0000     8.0000 </r>
       <r>   -38.4727     0.0000     8.0000 </r>
       <r>   -38.2251     0.0000     8.0000 </r>
       <r>   -37.9774     0.0000     8.0000 </r>
       <r>   -37.7298     0.0000     8.0000 </r>
       <r>   -37.4821     0.0000     8.0000 </r>
       <r>   -37.2344     0.0000     8.0000 </r>
       <r>   -36.9868     0.0000     8.0000 </r>
       <r>   -36.7391     0.0000     8.0000 </r>
       <r>   -36.4915     0.0000     8.0000 </r>
       <r>   -36.2438     0.0000     8.0000 </r>
       <r>   -35.9961     0.0000     8.0000 </r>
       <r>   -35.7485     0.0000     8.0000 </r>
       <r>   -35.5008     0.0000     8.0000 </r>
       <r>   -35.2532     0.0000     8.0000 </r>
       <r>   -35.0055     0.0000     8.0000 </r>
       <r>   -34.7578     0.0000     8.0000 </r>
       <r>   -34.5102     0.0000     8.0000 </r>
       <r>   -34.2625     0.0000     8.0000 </r>
       <r>   -34.0149     0.0000     8.0000 </r>
       <r>   -33.7672     0.0000     8.0000 </r>
       <r>   -33.5196     0.0000     8.0000 </r>
       <r>   -33.2719     0.0000     8.0000 </r>
       <r>   -33.0242     0.0000     8.0000 </r>
       <r>   -32.7766     0.0000     8.0000 </r>
       <r>   -32.5289     0.0000     8.0000 </r>
       <r>   -32.2813     0.0000     8.0000 </r>
       <r>   -32.0336     0.0000     8.0000 </r>
       <r>   -31.7859     0.0000     8.0000 </r>
       <r>   -31.5383     0.0000     8.0000 </r>
       <r>   -31.2906     0.0000     8.0000 </r>
       <r>   -31.0430     0.0000     8.0000 </r>
       <r>   -30.7953     0.0000     8.0000 </r>
       <r>   -30.5476     0.0000     8.0000 </r>
       <r>   -30.3000     0.0000     8.0000 </r>
       <r>   -30.0523     0.0000     8.0000 </r>
       <r>   -29.8047     0.0000     8.0000 </r>
       <r>   -29.5570     0.0000     8.0000 </r>
       <r>   -29.3094     0.0000     8.0000 </r>
       <r>   -29.0617     0.0000     8.0000 </r>
       <r>   -28.8140     0.0000     8.0000 </r>
       <r>   -28.5664     0.0000     8.0000 </r>
       <r>   -28.3187     0.0000     8.0000 </r>
       <r>   -28.0711     0.0000     8.0000 </r>
       <r>   -27.8234     0.0000     8.0000 </r>
       <r>   -27.5757     0.0000     8.0000 </r>
       <r>   -27.3281     0.0000     8.0000 </r>
       <r>   -27.0804     0.0000     8.0000 </r>
       <r>   -26.8328     0.0000     8.0000 </r>
       <r>   -26.5851     0.0000     8.0000 </r>
       <r>   -26.3374     0.0000     8.0000 </r>
       <r>   -26.0898     0.0000     8.0000 </r>
       <r>   -25.8421     0.0000     8.0000 </r>
       <r>   -25.5945     0.0000     8.0000 </r>
       <r>   -25.3468     0.0000     8.0000 </r>
       <r>   -25.0991     0.0000     8.0000 </r>
       <r>   -24.8515    23.7109    13.8722 </r>
       <r>   -24.6038    10.6516    18.8671 </r>
       <r>   -24.3562    23.7450    25.8807 </r>
       <r>   -24.1085    15.9858    31.1951 </r>
       <r>   -23.8609     0.0000    32.0000 </r>
       <r>   -23.6132     0.0000    32.0000 </r>
       <r>   -23.3655     0.0000    32.0000 </r>
       <r>   -23.1179     0.0000    32.0000 </r>
       <r>   -22.8702     0.0000    32.0000 </r>
       <r>   -22.6226     0.0000    32.0000 </r>
       <r>   -22.3749     0.0000    32.0000 </r>
       <r>   -22.1272     0.0000    32.0000 </r>
       <r>   -21.8796     0.0000    32.0000 </r>
       <r>   -21.6319     0.0000    32.0000 </r>
       <r>   -21.3843     0.0000    32.0000 </r>
       <r>   -21.1366     0.0000    32.0000 </r>
       <r>   -20.8889     0.0000    32.0000 </r>
       <r>   -20.6413     0.0000    32.0000 </r>
       <r>   -20.3936     0.0000    32.0000 </r>
       <r>   -20.1460     0.0000    32.0000 </r>
       <r>   -19.8983     0.0000    32.0000 </r>
       <r>   -19.6506     0.0000    32.0000 </r>
       <r>   -19.4030     0.0000    32.0000 </r>
       <r>   -19.1553     0.0000    32.0000 </r>
       <r>   -18.9077     0.0000    32.0000 </r>
       <r>   -18.6600     0.0000    32.0000 </r>
       <r>   -18.4124     0.0000    32.0000 </r>
       <r>   -18.1647     0.0000    32.0000 </r>
       <r>   -17.9170     0.0000    32.0000 </r>
       <r>   -17.6694     0.0000    32.0000 </r>
       <r>   -17.4217     0.0000    32.0000 </r>
       <r>   -17.1741     0.0000    32.0000 </r>
       <r>   -16.9264     0.0000    32.0000 </r>
       <r>   -16.6787     0.0000    32.0000 </r>
       <r>   -16.4311     0.0000    32.0000 </r>
       <r>   -16.1834     0.0000    32.0000 </r>
       <r>   -15.9358     0.0000    32.0000 </r>
       <r>   -15.6881     0.0000    32.0000 </r>
       <r>   -15.4404     0.0000    32.0000 </r>
       <r>   -15.1928     0.0000    32.0000 </r>
       <r>   -14.9451     0.0000    32.0000 </r>
       <r>   -14.6975     0.0000    32.0000 </r>
       <r>   -14.4498     0.0000    32.0000 </r>
       <r>   -14.2021     0.0000    32.0000 </r>
       <r>   -13.9545     0.0000    32.0000 </r>
       <r>   -13.7068     0.0000    32.0000 </r>
       <r>   -13.4592     0.0000    32.0000 </r>
       <r>   -13.2115     0.0000    32.0000 </r>
       <r>   -12.9639     0.0000    32.0000 </r>
       <r>   -12.7162     0.0000    32.0000 </r>
       <r>   -12.4685     0.0000    32.0000 </r>
       <r>   -12.2209     0.0000    32.0000 </r>
       <r>   -11.9732     0.0000    32.0000 </r>
       <r>   -11.7256     0.0000    32.0000 </r>
       <r>   -11.4779     0.0000    32.0000 </r>
       <r>   -11.2302     0.0000    32.0000 </r>
       <r>   -10.9826     0.0000    32.0000 </r>
       <r>   -10.7349     0.0000    32.0000 </r>
       <r>   -10.4873     0.0000    32.0000 </r>
       <r>   -10.2396     0.0000    32.0000 </r>
       <r>    -9.9919     0.0000    32.0000 </r>
       <r>    -9.7443     0.0000    32.0000 </r>
       <r>    -9.4966     0.0000    32.0000 </r>
       <r>    -9.2490     0.0000    32.0000 </r>
       <r>    -9.0013     0.0000    32.0000 </r>
       <r>    -8.7536     0.0000    32.0000 </r>
       <r>    -8.5060     0.0000    32.0000 </r>
       <r>    -8.2583     0.0000    32.0000 </r>
       <r>    -8.0107     0.0000    32.0000 </r>
       <r>    -7.7630     0.0000    32.0000 </r>
       <r>    -7.5154     0.0000    32.0000 </r>
       <r>    -7.2677     0.0000    32.0000 </r>
       <r>    -7.0200     0.0000    32.0000 </r>
       <r>    -6.7724     0.0000    32.0000 </r>
       <r>    -6.5247     0.0000    32.0000 </r>
       <r>    -6.2771     0.0000    32.0000 </r>
       <r>    -6.0294     0.0000    32.0000 </r>
       <r>    -5.7817     0.0000    32.0000 </r>
       <r>    -5.5341     0.0000    32.0000 </r>
       <r>    -5.2864     0.0000    32.0000 </r>
       <r>    -5.0388     0.0000    32.0000 </r>
       <r>    -4.7911     0.0000    32.0000 </r>
       <r>    -4.5434     0.0000    32.0000 </r>
       <r>    -4.2958     0.0000    32.0000 </r>
       <r>    -4.0481     0.0000    32.0000 </r>
       <r>    -3.8005     0.0000    32.0000 </r>
       <r>    -3.5528     0.0000    32.0000 </r>
       <r>    -3.3051     0.0000    32.0000 </r>
       <r>    -3.0575     0.0000    32.0000 </r>
       <r>    -2.8098     0.0192    32.0047 </r>
       <r>    -2.5622     0.2369    32.1108 </r>
       <r>    -2.3145     0.3473    32.2631 </r>
       <r>    -2.0669     0.6268    32.4990 </r>
       <r>    -1.8192     0.7421    32.7428 </r>
       <r>    -1.5715     0.9511    33.1140 </r>
       <r>    -1.3239     1.2626    33.5523 </r>
       <r>    -1.0762     1.3493    34.1189 </r>
       <r>    -0.8286     1.4349    34.6054 </r>
       <r>    -0.5809     1.1393    35.0321 </r>
       <r>    -0.3332     1.2377    35.3968 </r>
       <r>    -0.0856     0.7542    35.6694 </r>
       <r>     0.1621     0.4355    35.8197 </r>
       <r>     0.4097     0.0930    35.9015 </r>
       <r>     0.6574     0.6613    36.0874 </r>
       <r>     0.9051     1.4259    36.6136 </r>
       <r>     1.1527     1.2655    37.0947 </r>
       <r>     1.4004     1.1537    37.7198 </r>
       <r>     1.6480     1.0101    38.1495 </r>
       <r>     1.8957     1.2669    38.7513 </r>
       <r>     2.1434     1.0348    39.0688 </r>
       <r>     2.3910     1.3226    39.5428 </r>
       <r>     2.6387     1.2145    39.9188 </r>
       <r>     2.8863     0.7969    40.2321 </r>
       <r>     3.1340     1.1780    40.7362 </r>
       <r>     3.3816     0.9421    41.0319 </r>
       <r>     3.6293     1.1654    41.5039 </r>
       <r>     3.8770     1.4096    42.0088 </r>
       <r>     4.1246     1.5964    42.5898 </r>
       <r>     4.3723     1.3920    43.1295 </r>
       <r>     4.6199     1.2515    43.6016 </r>
       <r>     4.8676     0.9909    44.0648 </r>
       <r>     5.1153     1.4396    44.5718 </r>
       <r>     5.3629     1.3053    45.0316 </r>
       <r>     5.6106     1.6233    45.5930 </r>
       <r>     5.8582     1.5183    46.1677 </r>
       <r>     6.1059     1.7503    46.8606 </r>
       <r>     6.3536     1.8305    47.6617 </r>
       <r>     6.6012     2.5773    48.4994 </r>
       <r>     6.8489     4.1553    49.8937 </r>
       <r>     7.0965     4.3908    51.6256 </r>
       <r>     7.3442     4.1460    53.4678 </r>
       <r>     7.5918     4.5660    55.1343 </r>
       <r>     7.8395     4.3283    56.6831 </r>
       <r>     8.0872     2.7470    57.7220 </r>
       <r>     8.3348     3.7558    58.9683 </r>
       <r>     8.5825     3.2457    60.1823 </r>
       <r>     8.8301     1.5377    60.8253 </r>
       <r>     9.0778     3.0565    61.8577 </r>
       <r>     9.3255     5.4459    63.7689 </r>
       <r>     9.5731     3.0263    65.1210 </r>
       <r>     9.8208     3.2147    66.3135 </r>
       <r>    10.0684     3.2824    67.4900 </r>
       <r>    10.3161     4.5765    69.0640 </r>
       <r>    10.5638     4.4474    70.6639 </r>
       <r>    10.8114     3.5713    72.0511 </r>
       <r>    11.0591     2.7412    73.3039 </r>
       <r>    11.3067     2.6500    74.3751 </r>
       <r>    11.5544     4.4123    75.9816 </r>
       <r>    11.8021     4.2248    77.5498 </r>
       <r>    12.0497     6.0212    79.6926 </r>
       <r>    12.2974     4.6332    81.7863 </r>
       <r>    12.5450     4.1350    83.5866 </r>
       <r>    12.7927     4.6480    85.3247 </r>
       <r>    13.0403     4.0966    86.9833 </r>
       <r>    13.2880     3.0716    88.2572 </r>
       <r>    13.5357     2.7729    89.3083 </r>
       <r>    13.7833     4.1142    90.7932 </r>
       <r>    14.0310     3.7643    92.3802 </r>
       <r>    14.2786     2.9922    93.6647 </r>
       <r>    14.5263     1.9465    94.5237 </r>
       <r>    14.7740     1.8456    95.2488 </r>
       <r>    15.0216     1.2300    95.7213 </r>
       <r>    15.2693     0.2338    95.8635 </r>
       <r>    15.5169     0.2522    95.9444 </r>
       <r>    15.7646     0.0561    95.9653 </r>
       <r>    16.0123     0.0561    95.9861 </r>
       <r>    16.2599     0.0000    95.9931 </r>
       <r>    16.5076     0.0280    96.0000 </r>
       <r>    16.7552     0.0000    96.0000 </r>
       <r>    17.0029     0.0000    96.0000 </r>
       <r>    17.2506     0.0000    96.0000 </r>
       <r>    17.4982     0.0000    96.0000 </r>
       <r>    17.7459     0.0000    96.0000 </r>
       <r>    17.9935     0.0000    96.0000 </r>
       <r>    18.2412     0.0000    96.0000 </r>
       <r>    18.4888     0.0000    96.0000 </r>
       <r>    18.7365     0.0000    96.0000 </r>
       <r>    18.9842     0.0000    96.0000 </r>
       <r>    19.2318     0.0000    96.0000 </r>
       <r>    19.4795     0.0000    96.0000 </r>
       <r>    19.7271     0.0000    96.0000 </r>
      </set>
     </set>
    </array>
   </total>
  </dos>
 </calculation>
 <structure name="finalpos" >
  <crystal>
   <varray name="basis" >
    <v>       4.88813626       0.00000000      -2.80399570 </v>
    <v>      -1.63984956       4.60486368      -2.80399570 </v>
    <v>       0.00000000       0.00000000       5.63527000 </v>
   </varray>
   <i name="volume">    126.84542585 </i>
   <varray name="rec_basis" >
    <v>       0.20457695       0.07285241       0.00000000 </v>
    <v>       0.00000000       0.21716169       0.00000000 </v>
    <v>       0.10179333       0.14430512       0.17745379 </v>
   </varray>
  </crystal>
  <varray name="positions" >
   <v>       0.25000000       0.75000000       0.50000000 </v>
   <v>       0.75000000       0.25000000       0.50000000 </v>
   <v>       0.50000000       0.00000000       0.50000000 </v>
   <v>       0.00000000       0.00000000       0.00000000 </v>
   <v>       0.00000000       0.50000000       0.50000000 </v>
   <v>       0.50000000       0.50000000       0.00000000 </v>
   <v>       0.00000000       0.50000000       0.00000000 </v>
   <v>       0.50000000       0.50000000       0.50000000 </v>
   <v>       0.50000000       0.00000000       0.00000000 </v>
   <v>       0.00000000       0.00000000       0.50000000 </v>
  </varray>
 </structure>
</modeling>
