 vasp.6.2.0 18Jan21 (build Jan 05 2022 15:41:44) complex                        
  
 executed on             LinuxIFC date 2025.05.07  19:20:04
 running on   24 total cores
 distrk:  each k-point on   12 cores,    2 groups
 distr:  one band on NCORE=   2 cores,    6 groups


--------------------------------------------------------------------------------------------------------


 INCAR:
   SYSTEM = routine with relax: pwdword
   ICHARG = 2
   NPAR = 6
   KPAR = 2
   NCORE = 2
   ADDGRID = T
   PREC = Acc
   ENCUT = 600
   METAGGA = R2SCAN
   LASPH = .TRUE.
   LMIXTAU = .FALSE.
   ALGO = A
   EDIFF = 1E-9
   NELM = 100
   NELMIN = 6
   IALGO = 38
   LREAL = F
   NSW = 0
   ISIF = -1
   ISMEAR = 0
   SIGMA = 0.02

 POTCAR:    PAW_PBE B 06Sep2000                   
 POTCAR:    PAW_PBE Mo_sv 02Feb2006               
 POTCAR:    PAW_PBE Si 05Jan2001                  
 -----------------------------------------------------------------------------
|                                                                             |
|           W    W    AA    RRRRR   N    N  II  N    N   GGGG   !!!           |
|           W    W   A  A   R    R  NN   N  II  NN   N  G    G  !!!           |
|           W    W  A    A  R    R  N N  N  II  N N  N  G       !!!           |
|           W WW W  AAAAAA  RRRRR   N  N N  II  N  N N  G  GGG   !            |
|           WW  WW  A    A  R   R   N   NN  II  N   NN  G    G                |
|           W    W  A    A  R    R  N    N  II  N    N   GGGG   !!!           |
|                                                                             |
|     For optimal performance we recommend to set                             |
|       NCORE = 2 up to number-of-cores-per-socket                            |
|     NCORE specifies how many cores store one orbital (NPAR=cpu/NCORE).      |
|     This setting can greatly improve the performance of VASP for DFT.       |
|     The default, NCORE=1 might be grossly inefficient on modern             |
|     multi-core architectures or massively parallel machines. Do your        |
|     own testing! More info at https://www.vasp.at/wiki/index.php/NCORE      |
|     Unfortunately you need to use the default for GW and RPA                |
|     calculations (for HF NCORE is supported but not extensively tested      |
|     yet).                                                                   |
|                                                                             |
 -----------------------------------------------------------------------------

 POTCAR:    PAW_PBE B 06Sep2000                   
   VRHFIN =B: s2p1                                                                                  
   LEXCH  = PE                                                                                      
   EATOM  =    71.1703 eV,    5.2309 Ry                                                             
                                                                                                    
   TITEL  = PAW_PBE B 06Sep2000                                                                     
   LULTRA =        F    use ultrasoft PP ?                                                          
   IUNSCR =        1    unscreen: 0-lin 1-nonlin 2-no                                               
   RPACOR =    1.200    partial core radius                                                         
   POMASS =   10.811; ZVAL   =    3.000    mass and valenz                                          
   RCORE  =    1.700    outmost cutoff radius                                                       
   RWIGS  =    1.710; RWIGS  =    0.905    wigner-seitz radius (au A)                               
   ENMAX  =  318.614; ENMIN  =  238.960 eV                                                          
   ICORE  =        2    local potential                                                             
   LCOR   =        T    correct aug charges                                                         
   LPAW   =        T    paw PP                                                                      
   EAUG   =  535.514                                                                                
   DEXC   =    0.000                                                                                
   RMAX   =    1.732    core radius for proj-oper                                                   
   RAUG   =    1.300    factor for augmentation sphere                                              
   RDEP   =    1.757    radius for radial grids                                                     
   RDEPT  =    1.436    core radius for aug-charge                                                  
                                                                                                    
   Atomic configuration                                                                             
    4 entries                                                                                       
     n  l   j            E        occ.                                                              
     1  0  0.50      -180.5896   2.0000                                                             
     2  0  0.50        -9.4431   2.0000                                                             
     2  1  0.50        -3.6068   1.0000                                                             
     3  2  1.50        -4.0817   0.0000                                                             
   Description                                                                                      
     l       E           TYP  RCUT    TYP  RCUT                                                     
     0     -9.4430752     23  1.500                                                                 
     0      0.8675899     23  1.500                                                                 
     1     -3.6067955     23  1.700                                                                 
     1      6.1086146     23  1.700                                                                 
     2     -4.0817478      7  1.700                                                                 
  local pseudopotential read in
  partial core-charges read in
  partial kinetic energy density read in
  atomic valenz-charges read in
  non local Contribution for L=           0  read in
    real space projection operators read in
  non local Contribution for L=           0  read in
    real space projection operators read in
  non local Contribution for L=           1  read in
    real space projection operators read in
  non local Contribution for L=           1  read in
    real space projection operators read in
    PAW grid and wavefunctions read in
 
   number of l-projection  operators is LMAX  =           4
   number of lm-projection operators is LMMAX =           8
 
 POTCAR:    PAW_PBE Mo_sv 02Feb2006               
   VRHFIN =Mo: 4p5s4d                                                                               
   LEXCH  = PE                                                                                      
   EATOM  =  1862.2866 eV,  136.8742 Ry                                                             
                                                                                                    
   TITEL  = PAW_PBE Mo_sv 02Feb2006                                                                 
   LULTRA =        F    use ultrasoft PP ?                                                          
   IUNSCR =        1    unscreen: 0-lin 1-nonlin 2-no                                               
   RPACOR =    2.200    partial core radius                                                         
   POMASS =   95.940; ZVAL   =   14.000    mass and valenz                                          
   RCORE  =    2.500    outmost cutoff radius                                                       
   RWIGS  =    2.750; RWIGS  =    1.455    wigner-seitz radius (au A)                               
   ENMAX  =  242.676; ENMIN  =  182.007 eV                                                          
   ICORE  =        3    local potential                                                             
   LCOR   =        T    correct aug charges                                                         
   LPAW   =        T    paw PP                                                                      
   EAUG   =  446.014                                                                                
   DEXC   =    0.000                                                                                
   RMAX   =    2.563    core radius for proj-oper                                                   
   RAUG   =    1.300    factor for augmentation sphere                                              
   RDEP   =    2.641    radius for radial grids                                                     
   RDEPT  =    2.031    core radius for aug-charge                                                  
                                                                                                    
   Atomic configuration                                                                             
   11 entries                                                                                       
     n  l   j            E        occ.                                                              
     1  0  0.50    -19819.0341   2.0000                                                             
     2  0  0.50     -2799.0127   2.0000                                                             
     2  1  1.50     -2502.0276   6.0000                                                             
     3  0  0.50      -476.4449   2.0000                                                             
     3  1  1.50      -379.1496   6.0000                                                             
     3  2  2.50      -220.9367  10.0000                                                             
     4  0  0.50       -64.3378   2.0000                                                             
     5  0  0.50        -4.0862   1.0000                                                             
     4  1  1.50       -38.4773   6.0000                                                             
     4  2  2.50        -3.7535   5.0000                                                             
     4  3  2.50        -1.3606   0.0000                                                             
   Description                                                                                      
     l       E           TYP  RCUT    TYP  RCUT                                                     
     0    -64.3377829     23  2.100                                                                 
     0     -4.0861640     23  2.400                                                                 
     1    -38.4772993     23  2.100                                                                 
     1     13.6058260     23  2.100                                                                 
     2     -3.7534941     23  2.400                                                                 
     2     -5.1140767     23  2.400                                                                 
     3     -4.0817478     23  2.500                                                                 
  local pseudopotential read in
  partial core-charges read in
  partial kinetic energy density read in
  atomic valenz-charges read in
  non local Contribution for L=           0  read in
    real space projection operators read in
  non local Contribution for L=           0  read in
    real space projection operators read in
  non local Contribution for L=           1  read in
    real space projection operators read in
  non local Contribution for L=           1  read in
    real space projection operators read in
  non local Contribution for L=           2  read in
    real space projection operators read in
  non local Contribution for L=           2  read in
    real space projection operators read in
    PAW grid and wavefunctions read in
 
   number of l-projection  operators is LMAX  =           6
   number of lm-projection operators is LMMAX =          18
 
 POTCAR:    PAW_PBE Si 05Jan2001                  
   VRHFIN =Si: s2p2                                                                                 
   LEXCH  = PE                                                                                      
   EATOM  =   103.0669 eV,    7.5752 Ry                                                             
                                                                                                    
   TITEL  = PAW_PBE Si 05Jan2001                                                                    
   LULTRA =        F    use ultrasoft PP ?                                                          
   IUNSCR =        1    unscreen: 0-lin 1-nonlin 2-no                                               
   RPACOR =    1.500    partial core radius                                                         
   POMASS =   28.085; ZVAL   =    4.000    mass and valenz                                          
   RCORE  =    1.900    outmost cutoff radius                                                       
   RWIGS  =    2.480; RWIGS  =    1.312    wigner-seitz radius (au A)                               
   ENMAX  =  245.345; ENMIN  =  184.009 eV                                                          
   ICORE  =        2    local potential                                                             
   LCOR   =        T    correct aug charges                                                         
   LPAW   =        T    paw PP                                                                      
   EAUG   =  322.069                                                                                
   DEXC   =    0.000                                                                                
   RMAX   =    1.950    core radius for proj-oper                                                   
   RAUG   =    1.300    factor for augmentation sphere                                              
   RDEP   =    1.993    radius for radial grids                                                     
   RDEPT  =    1.837    core radius for aug-charge                                                  
                                                                                                    
   Atomic configuration                                                                             
    6 entries                                                                                       
     n  l   j            E        occ.                                                              
     1  0  0.50     -1785.8828   2.0000                                                             
     2  0  0.50      -139.4969   2.0000                                                             
     2  1  1.50       -95.5546   6.0000                                                             
     3  0  0.50       -10.8127   2.0000                                                             
     3  1  0.50        -4.0811   2.0000                                                             
     3  2  1.50        -4.0817   0.0000                                                             
   Description                                                                                      
     l       E           TYP  RCUT    TYP  RCUT                                                     
     0    -10.8127223     23  1.900                                                                 
     0     -7.6451159     23  1.900                                                                 
     1     -4.0811372     23  1.900                                                                 
     1      2.4879257     23  1.900                                                                 
     2     -4.0817478      7  1.900                                                                 
  local pseudopotential read in
  partial core-charges read in
  partial kinetic energy density read in
  atomic valenz-charges read in
  non local Contribution for L=           0  read in
    real space projection operators read in
  non local Contribution for L=           0  read in
    real space projection operators read in
  non local Contribution for L=           1  read in
    real space projection operators read in
  non local Contribution for L=           1  read in
    real space projection operators read in
    PAW grid and wavefunctions read in
 
   number of l-projection  operators is LMAX  =           4
   number of lm-projection operators is LMMAX =           8
 
  PAW_PBE B 06Sep2000                   :
 energy of atom  1       EATOM=  -71.1703
 kinetic energy error for atom=    0.0007 (will be added to EATOM!!)
  PAW_PBE Mo_sv 02Feb2006               :
 energy of atom  2       EATOM=-1862.2866
 kinetic energy error for atom=    0.0041 (will be added to EATOM!!)
  PAW_PBE Si 05Jan2001                  :
 energy of atom  3       EATOM= -103.0669
 kinetic energy error for atom=    0.0003 (will be added to EATOM!!)
 
 
 POSCAR: EA182
  positions in direct lattice
  No initial velocities read in

 METAGGA = R2SCA    LMAXTAU =  6    LMIXTAU =  F

 exchange correlation table for  LEXCH =        8
   RHO(1)=    0.500       N(1)  =     2000
   RHO(2)=  100.500       N(2)  =     4000
 


--------------------------------------------------------------------------------------------------------


 ion  position               nearest neighbor table
   1  0.242  0.258  0.500-   6 2.20   8 2.27   5 2.27   7 2.34
   2  0.758  0.742  0.500-   6 2.20   5 2.27   8 2.27   7 2.34
   3  0.258  0.758  0.016-   7 2.20   5 2.27   8 2.27   6 2.34
   4  0.742  0.242  0.984-   7 2.20   5 2.27   8 2.27   6 2.34
   5  0.000  0.000  0.000-   9 2.25  10 2.25   3 2.27   4 2.27   1 2.27   2 2.27   7 3.21   6 3.21
                             6 3.21   7 3.21
   6  0.000  0.500  0.500-   1 2.20   2 2.20   3 2.34   4 2.34   8 3.21   5 3.21   5 3.21   8 3.21

   7  0.500  0.000  0.500-   3 2.20   4 2.20   1 2.34   2 2.34   5 3.21   8 3.21   8 3.21   5 3.21

   8  0.500  0.500  0.000-   9 2.25  10 2.25   3 2.27   4 2.27   2 2.27   1 2.27   7 3.21   6 3.21
                             7 3.21   6 3.21
   9  0.250  0.250  0.000-   5 2.25   8 2.25
  10  0.750  0.750  0.000-   5 2.25   8 2.25
 
  LATTYP: Found a body centered tetragonal cell.
 ALAT       =     6.4166961483
 C/A-ratio  =     1.4006231937
  
  Lattice vectors:
  
 A1 = (   5.5480689523,   0.0000000000,  -3.1621247391)
 A2 = (  -1.8732092433,   5.2222750052,  -3.1621247391)
 A3 = (   0.0000000000,   0.0000000000,   6.3859300000)


Analysis of symmetry for initial positions (statically):
=====================================================================
 Subroutine PRICEL returns:
 Original cell was already a primitive cell.
 

 Routine SETGRP: Setting up the symmetry group for a 
 body centered tetragonal supercell.


 Subroutine GETGRP returns: Found 16 space group operations
 (whereof  8 operations were pure point group operations)
 out of a pool of 16 trial point group operations.


The static configuration has the point symmetry C_4h.
 The point group associated with its full space group is D_4h.


Analysis of symmetry for dynamics (positions and initial velocities):
=====================================================================
 Subroutine PRICEL returns:
 Original cell was already a primitive cell.
 

 Routine SETGRP: Setting up the symmetry group for a 
 body centered tetragonal supercell.


 Subroutine GETGRP returns: Found 16 space group operations
 (whereof  8 operations were pure point group operations)
 out of a pool of 16 trial point group operations.


The dynamic configuration has the point symmetry C_4h.
 The point group associated with its full space group is D_4h.


 Subroutine INISYM returns: Found 16 space group operations
 (whereof  8 operations are pure point group operations),
 and found     1 'primitive' translations


----------------------------------------------------------------------------------------

                                     Primitive cell                                     

  volume of cell :     185.0230

  direct lattice vectors                    reciprocal lattice vectors
     5.548068952  0.000000000 -3.162124739     0.180242893  0.064652408  0.000000000
    -1.873209243  5.222275005 -3.162124739     0.000000000  0.191487426  0.000000000
     0.000000000  0.000000000  6.385930000     0.089250980  0.126832913  0.156594263

  length of vectors
     6.385930000  6.385930000  6.385930000     0.191487426  0.191487426  0.220395300

  position of ions in fractional coordinates (direct lattice)
     0.241940000  0.258060000  0.500000000
     0.758060000  0.741940000  0.500000000
     0.258060000  0.758060000  0.016120000
     0.741940000  0.241940000  0.983880000
     0.000000000  0.000000000  0.000000000
     0.000000000  0.500000000  0.500000000
     0.500000000  0.000000000  0.500000000
     0.500000000  0.500000000  1.000000000
     0.250000000  0.250000000  1.000000000
     0.750000000  0.750000000  1.000000000

  ion indices of the primitive-cell ions
   primitive index   ion index
                 1           1
                 2           2
                 3           3
                 4           4
                 5           5
                 6           6
                 7           7
                 8           8
                 9           9
                10          10

----------------------------------------------------------------------------------------

 
 
 KPOINTS: EA                                      

Automatic generation of k-mesh.
 Grid dimensions read from file:
 generate k-points for:    7    7    8

 Generating k-lattice:

  Cartesian coordinates                     Fractional coordinates (reciprocal lattice)
     0.025748985  0.009236058  0.000000000     0.142857143 -0.000000000  0.000000000
     0.000000000  0.027355347  0.000000000     0.000000000  0.142857143  0.000000000
     0.011156373  0.015854114  0.019574283     0.000000000 -0.000000000  0.125000000

  Length of vectors
     0.027355347  0.027355347  0.027549413

  Shift w.r.t. Gamma in fractional coordinates (k-lattice)
     0.000000000  0.000000000  0.000000000

 -----------------------------------------------------------------------------
|                                                                             |
|           W    W    AA    RRRRR   N    N  II  N    N   GGGG   !!!           |
|           W    W   A  A   R    R  NN   N  II  NN   N  G    G  !!!           |
|           W    W  A    A  R    R  N N  N  II  N N  N  G       !!!           |
|           W WW W  AAAAAA  RRRRR   N  N N  II  N  N N  G  GGG   !            |
|           WW  WW  A    A  R   R   N   NN  II  N   NN  G    G                |
|           W    W  A    A  R    R  N    N  II  N    N   GGGG   !!!           |
|                                                                             |
|     Your reciprocal lattice and k-lattice belong to different lattice       |
|     classes:                                                                |
|                                                                             |
|        The reciprocal lattice is body-centered tetragonal,                  |
|        whereas your k-lattice is base-centered monoclinic.                  |
|                                                                             |
|     Results are often still useful ...                                      |
|                                                                             |
 -----------------------------------------------------------------------------

 WARNING: IBZKPT: internal override: KBLOWUP is changed to .FALSE.
      ... skipping the blow-up phase ...

 
 Subroutine IBZKPT returns following result:
 ===========================================
 
 Found    116 irreducible k-points:
 
 Following reciprocal coordinates:
            Coordinates               Weight
  0.000000  0.000000  0.000000      1.000000
  0.142857  0.000000  0.000000      4.000000
  0.285714  0.000000  0.000000      4.000000
  0.428571 -0.000000  0.000000      4.000000
  0.142857  0.142857  0.000000      2.000000
  0.285714  0.142857  0.000000      4.000000
  0.428571  0.142857  0.000000      4.000000
 -0.428571  0.142857  0.000000      4.000000
 -0.285714  0.142857  0.000000      4.000000
 -0.142857  0.142857  0.000000      2.000000
  0.285714  0.285714  0.000000      2.000000
  0.428571  0.285714  0.000000      4.000000
 -0.428571  0.285714  0.000000      4.000000
 -0.285714  0.285714  0.000000      2.000000
  0.428571  0.428571  0.000000      2.000000
 -0.428571  0.428571  0.000000      2.000000
  0.000000 -0.000000  0.125000      2.000000
  0.142857 -0.000000  0.125000      4.000000
  0.285714 -0.000000  0.125000      4.000000
  0.428571  0.000000  0.125000      4.000000
 -0.428571 -0.000000  0.125000      4.000000
 -0.285714 -0.000000  0.125000      4.000000
 -0.142857 -0.000000  0.125000      4.000000
  0.142857  0.142857  0.125000      2.000000
  0.285714  0.142857  0.125000      4.000000
  0.428571  0.142857  0.125000      4.000000
 -0.428571  0.142857  0.125000      4.000000
 -0.285714  0.142857  0.125000      4.000000
 -0.142857  0.142857  0.125000      4.000000
  0.285714  0.285714  0.125000      2.000000
  0.428571  0.285714  0.125000      4.000000
 -0.428571  0.285714  0.125000      4.000000
 -0.285714  0.285714  0.125000      4.000000
 -0.142857  0.285714  0.125000      4.000000
  0.428571  0.428571  0.125000      2.000000
 -0.428571  0.428571  0.125000      4.000000
 -0.285714  0.428571  0.125000      4.000000
 -0.142857  0.428571  0.125000      4.000000
 -0.428571 -0.428571  0.125000      2.000000
 -0.285714 -0.428571  0.125000      4.000000
 -0.142857 -0.428571  0.125000      4.000000
 -0.285714 -0.285714  0.125000      2.000000
 -0.142857 -0.285714  0.125000      4.000000
 -0.142857 -0.142857  0.125000      2.000000
  0.000000 -0.000000  0.250000      2.000000
  0.142857 -0.000000  0.250000      4.000000
  0.285714 -0.000000  0.250000      4.000000
  0.428571  0.000000  0.250000      4.000000
 -0.428571  0.000000  0.250000      4.000000
 -0.285714 -0.000000  0.250000      4.000000
 -0.142857  0.000000  0.250000      4.000000
  0.142857  0.142857  0.250000      2.000000
  0.285714  0.142857  0.250000      4.000000
  0.428571  0.142857  0.250000      4.000000
 -0.428571  0.142857  0.250000      4.000000
 -0.285714  0.142857  0.250000      4.000000
 -0.142857  0.142857  0.250000      4.000000
  0.285714  0.285714  0.250000      2.000000
  0.428571  0.285714  0.250000      4.000000
 -0.428571  0.285714  0.250000      4.000000
 -0.285714  0.285714  0.250000      4.000000
 -0.142857  0.285714  0.250000      4.000000
  0.428571  0.428571  0.250000      2.000000
 -0.428571  0.428571  0.250000      4.000000
 -0.285714  0.428571  0.250000      4.000000
 -0.142857  0.428571  0.250000      4.000000
 -0.428571 -0.428571  0.250000      2.000000
 -0.285714 -0.428571  0.250000      4.000000
 -0.142857 -0.428571  0.250000      4.000000
 -0.285714 -0.285714  0.250000      2.000000
 -0.142857 -0.285714  0.250000      4.000000
 -0.142857 -0.142857  0.250000      2.000000
  0.000000  0.000000  0.375000      2.000000
  0.142857  0.000000  0.375000      4.000000
  0.285714 -0.000000  0.375000      4.000000
  0.428571  0.000000  0.375000      4.000000
 -0.428571 -0.000000  0.375000      4.000000
 -0.285714  0.000000  0.375000      4.000000
 -0.142857 -0.000000  0.375000      4.000000
  0.142857  0.142857  0.375000      2.000000
  0.285714  0.142857  0.375000      4.000000
  0.428571  0.142857  0.375000      4.000000
 -0.428571  0.142857  0.375000      4.000000
 -0.285714  0.142857  0.375000      4.000000
 -0.142857  0.142857  0.375000      4.000000
  0.285714  0.285714  0.375000      2.000000
  0.428571  0.285714  0.375000      4.000000
 -0.428571  0.285714  0.375000      4.000000
 -0.285714  0.285714  0.375000      4.000000
 -0.142857  0.285714  0.375000      4.000000
  0.428571  0.428571  0.375000      2.000000
 -0.428571  0.428571  0.375000      4.000000
 -0.285714  0.428571  0.375000      4.000000
 -0.142857  0.428571  0.375000      4.000000
 -0.428571 -0.428571  0.375000      2.000000
 -0.285714 -0.428571  0.375000      4.000000
 -0.142857 -0.428571  0.375000      4.000000
 -0.285714 -0.285714  0.375000      2.000000
 -0.142857 -0.285714  0.375000      4.000000
 -0.142857 -0.142857  0.375000      2.000000
  0.000000 -0.000000  0.500000      1.000000
  0.142857  0.000000  0.500000      4.000000
  0.285714 -0.000000  0.500000      4.000000
  0.428571  0.000000  0.500000      4.000000
  0.142857  0.142857  0.500000      2.000000
  0.285714  0.142857  0.500000      4.000000
  0.428571  0.142857  0.500000      4.000000
 -0.428571  0.142857  0.500000      4.000000
 -0.285714  0.142857  0.500000      4.000000
 -0.142857  0.142857  0.500000      2.000000
  0.285714  0.285714  0.500000      2.000000
  0.428571  0.285714  0.500000      4.000000
 -0.428571  0.285714  0.500000      4.000000
 -0.285714  0.285714  0.500000      2.000000
  0.428571  0.428571  0.500000      2.000000
 -0.428571  0.428571  0.500000      2.000000
 
 Following cartesian coordinates:
            Coordinates               Weight
  0.000000  0.000000  0.000000      1.000000
  0.025749  0.009236  0.000000      4.000000
  0.051498  0.018472  0.000000      4.000000
  0.077247  0.027708  0.000000      4.000000
  0.025749  0.036591  0.000000      2.000000
  0.051498  0.045827  0.000000      4.000000
  0.077247  0.055064  0.000000      4.000000
 -0.077247 -0.000353  0.000000      4.000000
 -0.051498  0.008883  0.000000      4.000000
 -0.025749  0.018119  0.000000      2.000000
  0.051498  0.073183  0.000000      2.000000
  0.077247  0.082419  0.000000      4.000000
 -0.077247  0.027003  0.000000      4.000000
 -0.051498  0.036239  0.000000      2.000000
  0.077247  0.109774  0.000000      2.000000
 -0.077247  0.054358  0.000000      2.000000
  0.011156  0.015854  0.019574      2.000000
  0.036905  0.025090  0.019574      4.000000
  0.062654  0.034326  0.019574      4.000000
  0.088403  0.043562  0.019574      4.000000
 -0.066091 -0.011854  0.019574      4.000000
 -0.040342 -0.002618  0.019574      4.000000
 -0.014593  0.006618  0.019574      4.000000
  0.036905  0.052446  0.019574      2.000000
  0.062654  0.061682  0.019574      4.000000
  0.088403  0.070918  0.019574      4.000000
 -0.066091  0.015501  0.019574      4.000000
 -0.040342  0.024737  0.019574      4.000000
 -0.014593  0.033973  0.019574      4.000000
  0.062654  0.089037  0.019574      2.000000
  0.088403  0.098273  0.019574      4.000000
 -0.066091  0.042857  0.019574      4.000000
 -0.040342  0.052093  0.019574      4.000000
 -0.014593  0.061329  0.019574      4.000000
  0.088403  0.125628  0.019574      2.000000
 -0.066091  0.070212  0.019574      4.000000
 -0.040342  0.079448  0.019574      4.000000
 -0.014593  0.088684  0.019574      4.000000
 -0.066091 -0.093920  0.019574      2.000000
 -0.040342 -0.084684  0.019574      4.000000
 -0.014593 -0.075448  0.019574      4.000000
 -0.040342 -0.057329  0.019574      2.000000
 -0.014593 -0.048093  0.019574      4.000000
 -0.014593 -0.020737  0.019574      2.000000
  0.022313  0.031708  0.039149      2.000000
  0.048062  0.040944  0.039149      4.000000
  0.073811  0.050180  0.039149      4.000000
  0.099560  0.059416  0.039149      4.000000
 -0.054934  0.004000  0.039149      4.000000
 -0.029185  0.013236  0.039149      4.000000
 -0.003436  0.022472  0.039149      4.000000
  0.048062  0.068300  0.039149      2.000000
  0.073811  0.077536  0.039149      4.000000
  0.099560  0.086772  0.039149      4.000000
 -0.054934  0.031355  0.039149      4.000000
 -0.029185  0.040591  0.039149      4.000000
 -0.003436  0.049828  0.039149      4.000000
  0.073811  0.104891  0.039149      2.000000
  0.099560  0.114127  0.039149      4.000000
 -0.054934  0.058711  0.039149      4.000000
 -0.029185  0.067947  0.039149      4.000000
 -0.003436  0.077183  0.039149      4.000000
  0.099560  0.141482  0.039149      2.000000
 -0.054934  0.086066  0.039149      4.000000
 -0.029185  0.095302  0.039149      4.000000
 -0.003436  0.104538  0.039149      4.000000
 -0.054934 -0.078066  0.039149      2.000000
 -0.029185 -0.068830  0.039149      4.000000
 -0.003436 -0.059594  0.039149      4.000000
 -0.029185 -0.041475  0.039149      2.000000
 -0.003436 -0.032239  0.039149      4.000000
 -0.003436 -0.004883  0.039149      2.000000
  0.033469  0.047562  0.058723      2.000000
  0.059218  0.056798  0.058723      4.000000
  0.084967  0.066034  0.058723      4.000000
  0.110716  0.075271  0.058723      4.000000
 -0.043778  0.019854  0.058723      4.000000
 -0.018029  0.029090  0.058723      4.000000
  0.007720  0.038326  0.058723      4.000000
  0.059218  0.084154  0.058723      2.000000
  0.084967  0.093390  0.058723      4.000000
  0.110716  0.102626  0.058723      4.000000
 -0.043778  0.047210  0.058723      4.000000
 -0.018029  0.056446  0.058723      4.000000
  0.007720  0.065682  0.058723      4.000000
  0.084967  0.120745  0.058723      2.000000
  0.110716  0.129981  0.058723      4.000000
 -0.043778  0.074565  0.058723      4.000000
 -0.018029  0.083801  0.058723      4.000000
  0.007720  0.093037  0.058723      4.000000
  0.110716  0.157337  0.058723      2.000000
 -0.043778  0.101920  0.058723      4.000000
 -0.018029  0.111156  0.058723      4.000000
  0.007720  0.120392  0.058723      4.000000
 -0.043778 -0.062212  0.058723      2.000000
 -0.018029 -0.052976  0.058723      4.000000
  0.007720 -0.043740  0.058723      4.000000
 -0.018029 -0.025620  0.058723      2.000000
  0.007720 -0.016384  0.058723      4.000000
  0.007720  0.010971  0.058723      2.000000
  0.044625  0.063416  0.078297      1.000000
  0.070374  0.072653  0.078297      4.000000
  0.096123  0.081889  0.078297      4.000000
  0.121872  0.091125  0.078297      4.000000
  0.070374  0.100008  0.078297      2.000000
  0.096123  0.109244  0.078297      4.000000
  0.121872  0.118480  0.078297      4.000000
 -0.032621  0.063064  0.078297      4.000000
 -0.006872  0.072300  0.078297      4.000000
  0.018877  0.081536  0.078297      2.000000
  0.096123  0.136599  0.078297      2.000000
  0.121872  0.145835  0.078297      4.000000
 -0.032621  0.090419  0.078297      4.000000
 -0.006872  0.099655  0.078297      2.000000
  0.121872  0.173191  0.078297      2.000000
 -0.032621  0.117774  0.078297      2.000000
 


--------------------------------------------------------------------------------------------------------




 Dimension of arrays:
   k-points           NKPTS =    116   k-points in BZ     NKDIM =    116   number of bands    NBANDS=     48
   number of dos      NEDOS =    301   number of ions     NIONS =     10
   non local maximal  LDIM  =      6   non local SUM 2l+1 LMDIM =     18
   total plane-waves  NPLWV = 157464
   max r-space proj   IRMAX =      1   max aug-charges    IRDMAX= 297907
   dimension x,y,z NGX =    54 NGY =   54 NGZ =   54
   dimension x,y,z NGXF=   108 NGYF=  108 NGZF=  108
   support grid    NGXF=   216 NGYF=  216 NGZF=  216
   ions per type =               4   4   2
   NGX,Y,Z   is equivalent  to a cutoff of  14.06, 14.06, 14.06 a.u.
   NGXF,Y,Z  is equivalent  to a cutoff of  28.12, 28.12, 28.12 a.u.

 SYSTEM =  routine with relax: pwdword             
 POSCAR =  EA182                                   

 Startparameter for this run:
   NWRITE =      2    write-flag & timer
   PREC   = acc       normal or accurate (medium, high low for compatibility)
   ISTART =      0    job   : 0-new  1-cont  2-samecut
   ICHARG =      2    charge: 1-file 2-atom 10-const
   ISPIN  =      1    spin polarized calculation?
   LNONCOLLINEAR =      F non collinear calculations
   LSORBIT =      F    spin-orbit coupling
   INIWAV =      1    electr: 0-lowe 1-rand  2-diag
   LASPH  =      T    aspherical Exc in radial PAW
   METAGGA=      F    non-selfconsistent MetaGGA calc.

 Electronic Relaxation 1
   ENCUT  =  600.0 eV  44.10 Ry    6.64 a.u.  12.75 12.75 12.75*2*pi/ulx,y,z
   ENINI  =  600.0     initial cutoff
   ENAUG  =  535.5 eV  augmentation charge cutoff
   NELM   =    100;   NELMIN=  6; NELMDL= -5     # of ELM steps 
   EDIFF  = 0.1E-08   stopping-criterion for ELM
   LREAL  =      F    real-space projection
   NLSPLINE    = F    spline interpolate recip. space projectors
   LCOMPAT=      F    compatible to vasp.4.4
   GGA_COMPAT  = T    GGA compatible to vasp.4.4-vasp.4.6
   LMAXPAW     = -100 max onsite density
   LMAXMIX     =    2 max onsite mixed and CHGCAR
   VOSKOWN=      0    Vosko Wilk Nusair interpolation
   ROPT   =    0.00000   0.00000   0.00000
 Ionic relaxation
   EDIFFG = 0.1E-07   stopping-criterion for IOM
   NSW    =      0    number of steps for IOM
   NBLOCK =      1;   KBLOCK =      1    inner block; outer block 
   IBRION =     -1    ionic relax: 0-MD 1-quasi-New 2-CG
   NFREE  =      0    steps in history (QN), initial steepest desc. (CG)
   ISIF   =     -1    stress and relaxation
   IWAVPR =     10    prediction:  0-non 1-charg 2-wave 3-comb
   ISYM   =      2    0-nonsym 1-usesym 2-fastsym
   LCORR  =      T    Harris-Foulkes like correction to forces

   POTIM  = 0.5000    time-step for ionic-motion
   TEIN   =    0.0    initial temperature
   TEBEG  =    0.0;   TEEND  =   0.0 temperature during run
   SMASS  =  -3.00    Nose mass-parameter (am)
   estimated Nose-frequenzy (Omega)   =  0.10E-29 period in steps = 0.13E+47 mass=  -0.932E-27a.u.
   SCALEE = 1.0000    scale energy and forces
   NPACO  =    256;   APACO  = 16.0  distance and # of slots for P.C.
   PSTRESS=    0.0 pullay stress

  Mass of Ions in am
   POMASS =  10.81 95.94 28.09
  Ionic Valenz
   ZVAL   =   3.00 14.00  4.00
  Atomic Wigner-Seitz radii
   RWIGS  =  -1.00 -1.00 -1.00
  virtual crystal weights 
   VCA    =   1.00  1.00  1.00
   NELECT =      76.0000    total number of electrons
   NUPDOWN=      -1.0000    fix difference up-down

 DOS related values:
   EMIN   =  10.00;   EMAX   =-10.00  energy-range for DOS
   EFERMI =   0.00
   ISMEAR =     0;   SIGMA  =   0.02  broadening in eV -4-tet -1-fermi 0-gaus

 Electronic relaxation 2 (details)
   IALGO  =     58    algorithm
   LDIAG  =      T    sub-space diagonalisation (order eigenvalues)
   LSUBROT=      F    optimize rotation matrix (better conditioning)
   TURBO    =      0    0=normal 1=particle mesh
   IRESTART =      0    0=no restart 2=restart with 2 vectors
   NREBOOT  =      0    no. of reboots
   NMIN     =      0    reboot dimension
   EREF     =   0.00    reference energy to select bands
   IMIX   =      4    mixing-type and parameters
     AMIX     =   0.40;   BMIX     =  1.00
     AMIX_MAG =   1.60;   BMIX_MAG =  1.00
     AMIN     =   0.10
     WC   =   100.;   INIMIX=   1;  MIXPRE=   1;  MAXMIX= -45

 Intra band minimization:
   WEIMIN = 0.0000     energy-eigenvalue tresh-hold
   EBREAK =  0.52E-11  absolut break condition
   DEPER  =   0.30     relativ break condition  

   TIME   =   0.40     timestep for ELM

  volume/ion in A,a.u.               =      18.50       124.86
  Fermi-wavevector in a.u.,A,eV,Ry     =   1.216945  2.299692 20.149602  1.480954
  Thomas-Fermi vector in A             =   2.352281
 
 Write flags
   LWAVE        =      T    write WAVECAR
   LDOWNSAMPLE  =      F    k-point downsampling of WAVECAR
   LCHARG       =      T    write CHGCAR
   LVTOT        =      F    write LOCPOT, total local potential
   LVHAR        =      F    write LOCPOT, Hartree potential only
   LELF         =      F    write electronic localiz. function (ELF)
   LORBIT       =      0    0 simple, 1 ext, 2 COOP (PROOUT), +10 PAW based schemes


 Dipole corrections
   LMONO  =      F    monopole corrections only (constant potential shift)
   LDIPOL =      F    correct potential (dipole corrections)
   IDIPOL =      0    1-x, 2-y, 3-z, 4-all directions 
   EPSILON=  1.0000000 bulk dielectric constant

 Exchange correlation treatment:
   GGA     =    --    GGA type
   LEXCH   =     8    internal setting for exchange type
   VOSKOWN=      0    Vosko Wilk Nusair interpolation
   LHFCALC =     F    Hartree Fock is set to
   LHFONE  =     F    Hartree Fock one center treatment
   AEXX    =    0.0000 exact exchange contribution

 Linear response parameters
   LEPSILON=     F    determine dielectric tensor
   LRPA    =     F    only Hartree local field effects (RPA)
   LNABLA  =     F    use nabla operator in PAW spheres
   LVEL    =     F    velocity operator in full k-point grid
   LINTERFAST=   F  fast interpolation
   KINTER  =     0    interpolate to denser k-point grid
   CSHIFT  =0.1000    complex shift for real part using Kramers Kronig
   OMEGAMAX=  -1.0    maximum frequency
   DEG_THRESHOLD= 0.2000000E-02 threshold for treating states as degnerate
   RTIME   =   -0.100 relaxation time in fs
  (WPLASMAI=    0.000 imaginary part of plasma frequency in eV, 0.658/RTIME)
   DFIELD  = 0.0000000 0.0000000 0.0000000 field for delta impulse in time
 
 Orbital magnetization related:
   ORBITALMAG=     F  switch on orbital magnetization
   LCHIMAG   =     F  perturbation theory with respect to B field
   DQ        =  0.001000  dq finite difference perturbation B field
   LLRAUG    =     F  two centre corrections for induced B field



--------------------------------------------------------------------------------------------------------


 Static calculation
 charge density and potential will be updated during run
 non-spin polarized calculation
 Conjugate gradient for all bands (Freysoldt, et al. PRB 79, 241103 (2009))
 preconditioned conjugated gradient                                        
 perform sub-space diagonalisation
    before iterative eigenvector-optimisation
 modified Broyden-mixing scheme, WC =      100.0
 initial mixing is a Kerker type mixing with AMIX =  0.4000 and BMIX =      1.0000
 Hartree-type preconditioning will be used
 using additional bands           10
 reciprocal scheme for non local part
 use partial core corrections
 no Harris-corrections to forces 
 use gradient corrections 
 use of overlap-Matrix (Vanderbilt PP)
 Gauss-broadening in eV      SIGMA  =   0.02


--------------------------------------------------------------------------------------------------------


  energy-cutoff  :      600.00
  volume of cell :      185.02
      direct lattice vectors                 reciprocal lattice vectors
     5.548068952  0.000000000 -3.162124739     0.180242893  0.064652408  0.000000000
    -1.873209243  5.222275005 -3.162124739     0.000000000  0.191487426  0.000000000
     0.000000000  0.000000000  6.385930000     0.089250980  0.126832913  0.156594263

  length of vectors
     6.385930000  6.385930000  6.385930000     0.191487426  0.191487426  0.220395300


 
 k-points in units of 2pi/SCALE and weight: EA                                      
   0.00000000  0.00000000  0.00000000       0.003
   0.02574898  0.00923606  0.00000000       0.010
   0.05149797  0.01847212  0.00000000       0.010
   0.07724695  0.02770817  0.00000000       0.010
   0.02574898  0.03659140  0.00000000       0.005
   0.05149797  0.04582746  0.00000000       0.010
   0.07724695  0.05506352  0.00000000       0.010
  -0.07724695 -0.00035283  0.00000000       0.010
  -0.05149797  0.00888323  0.00000000       0.010
  -0.02574898  0.01811929  0.00000000       0.005
   0.05149797  0.07318281  0.00000000       0.005
   0.07724695  0.08241887  0.00000000       0.010
  -0.07724695  0.02700252  0.00000000       0.010
  -0.05149797  0.03623858  0.00000000       0.005
   0.07724695  0.10977421  0.00000000       0.005
  -0.07724695  0.05435787  0.00000000       0.005
   0.01115637  0.01585411  0.01957428       0.005
   0.03690536  0.02509017  0.01957428       0.010
   0.06265434  0.03432623  0.01957428       0.010
   0.08840333  0.04356229  0.01957428       0.010
  -0.06609058 -0.01185406  0.01957428       0.010
  -0.04034160 -0.00261800  0.01957428       0.010
  -0.01459261  0.00661806  0.01957428       0.010
   0.03690536  0.05244552  0.01957428       0.005
   0.06265434  0.06168158  0.01957428       0.010
   0.08840333  0.07091764  0.01957428       0.010
  -0.06609058  0.01550129  0.01957428       0.010
  -0.04034160  0.02473734  0.01957428       0.010
  -0.01459261  0.03397340  0.01957428       0.010
   0.06265434  0.08903692  0.01957428       0.005
   0.08840333  0.09827298  0.01957428       0.010
  -0.06609058  0.04285663  0.01957428       0.010
  -0.04034160  0.05209269  0.01957428       0.010
  -0.01459261  0.06132875  0.01957428       0.010
   0.08840333  0.12562833  0.01957428       0.005
  -0.06609058  0.07021198  0.01957428       0.010
  -0.04034160  0.07944804  0.01957428       0.010
  -0.01459261  0.08868410  0.01957428       0.010
  -0.06609058 -0.09392010  0.01957428       0.005
  -0.04034160 -0.08468404  0.01957428       0.010
  -0.01459261 -0.07544798  0.01957428       0.010
  -0.04034160 -0.05732870  0.01957428       0.005
  -0.01459261 -0.04809264  0.01957428       0.010
  -0.01459261 -0.02073729  0.01957428       0.005
   0.02231275  0.03170823  0.03914857       0.005
   0.04806173  0.04094429  0.03914857       0.010
   0.07381071  0.05018034  0.03914857       0.010
   0.09955970  0.05941640  0.03914857       0.010
  -0.05493421  0.00400005  0.03914857       0.010
  -0.02918522  0.01323611  0.03914857       0.010
  -0.00343624  0.02247217  0.03914857       0.010
   0.04806173  0.06829963  0.03914857       0.005
   0.07381071  0.07753569  0.03914857       0.010
   0.09955970  0.08677175  0.03914857       0.010
  -0.05493421  0.03135540  0.03914857       0.010
  -0.02918522  0.04059146  0.03914857       0.010
  -0.00343624  0.04982752  0.03914857       0.010
   0.07381071  0.10489104  0.03914857       0.005
   0.09955970  0.11412710  0.03914857       0.010
  -0.05493421  0.05871075  0.03914857       0.010
  -0.02918522  0.06794681  0.03914857       0.010
  -0.00343624  0.07718286  0.03914857       0.010
   0.09955970  0.14148244  0.03914857       0.005
  -0.05493421  0.08606609  0.03914857       0.010
  -0.02918522  0.09530215  0.03914857       0.010
  -0.00343624  0.10453821  0.03914857       0.010
  -0.05493421 -0.07806599  0.03914857       0.005
  -0.02918522 -0.06882993  0.03914857       0.010
  -0.00343624 -0.05959387  0.03914857       0.010
  -0.02918522 -0.04147458  0.03914857       0.005
  -0.00343624 -0.03223852  0.03914857       0.010
  -0.00343624 -0.00488318  0.03914857       0.005
   0.03346912  0.04756234  0.05872285       0.005
   0.05921810  0.05679840  0.05872285       0.010
   0.08496709  0.06603446  0.05872285       0.010
   0.11071607  0.07527052  0.05872285       0.010
  -0.04377784  0.01985417  0.05872285       0.010
  -0.01802885  0.02909023  0.05872285       0.010
   0.00772013  0.03832628  0.05872285       0.010
   0.05921810  0.08415375  0.05872285       0.005
   0.08496709  0.09338981  0.05872285       0.010
   0.11071607  0.10262586  0.05872285       0.010
  -0.04377784  0.04720951  0.05872285       0.010
  -0.01802885  0.05644557  0.05872285       0.010
   0.00772013  0.06568163  0.05872285       0.010
   0.08496709  0.12074515  0.05872285       0.005
   0.11071607  0.12998121  0.05872285       0.010
  -0.04377784  0.07456486  0.05872285       0.010
  -0.01802885  0.08380092  0.05872285       0.010
   0.00772013  0.09303698  0.05872285       0.010
   0.11071607  0.15733656  0.05872285       0.005
  -0.04377784  0.10192021  0.05872285       0.010
  -0.01802885  0.11115627  0.05872285       0.010
   0.00772013  0.12039232  0.05872285       0.010
  -0.04377784 -0.06221187  0.05872285       0.005
  -0.01802885 -0.05297581  0.05872285       0.010
   0.00772013 -0.04373976  0.05872285       0.010
  -0.01802885 -0.02562047  0.05872285       0.005
   0.00772013 -0.01638441  0.05872285       0.010
   0.00772013  0.01097094  0.05872285       0.005
   0.04462549  0.06341646  0.07829713       0.003
   0.07037447  0.07265251  0.07829713       0.010
   0.09612346  0.08188857  0.07829713       0.010
   0.12187244  0.09112463  0.07829713       0.010
   0.07037447  0.10000786  0.07829713       0.005
   0.09612346  0.10924392  0.07829713       0.010
   0.12187244  0.11847998  0.07829713       0.010
  -0.03262146  0.06306363  0.07829713       0.010
  -0.00687248  0.07229969  0.07829713       0.010
   0.01887651  0.08153575  0.07829713       0.005
   0.09612346  0.13659927  0.07829713       0.005
   0.12187244  0.14583532  0.07829713       0.010
  -0.03262146  0.09041898  0.07829713       0.010
  -0.00687248  0.09965503  0.07829713       0.005
   0.12187244  0.17319067  0.07829713       0.005
  -0.03262146  0.11777432  0.07829713       0.005
 
 k-points in reciprocal lattice and weights: EA                                      
   0.00000000  0.00000000  0.00000000       0.003
   0.14285714  0.00000000  0.00000000       0.010
   0.28571429  0.00000000  0.00000000       0.010
   0.42857143 -0.00000000  0.00000000       0.010
   0.14285714  0.14285714  0.00000000       0.005
   0.28571429  0.14285714  0.00000000       0.010
   0.42857143  0.14285714  0.00000000       0.010
  -0.42857143  0.14285714  0.00000000       0.010
  -0.28571429  0.14285714  0.00000000       0.010
  -0.14285714  0.14285714  0.00000000       0.005
   0.28571429  0.28571429  0.00000000       0.005
   0.42857143  0.28571429  0.00000000       0.010
  -0.42857143  0.28571429  0.00000000       0.010
  -0.28571429  0.28571429  0.00000000       0.005
   0.42857143  0.42857143  0.00000000       0.005
  -0.42857143  0.42857143  0.00000000       0.005
   0.00000000 -0.00000000  0.12500000       0.005
   0.14285714 -0.00000000  0.12500000       0.010
   0.28571429 -0.00000000  0.12500000       0.010
   0.42857143  0.00000000  0.12500000       0.010
  -0.42857143 -0.00000000  0.12500000       0.010
  -0.28571429 -0.00000000  0.12500000       0.010
  -0.14285714 -0.00000000  0.12500000       0.010
   0.14285714  0.14285714  0.12500000       0.005
   0.28571429  0.14285714  0.12500000       0.010
   0.42857143  0.14285714  0.12500000       0.010
  -0.42857143  0.14285714  0.12500000       0.010
  -0.28571429  0.14285714  0.12500000       0.010
  -0.14285714  0.14285714  0.12500000       0.010
   0.28571429  0.28571429  0.12500000       0.005
   0.42857143  0.28571429  0.12500000       0.010
  -0.42857143  0.28571429  0.12500000       0.010
  -0.28571429  0.28571429  0.12500000       0.010
  -0.14285714  0.28571429  0.12500000       0.010
   0.42857143  0.42857143  0.12500000       0.005
  -0.42857143  0.42857143  0.12500000       0.010
  -0.28571429  0.42857143  0.12500000       0.010
  -0.14285714  0.42857143  0.12500000       0.010
  -0.42857143 -0.42857143  0.12500000       0.005
  -0.28571429 -0.42857143  0.12500000       0.010
  -0.14285714 -0.42857143  0.12500000       0.010
  -0.28571429 -0.28571429  0.12500000       0.005
  -0.14285714 -0.28571429  0.12500000       0.010
  -0.14285714 -0.14285714  0.12500000       0.005
   0.00000000 -0.00000000  0.25000000       0.005
   0.14285714 -0.00000000  0.25000000       0.010
   0.28571429 -0.00000000  0.25000000       0.010
   0.42857143  0.00000000  0.25000000       0.010
  -0.42857143  0.00000000  0.25000000       0.010
  -0.28571429 -0.00000000  0.25000000       0.010
  -0.14285714  0.00000000  0.25000000       0.010
   0.14285714  0.14285714  0.25000000       0.005
   0.28571429  0.14285714  0.25000000       0.010
   0.42857143  0.14285714  0.25000000       0.010
  -0.42857143  0.14285714  0.25000000       0.010
  -0.28571429  0.14285714  0.25000000       0.010
  -0.14285714  0.14285714  0.25000000       0.010
   0.28571429  0.28571429  0.25000000       0.005
   0.42857143  0.28571429  0.25000000       0.010
  -0.42857143  0.28571429  0.25000000       0.010
  -0.28571429  0.28571429  0.25000000       0.010
  -0.14285714  0.28571429  0.25000000       0.010
   0.42857143  0.42857143  0.25000000       0.005
  -0.42857143  0.42857143  0.25000000       0.010
  -0.28571429  0.42857143  0.25000000       0.010
  -0.14285714  0.42857143  0.25000000       0.010
  -0.42857143 -0.42857143  0.25000000       0.005
  -0.28571429 -0.42857143  0.25000000       0.010
  -0.14285714 -0.42857143  0.25000000       0.010
  -0.28571429 -0.28571429  0.25000000       0.005
  -0.14285714 -0.28571429  0.25000000       0.010
  -0.14285714 -0.14285714  0.25000000       0.005
   0.00000000  0.00000000  0.37500000       0.005
   0.14285714  0.00000000  0.37500000       0.010
   0.28571429 -0.00000000  0.37500000       0.010
   0.42857143  0.00000000  0.37500000       0.010
  -0.42857143 -0.00000000  0.37500000       0.010
  -0.28571429  0.00000000  0.37500000       0.010
  -0.14285714 -0.00000000  0.37500000       0.010
   0.14285714  0.14285714  0.37500000       0.005
   0.28571429  0.14285714  0.37500000       0.010
   0.42857143  0.14285714  0.37500000       0.010
  -0.42857143  0.14285714  0.37500000       0.010
  -0.28571429  0.14285714  0.37500000       0.010
  -0.14285714  0.14285714  0.37500000       0.010
   0.28571429  0.28571429  0.37500000       0.005
   0.42857143  0.28571429  0.37500000       0.010
  -0.42857143  0.28571429  0.37500000       0.010
  -0.28571429  0.28571429  0.37500000       0.010
  -0.14285714  0.28571429  0.37500000       0.010
   0.42857143  0.42857143  0.37500000       0.005
  -0.42857143  0.42857143  0.37500000       0.010
  -0.28571429  0.42857143  0.37500000       0.010
  -0.14285714  0.42857143  0.37500000       0.010
  -0.42857143 -0.42857143  0.37500000       0.005
  -0.28571429 -0.42857143  0.37500000       0.010
  -0.14285714 -0.42857143  0.37500000       0.010
  -0.28571429 -0.28571429  0.37500000       0.005
  -0.14285714 -0.28571429  0.37500000       0.010
  -0.14285714 -0.14285714  0.37500000       0.005
   0.00000000 -0.00000000  0.50000000       0.003
   0.14285714  0.00000000  0.50000000       0.010
   0.28571429 -0.00000000  0.50000000       0.010
   0.42857143  0.00000000  0.50000000       0.010
   0.14285714  0.14285714  0.50000000       0.005
   0.28571429  0.14285714  0.50000000       0.010
   0.42857143  0.14285714  0.50000000       0.010
  -0.42857143  0.14285714  0.50000000       0.010
  -0.28571429  0.14285714  0.50000000       0.010
  -0.14285714  0.14285714  0.50000000       0.005
   0.28571429  0.28571429  0.50000000       0.005
   0.42857143  0.28571429  0.50000000       0.010
  -0.42857143  0.28571429  0.50000000       0.010
  -0.28571429  0.28571429  0.50000000       0.005
   0.42857143  0.42857143  0.50000000       0.005
  -0.42857143  0.42857143  0.50000000       0.005
 
 position of ions in fractional coordinates (direct lattice) 
   0.24194000  0.25806000  0.50000000
   0.75806000  0.74194000  0.50000000
   0.25806000  0.75806000  0.01612000
   0.74194000  0.24194000  0.98388000
   0.00000000  0.00000000  0.00000000
   0.00000000  0.50000000  0.50000000
   0.50000000  0.00000000  0.50000000
   0.50000000  0.50000000  0.00000000
   0.25000000  0.25000000  0.00000000
   0.75000000  0.75000000  0.00000000
 
 position of ions in cartesian coordinates  (Angst):
   0.85889942  1.34766029  1.61190263
   2.81596028  3.87461472 -1.55022211
   0.01172967  3.95879779 -3.11015700
   3.66313003  1.26347721  3.17183752
   0.00000000  0.00000000  0.00000000
  -0.93660462  2.61113750  1.61190263
   2.77403448  0.00000000  1.61190263
   1.83742985  2.61113750 -3.16212474
   0.91871493  1.30556875 -1.58106237
   2.75614478  3.91670625 -4.74318711
 


--------------------------------------------------------------------------------------------------------


 k-point   1 :   0.0000 0.0000 0.0000  plane waves:    6165
 k-point   2 :   0.1429 0.0000 0.0000  plane waves:    6169
 k-point   3 :   0.2857 0.0000 0.0000  plane waves:    6168
 k-point   4 :   0.4286-0.0000 0.0000  plane waves:    6185
 k-point   5 :   0.1429 0.1429 0.0000  plane waves:    6160
 k-point   6 :   0.2857 0.1429 0.0000  plane waves:    6172
 k-point   7 :   0.4286 0.1429 0.0000  plane waves:    6182
 k-point   8 :  -0.4286 0.1429 0.0000  plane waves:    6188
 k-point   9 :  -0.2857 0.1429 0.0000  plane waves:    6172
 k-point  10 :  -0.1429 0.1429 0.0000  plane waves:    6156
 k-point  11 :   0.2857 0.2857 0.0000  plane waves:    6168
 k-point  12 :   0.4286 0.2857 0.0000  plane waves:    6170
 k-point  13 :  -0.4286 0.2857 0.0000  plane waves:    6178
 k-point  14 :  -0.2857 0.2857 0.0000  plane waves:    6192
 k-point  15 :   0.4286 0.4286 0.0000  plane waves:    6186
 k-point  16 :  -0.4286 0.4286 0.0000  plane waves:    6178
 k-point  17 :   0.0000-0.0000 0.1250  plane waves:    6158
 k-point  18 :   0.1429-0.0000 0.1250  plane waves:    6170
 k-point  19 :   0.2857-0.0000 0.1250  plane waves:    6188
 k-point  20 :   0.4286 0.0000 0.1250  plane waves:    6180
 k-point  21 :  -0.4286-0.0000 0.1250  plane waves:    6177
 k-point  22 :  -0.2857-0.0000 0.1250  plane waves:    6168
 k-point  23 :  -0.1429-0.0000 0.1250  plane waves:    6172
 k-point  24 :   0.1429 0.1429 0.1250  plane waves:    6178
 k-point  25 :   0.2857 0.1429 0.1250  plane waves:    6177
 k-point  26 :   0.4286 0.1429 0.1250  plane waves:    6175
 k-point  27 :  -0.4286 0.1429 0.1250  plane waves:    6175
 k-point  28 :  -0.2857 0.1429 0.1250  plane waves:    6172
 k-point  29 :  -0.1429 0.1429 0.1250  plane waves:    6174
 k-point  30 :   0.2857 0.2857 0.1250  plane waves:    6159
 k-point  31 :   0.4286 0.2857 0.1250  plane waves:    6173
 k-point  32 :  -0.4286 0.2857 0.1250  plane waves:    6181
 k-point  33 :  -0.2857 0.2857 0.1250  plane waves:    6175
 k-point  34 :  -0.1429 0.2857 0.1250  plane waves:    6176
 k-point  35 :   0.4286 0.4286 0.1250  plane waves:    6180
 k-point  36 :  -0.4286 0.4286 0.1250  plane waves:    6179
 k-point  37 :  -0.2857 0.4286 0.1250  plane waves:    6171
 k-point  38 :  -0.1429 0.4286 0.1250  plane waves:    6183
 k-point  39 :  -0.4286-0.4286 0.1250  plane waves:    6173
 k-point  40 :  -0.2857-0.4286 0.1250  plane waves:    6165
 k-point  41 :  -0.1429-0.4286 0.1250  plane waves:    6187
 k-point  42 :  -0.2857-0.2857 0.1250  plane waves:    6177
 k-point  43 :  -0.1429-0.2857 0.1250  plane waves:    6174
 k-point  44 :  -0.1429-0.1429 0.1250  plane waves:    6177
 k-point  45 :   0.0000-0.0000 0.2500  plane waves:    6180
 k-point  46 :   0.1429-0.0000 0.2500  plane waves:    6179
 k-point  47 :   0.2857-0.0000 0.2500  plane waves:    6177
 k-point  48 :   0.4286 0.0000 0.2500  plane waves:    6170
 k-point  49 :  -0.4286 0.0000 0.2500  plane waves:    6176
 k-point  50 :  -0.2857-0.0000 0.2500  plane waves:    6167
 k-point  51 :  -0.1429 0.0000 0.2500  plane waves:    6162
 k-point  52 :   0.1429 0.1429 0.2500  plane waves:    6178
 k-point  53 :   0.2857 0.1429 0.2500  plane waves:    6164
 k-point  54 :   0.4286 0.1429 0.2500  plane waves:    6177
 k-point  55 :  -0.4286 0.1429 0.2500  plane waves:    6187
 k-point  56 :  -0.2857 0.1429 0.2500  plane waves:    6169
 k-point  57 :  -0.1429 0.1429 0.2500  plane waves:    6175
 k-point  58 :   0.2857 0.2857 0.2500  plane waves:    6174
 k-point  59 :   0.4286 0.2857 0.2500  plane waves:    6168
 k-point  60 :  -0.4286 0.2857 0.2500  plane waves:    6178
 k-point  61 :  -0.2857 0.2857 0.2500  plane waves:    6175
 k-point  62 :  -0.1429 0.2857 0.2500  plane waves:    6178
 k-point  63 :   0.4286 0.4286 0.2500  plane waves:    6180
 k-point  64 :  -0.4286 0.4286 0.2500  plane waves:    6165
 k-point  65 :  -0.2857 0.4286 0.2500  plane waves:    6183
 k-point  66 :  -0.1429 0.4286 0.2500  plane waves:    6177
 k-point  67 :  -0.4286-0.4286 0.2500  plane waves:    6170
 k-point  68 :  -0.2857-0.4286 0.2500  plane waves:    6176
 k-point  69 :  -0.1429-0.4286 0.2500  plane waves:    6178
 k-point  70 :  -0.2857-0.2857 0.2500  plane waves:    6168
 k-point  71 :  -0.1429-0.2857 0.2500  plane waves:    6165
 k-point  72 :  -0.1429-0.1429 0.2500  plane waves:    6162
 k-point  73 :   0.0000 0.0000 0.3750  plane waves:    6178
 k-point  74 :   0.1429 0.0000 0.3750  plane waves:    6178
 k-point  75 :   0.2857-0.0000 0.3750  plane waves:    6175
 k-point  76 :   0.4286 0.0000 0.3750  plane waves:    6179
 k-point  77 :  -0.4286-0.0000 0.3750  plane waves:    6179
 k-point  78 :  -0.2857 0.0000 0.3750  plane waves:    6179
 k-point  79 :  -0.1429-0.0000 0.3750  plane waves:    6177
 k-point  80 :   0.1429 0.1429 0.3750  plane waves:    6180
 k-point  81 :   0.2857 0.1429 0.3750  plane waves:    6167
 k-point  82 :   0.4286 0.1429 0.3750  plane waves:    6180
 k-point  83 :  -0.4286 0.1429 0.3750  plane waves:    6192
 k-point  84 :  -0.2857 0.1429 0.3750  plane waves:    6173
 k-point  85 :  -0.1429 0.1429 0.3750  plane waves:    6175
 k-point  86 :   0.2857 0.2857 0.3750  plane waves:    6193
 k-point  87 :   0.4286 0.2857 0.3750  plane waves:    6176
 k-point  88 :  -0.4286 0.2857 0.3750  plane waves:    6180
 k-point  89 :  -0.2857 0.2857 0.3750  plane waves:    6170
 k-point  90 :  -0.1429 0.2857 0.3750  plane waves:    6173
 k-point  91 :   0.4286 0.4286 0.3750  plane waves:    6174
 k-point  92 :  -0.4286 0.4286 0.3750  plane waves:    6158
 k-point  93 :  -0.2857 0.4286 0.3750  plane waves:    6166
 k-point  94 :  -0.1429 0.4286 0.3750  plane waves:    6160
 k-point  95 :  -0.4286-0.4286 0.3750  plane waves:    6181
 k-point  96 :  -0.2857-0.4286 0.3750  plane waves:    6190
 k-point  97 :  -0.1429-0.4286 0.3750  plane waves:    6183
 k-point  98 :  -0.2857-0.2857 0.3750  plane waves:    6174
 k-point  99 :  -0.1429-0.2857 0.3750  plane waves:    6174
 k-point 100 :  -0.1429-0.1429 0.3750  plane waves:    6176
 k-point 101 :   0.0000-0.0000 0.5000  plane waves:    6190
 k-point 102 :   0.1429 0.0000 0.5000  plane waves:    6180
 k-point 103 :   0.2857-0.0000 0.5000  plane waves:    6184
 k-point 104 :   0.4286 0.0000 0.5000  plane waves:    6184
 k-point 105 :   0.1429 0.1429 0.5000  plane waves:    6168
 k-point 106 :   0.2857 0.1429 0.5000  plane waves:    6183
 k-point 107 :   0.4286 0.1429 0.5000  plane waves:    6187
 k-point 108 :  -0.4286 0.1429 0.5000  plane waves:    6183
 k-point 109 :  -0.2857 0.1429 0.5000  plane waves:    6169
 k-point 110 :  -0.1429 0.1429 0.5000  plane waves:    6164
 k-point 111 :   0.2857 0.2857 0.5000  plane waves:    6166
 k-point 112 :   0.4286 0.2857 0.5000  plane waves:    6176
 k-point 113 :  -0.4286 0.2857 0.5000  plane waves:    6166
 k-point 114 :  -0.2857 0.2857 0.5000  plane waves:    6164
 k-point 115 :   0.4286 0.4286 0.5000  plane waves:    6177
 k-point 116 :  -0.4286 0.4286 0.5000  plane waves:    6164

 maximum and minimum number of plane-waves per node :      3110     3070

 maximum number of plane-waves:      6193
 maximum index in each direction: 
   IXMAX=   13   IYMAX=   13   IZMAX=   12
   IXMIN=  -13   IYMIN=  -13   IZMIN=  -13


 parallel 3D FFT for wavefunctions:
    minimum data exchange during FFTs selected (reduces bandwidth)
 parallel 3D FFT for charge:
    minimum data exchange during FFTs selected (reduces bandwidth)


 total amount of memory used by VASP MPI-rank0   357989. kBytes
=======================================================================

   base      :      30000. kBytes
   nonl-proj :     155943. kBytes
   fftplans  :      17764. kBytes
   grid      :      13358. kBytes
   one-center:         77. kBytes
   wavefun   :     140847. kBytes
 
     INWAV:  cpu time    0.0001: real time    0.0001
 Broyden mixing: mesh for mixing (old mesh)
   NGX = 25   NGY = 25   NGZ = 25
  (NGX  =108   NGY  =108   NGZ  =108)
  gives a total of  15625 points

 initial charge density was supplied:
 charge density of overlapping atoms calculated
 number of electron      76.0000000 magnetization 
 keeping initial charge density in first step


--------------------------------------------------------------------------------------------------------


 Maximum index for augmentation-charges        24141 (set IRDMAX)


--------------------------------------------------------------------------------------------------------


 First call to EWALD:  gamma=   0.311
 Maximum number of real-space cells 3x 3x 3
 Maximum number of reciprocal cells 3x 3x 3

    FEWALD:  cpu time    0.0115: real time    0.0116


--------------------------------------- Iteration      1(   1)  ---------------------------------------


    POTLOK:  cpu time    0.2164: real time    0.2192
    SETDIJ:  cpu time    0.6643: real time    0.6702
    TRIAL :  cpu time   24.3861: real time   24.6338
    CORREC:  cpu time    0.0018: real time    0.0018
    --------------------------------------------
      LOOP:  cpu time   25.3359: real time   25.6015

 eigenvalue-minimisations  : 12480
 total energy-change (2. order) : 0.6054230E+03  (-0.4815507E+04)
 number of electron      76.0000000 magnetization 
 augmentation part       76.0000000 magnetization 

 Free energy of the ion-electron system (eV)
  ---------------------------------------------------
  alpha Z        PSCENC =       260.86991782
  Ewald energy   TEWEN  =     -5133.46359673
  -Hartree energ DENC   =     -2480.90204416
  -exchange      EXHF   =         0.00000000
  -V(xc)+E(xc)   XCENC  =       323.55953317
  PAW double counting   =      6278.15209018    -6244.81064237
  entropy T*S    EENTRO =        -0.00049345
  eigenvalues    EBANDS =      -337.92336071
  atomic energy  EATOM  =      7939.94160518
  ---------------------------------------------------
  free energy    TOTEN  =       605.42300893 eV

  energy without entropy =      605.42350238  energy(sigma->0) =      605.42325566


--------------------------------------------------------------------------------------------------------




--------------------------------------- Iteration      1(   2)  ---------------------------------------


    TRIAL :  cpu time   24.9171: real time   25.1712
    CORREC:  cpu time    0.0014: real time    0.0014
    --------------------------------------------
      LOOP:  cpu time   24.9210: real time   25.1764

 eigenvalue-minimisations  : 12708
 total energy-change (2. order) :-0.7473363E+03  (-0.7249290E+03)
 number of electron      76.0000000 magnetization 
 augmentation part       76.0000000 magnetization 

 Free energy of the ion-electron system (eV)
  ---------------------------------------------------
  alpha Z        PSCENC =       260.86991782
  Ewald energy   TEWEN  =     -5133.46359673
  -Hartree energ DENC   =     -2480.90204416
  -exchange      EXHF   =         0.00000000
  -V(xc)+E(xc)   XCENC  =       323.55953317
  PAW double counting   =      6278.15209018    -6244.81064237
  entropy T*S    EENTRO =        -0.00122759
  eigenvalues    EBANDS =     -1085.25893790
  atomic energy  EATOM  =      7939.94160518
  ---------------------------------------------------
  free energy    TOTEN  =      -141.91330241 eV

  energy without entropy =     -141.91207482  energy(sigma->0) =     -141.91268861


--------------------------------------------------------------------------------------------------------




--------------------------------------- Iteration      1(   3)  ---------------------------------------


    TRIAL :  cpu time   28.5043: real time   28.8412
    CORREC:  cpu time    0.0016: real time    0.0016
    --------------------------------------------
      LOOP:  cpu time   28.5073: real time   28.8461

 eigenvalue-minimisations  : 15300
 total energy-change (2. order) :-0.3350861E+02  (-0.3283738E+02)
 number of electron      76.0000000 magnetization 
 augmentation part       76.0000000 magnetization 

 Free energy of the ion-electron system (eV)
  ---------------------------------------------------
  alpha Z        PSCENC =       260.86991782
  Ewald energy   TEWEN  =     -5133.46359673
  -Hartree energ DENC   =     -2480.90204416
  -exchange      EXHF   =         0.00000000
  -V(xc)+E(xc)   XCENC  =       323.55953317
  PAW double counting   =      6278.15209018    -6244.81064237
  entropy T*S    EENTRO =        -0.00118323
  eigenvalues    EBANDS =     -1118.76759235
  atomic energy  EATOM  =      7939.94160518
  ---------------------------------------------------
  free energy    TOTEN  =      -175.42191249 eV

  energy without entropy =     -175.42072926  energy(sigma->0) =     -175.42132088


--------------------------------------------------------------------------------------------------------




--------------------------------------- Iteration      1(   4)  ---------------------------------------


    TRIAL :  cpu time   26.5829: real time   26.8417
    CORREC:  cpu time    0.0016: real time    0.0016
    --------------------------------------------
      LOOP:  cpu time   26.5852: real time   26.8462

 eigenvalue-minimisations  : 13944
 total energy-change (2. order) :-0.6695853E+00  (-0.6655035E+00)
 number of electron      76.0000000 magnetization 
 augmentation part       76.0000000 magnetization 

 Free energy of the ion-electron system (eV)
  ---------------------------------------------------
  alpha Z        PSCENC =       260.86991782
  Ewald energy   TEWEN  =     -5133.46359673
  -Hartree energ DENC   =     -2480.90204416
  -exchange      EXHF   =         0.00000000
  -V(xc)+E(xc)   XCENC  =       323.55953317
  PAW double counting   =      6278.15209018    -6244.81064237
  entropy T*S    EENTRO =        -0.00113012
  eigenvalues    EBANDS =     -1119.43723078
  atomic energy  EATOM  =      7939.94160518
  ---------------------------------------------------
  free energy    TOTEN  =      -176.09149782 eV

  energy without entropy =     -176.09036769  energy(sigma->0) =     -176.09093276


--------------------------------------------------------------------------------------------------------




--------------------------------------- Iteration      1(   5)  ---------------------------------------


    TRIAL :  cpu time   28.7069: real time   28.9815
    CORREC:  cpu time    0.0015: real time    0.0015
    CHARGE:  cpu time    1.8595: real time    1.8750
    --------------------------------------------
      LOOP:  cpu time   30.5693: real time   30.8610

 eigenvalue-minimisations  : 15564
 total energy-change (2. order) :-0.1972347E-01  (-0.1970309E-01)
 number of electron      76.0000000 magnetization 
 augmentation part        7.7035752 magnetization 

 Free energy of the ion-electron system (eV)
  ---------------------------------------------------
  alpha Z        PSCENC =       260.86991782
  Ewald energy   TEWEN  =     -5133.46359673
  -Hartree energ DENC   =     -2480.90204416
  -exchange      EXHF   =         0.00000000
  -V(xc)+E(xc)   XCENC  =       323.55953317
  PAW double counting   =      6278.15209018    -6244.81064237
  entropy T*S    EENTRO =        -0.00115585
  eigenvalues    EBANDS =     -1119.45692852
  atomic energy  EATOM  =      7939.94160518
  ---------------------------------------------------
  free energy    TOTEN  =      -176.11122129 eV

  energy without entropy =     -176.11006544  energy(sigma->0) =     -176.11064336


--------------------------------------------------------------------------------------------------------




--------------------------------------- Iteration      1(   6)  ---------------------------------------


    POTLOK:  cpu time    0.1950: real time    0.1962
    SETDIJ:  cpu time    0.5898: real time    0.5939
    TRIAL :  cpu time   18.8136: real time   19.0685
    CORREC:  cpu time    7.1130: real time    7.1761
    CHARGE:  cpu time    2.3013: real time    2.3183
    --------------------------------------------
      LOOP:  cpu time   29.0145: real time   29.3558

 eigenvalue-minimisations  :     0
 total energy-change (2. order) : 0.6255970E+02  (-0.2157694E+02)
 number of electron      76.0000001 magnetization 
 augmentation part        9.1714897 magnetization 

 Free energy of the ion-electron system (eV)
  ---------------------------------------------------
  alpha Z        PSCENC =       260.86991782
  Ewald energy   TEWEN  =     -5133.46359673
  -Hartree energ DENC   =     -2223.73173143
  -exchange      EXHF   =         0.00000000
  -V(xc)+E(xc)   XCENC  =       321.65862813
  PAW double counting   =      8616.01407393    -8613.99255611
  entropy T*S    EENTRO =        -0.00139940
  eigenvalues    EBANDS =     -1280.84671097
  atomic energy  EATOM  =      7939.94160518
  ---------------------------------------------------
  free energy    TOTEN  =      -113.55152603 eV

  energy without entropy =     -113.55012663  energy(sigma->0) =     -113.55082633


--------------------------------------------------------------------------------------------------------




--------------------------------------- Iteration      1(   7)  ---------------------------------------


    POTLOK:  cpu time    0.1490: real time    0.1499
    SETDIJ:  cpu time    0.6149: real time    0.6193
    TRIAL :  cpu time   20.4037: real time   20.5826
    CORREC:  cpu time    8.7580: real time    8.8249
    CHARGE:  cpu time    2.1513: real time    2.1670
    --------------------------------------------
      LOOP:  cpu time   32.0829: real time   32.3510

 eigenvalue-minimisations  :     0
 total energy-change (2. order) :-0.2191892E+02  (-0.3987108E+01)
 number of electron      76.0000000 magnetization 
 augmentation part        9.2315594 magnetization 

 Free energy of the ion-electron system (eV)
  ---------------------------------------------------
  alpha Z        PSCENC =       260.86991782
  Ewald energy   TEWEN  =     -5133.46359673
  -Hartree energ DENC   =     -2381.28754429
  -exchange      EXHF   =         0.00000000
  -V(xc)+E(xc)   XCENC  =       328.51460236
  PAW double counting   =      8310.99119565    -8298.31153235
  entropy T*S    EENTRO =        -0.00143851
  eigenvalues    EBANDS =     -1162.72369281
  atomic energy  EATOM  =      7939.94160518
  ---------------------------------------------------
  free energy    TOTEN  =      -135.47044456 eV

  energy without entropy =     -135.46900605  energy(sigma->0) =     -135.46972530


--------------------------------------------------------------------------------------------------------




--------------------------------------- Iteration      1(   8)  ---------------------------------------


    POTLOK:  cpu time    0.1502: real time    0.1511
    SETDIJ:  cpu time    0.6127: real time    0.6172
    TRIAL :  cpu time   23.6565: real time   23.8582
    CORREC:  cpu time    7.6604: real time    7.7181
    CHARGE:  cpu time    2.4568: real time    2.4739
    --------------------------------------------
      LOOP:  cpu time   34.5390: real time   34.8220

 eigenvalue-minimisations  :     0
 total energy-change (2. order) :-0.3959016E+01  (-0.1183143E+01)
 number of electron      76.0000000 magnetization 
 augmentation part        9.2011005 magnetization 

 Free energy of the ion-electron system (eV)
  ---------------------------------------------------
  alpha Z        PSCENC =       260.86991782
  Ewald energy   TEWEN  =     -5133.46359673
  -Hartree energ DENC   =     -2414.41455528
  -exchange      EXHF   =         0.00000000
  -V(xc)+E(xc)   XCENC  =       329.79048136
  PAW double counting   =      8124.95694759    -8108.72413473
  entropy T*S    EENTRO =        -0.00144823
  eigenvalues    EBANDS =     -1138.38468765
  atomic energy  EATOM  =      7939.94160518
  ---------------------------------------------------
  free energy    TOTEN  =      -139.42946096 eV

  energy without entropy =     -139.42801273  energy(sigma->0) =     -139.42873684


--------------------------------------------------------------------------------------------------------




--------------------------------------- Iteration      1(   9)  ---------------------------------------


    POTLOK:  cpu time    0.1509: real time    0.1518
    SETDIJ:  cpu time    0.6305: real time    0.6350
    TRIAL :  cpu time   23.3574: real time   23.5481
    CORREC:  cpu time    8.6772: real time    8.7427
    CHARGE:  cpu time    2.4177: real time    2.4346
    --------------------------------------------
      LOOP:  cpu time   35.7696: real time   36.0513

 eigenvalue-minimisations  :     0
 total energy-change (2. order) :-0.1186476E+01  (-0.4479853E+00)
 number of electron      76.0000000 magnetization 
 augmentation part        9.1724024 magnetization 

 Free energy of the ion-electron system (eV)
  ---------------------------------------------------
  alpha Z        PSCENC =       260.86991782
  Ewald energy   TEWEN  =     -5133.46359673
  -Hartree energ DENC   =     -2418.58421559
  -exchange      EXHF   =         0.00000000
  -V(xc)+E(xc)   XCENC  =       329.93239141
  PAW double counting   =      8013.86649949    -7995.88502526
  entropy T*S    EENTRO =        -0.00143671
  eigenvalues    EBANDS =     -1137.29206539
  atomic energy  EATOM  =      7939.94160518
  ---------------------------------------------------
  free energy    TOTEN  =      -140.61593730 eV

  energy without entropy =     -140.61450058  energy(sigma->0) =     -140.61521894


--------------------------------------------------------------------------------------------------------




--------------------------------------- Iteration      1(  10)  ---------------------------------------


    POTLOK:  cpu time    0.1483: real time    0.1492
    SETDIJ:  cpu time    0.6297: real time    0.6340
    TRIAL :  cpu time   22.3570: real time   22.5431
    CORREC:  cpu time    8.0315: real time    8.0921
    CHARGE:  cpu time    2.1021: real time    2.1162
    --------------------------------------------
      LOOP:  cpu time   33.2700: real time   33.5366

 eigenvalue-minimisations  :     0
 total energy-change (2. order) :-0.4486147E+00  (-0.2087792E+00)
 number of electron      76.0000000 magnetization 
 augmentation part        9.1604572 magnetization 

 Free energy of the ion-electron system (eV)
  ---------------------------------------------------
  alpha Z        PSCENC =       260.86991782
  Ewald energy   TEWEN  =     -5133.46359673
  -Hartree energ DENC   =     -2417.56587113
  -exchange      EXHF   =         0.00000000
  -V(xc)+E(xc)   XCENC  =       329.95585743
  PAW double counting   =      7971.04095502    -7952.01900359
  entropy T*S    EENTRO =        -0.00147900
  eigenvalues    EBANDS =     -1139.82297933
  atomic energy  EATOM  =      7939.94160518
  ---------------------------------------------------
  free energy    TOTEN  =      -141.06455204 eV

  energy without entropy =     -141.06307303  energy(sigma->0) =     -141.06381254


--------------------------------------------------------------------------------------------------------




--------------------------------------- Iteration      1(  11)  ---------------------------------------


    POTLOK:  cpu time    0.1494: real time    0.1502
    SETDIJ:  cpu time    0.6365: real time    0.6409
    TRIAL :  cpu time   22.6541: real time   22.8484
    CORREC:  cpu time   10.3875: real time   10.4614
    CHARGE:  cpu time    1.8190: real time    1.8346
    --------------------------------------------
      LOOP:  cpu time   35.6480: real time   35.9373

 eigenvalue-minimisations  :     0
 total energy-change (2. order) :-0.2085389E+00  (-0.8717323E-01)
 number of electron      76.0000000 magnetization 
 augmentation part        9.1676492 magnetization 

 Free energy of the ion-electron system (eV)
  ---------------------------------------------------
  alpha Z        PSCENC =       260.86991782
  Ewald energy   TEWEN  =     -5133.46359673
  -Hartree energ DENC   =     -2417.95620845
  -exchange      EXHF   =         0.00000000
  -V(xc)+E(xc)   XCENC  =       330.02693572
[...]
     16     -30.4757      2.00000
     17      -3.6314      2.00000
     18      -3.2198      2.00000
     19      -1.8615      2.00000
     20      -1.7462      2.00000
     21      -1.4314      2.00000
     22      -1.0957      2.00000
     23       1.1448      2.00000
     24       1.6215      2.00000
     25       1.7482      2.00000
     26       1.7995      2.00000
     27       2.0621      2.00000
     28       2.1493      2.00000
     29       2.4323      2.00000
     30       2.7385      2.00000
     31       2.7978      2.00000
     32       3.0644      2.00000
     33       3.1787      2.00000
     34       3.6826      2.00000
     35       3.8013      2.00000
     36       4.0341      2.00000
     37       4.5700      2.00000
     38       4.8543      2.00000
     39       4.9918      1.99027
     40       5.3283      0.00000
     41       5.5225      0.00000
     42       5.6669      0.00000
     43       7.3271      0.00000
     44       7.4010      0.00000
     45       7.6990      0.00000
     46       7.8043      0.00000
     47       7.8259      0.00000
     48       7.8822      0.00000

 k-point   108 :      -0.4286    0.1429    0.5000
  band No.  band energies     occupation 
      1     -57.9896      2.00000
      2     -57.9895      2.00000
      3     -57.1557      2.00000
      4     -57.1550      2.00000
      5     -31.4549      2.00000
      6     -31.4523      2.00000
      7     -31.3000      2.00000
      8     -31.2984      2.00000
      9     -31.2611      2.00000
     10     -31.2595      2.00000
     11     -30.9202      2.00000
     12     -30.9083      2.00000
     13     -30.4953      2.00000
     14     -30.4914      2.00000
     15     -30.4795      2.00000
     16     -30.4757      2.00000
     17      -3.4686      2.00000
     18      -3.3374      2.00000
     19      -1.8753      2.00000
     20      -1.7419      2.00000
     21      -1.4680      2.00000
     22      -1.1413      2.00000
     23       1.1539      2.00000
     24       1.4562      2.00000
     25       1.6826      2.00000
     26       1.9291      2.00000
     27       2.0790      2.00000
     28       2.2773      2.00000
     29       2.3830      2.00000
     30       2.6855      2.00000
     31       2.7610      2.00000
     32       2.9609      2.00000
     33       3.0332      2.00000
     34       3.8442      2.00000
     35       4.0406      2.00000
     36       4.2358      2.00000
     37       4.5103      2.00000
     38       4.6795      2.00000
     39       5.2528      0.00000
     40       5.4123      0.00000
     41       5.5932      0.00000
     42       5.7640      0.00000
     43       7.0657      0.00000
     44       7.2219      0.00000
     45       7.4777      0.00000
     46       7.5293      0.00000
     47       7.6102      0.00000
     48       7.7240      0.00000

 k-point   109 :      -0.2857    0.1429    0.5000
  band No.  band energies     occupation 
      1     -57.9895      2.00000
      2     -57.9895      2.00000
      3     -57.1559      2.00000
      4     -57.1549      2.00000
      5     -31.4552      2.00000
      6     -31.4519      2.00000
      7     -31.2957      2.00000
      8     -31.2949      2.00000
      9     -31.2583      2.00000
     10     -31.2575      2.00000
     11     -30.9229      2.00000
     12     -30.9057      2.00000
     13     -30.4950      2.00000
     14     -30.4920      2.00000
     15     -30.4861      2.00000
     16     -30.4831      2.00000
     17      -3.6191      2.00000
     18      -2.9296      2.00000
     19      -1.9024      2.00000
     20      -1.8184      2.00000
     21      -1.5589      2.00000
     22      -1.1020      2.00000
     23       1.2227      2.00000
     24       1.3212      2.00000
     25       1.5737      2.00000
     26       1.6659      2.00000
     27       2.3779      2.00000
     28       2.4908      2.00000
     29       2.5191      2.00000
     30       2.6155      2.00000
     31       2.7753      2.00000
     32       2.8970      2.00000
     33       2.9884      2.00000
     34       3.5224      2.00000
     35       3.8043      2.00000
     36       4.0713      2.00000
     37       4.3920      2.00000
     38       4.7469      2.00000
     39       5.1234      0.00000
     40       5.5063      0.00000
     41       5.5181      0.00000
     42       6.2315      0.00000
     43       6.6956      0.00000
     44       7.0275      0.00000
     45       7.5404      0.00000
     46       7.8233      0.00000
     47       7.9229      0.00000
     48       8.1120      0.00000

 k-point   110 :      -0.1429    0.1429    0.5000
  band No.  band energies     occupation 
      1     -57.9895      2.00000
      2     -57.9895      2.00000
      3     -57.1559      2.00000
      4     -57.1549      2.00000
      5     -31.4551      2.00000
      6     -31.4518      2.00000
      7     -31.2910      2.00000
      8     -31.2910      2.00000
      9     -31.2542      2.00000
     10     -31.2541      2.00000
     11     -30.9240      2.00000
     12     -30.9049      2.00000
     13     -30.4952      2.00000
     14     -30.4936      2.00000
     15     -30.4935      2.00000
     16     -30.4921      2.00000
     17      -3.7091      2.00000
     18      -2.5048      2.00000
     19      -1.9976      2.00000
     20      -1.8728      2.00000
     21      -1.5489      2.00000
     22      -1.1147      2.00000
     23       1.1493      2.00000
     24       1.2483      2.00000
     25       1.5913      2.00000
     26       1.7123      2.00000
     27       2.1123      2.00000
     28       2.7166      2.00000
     29       2.7591      2.00000
     30       2.7699      2.00000
     31       2.8409      2.00000
     32       2.8549      2.00000
     33       2.9971      2.00000
     34       3.0365      2.00000
     35       3.6490      2.00000
     36       3.8651      2.00000
     37       4.0843      2.00000
     38       4.6675      2.00000
     39       4.9211      2.00000
     40       5.2860      0.00000
     41       5.6114      0.00000
     42       6.5668      0.00000
     43       6.6754      0.00000
     44       7.0645      0.00000
     45       7.6569      0.00000
     46       8.1088      0.00000
     47       8.4343      0.00000
     48       8.6858      0.00000

 k-point   111 :       0.2857    0.2857    0.5000
  band No.  band energies     occupation 
      1     -57.9896      2.00000
      2     -57.9895      2.00000
      3     -57.1556      2.00000
      4     -57.1551      2.00000
      5     -31.4545      2.00000
      6     -31.4527      2.00000
      7     -31.2989      2.00000
      8     -31.2988      2.00000
      9     -31.2623      2.00000
     10     -31.2623      2.00000
     11     -30.9164      2.00000
     12     -30.9121      2.00000
     13     -30.4878      2.00000
     14     -30.4872      2.00000
     15     -30.4819      2.00000
     16     -30.4812      2.00000
     17      -3.7689      2.00000
     18      -3.0334      2.00000
     19      -1.9681      2.00000
     20      -1.8124      2.00000
     21      -1.3641      2.00000
     22      -0.8771      2.00000
     23       1.1226      2.00000
     24       1.1468      2.00000
     25       1.6773      2.00000
     26       1.8151      2.00000
     27       1.8751      2.00000
     28       2.2832      2.00000
     29       2.5965      2.00000
     30       2.6225      2.00000
     31       2.8321      2.00000
     32       3.0872      2.00000
     33       3.2335      2.00000
     34       3.7279      2.00000
     35       4.0404      2.00000
     36       4.1770      2.00000
     37       4.5539      2.00000
     38       4.9091      2.00000
     39       5.1031      0.00000
     40       5.2681      0.00000
     41       5.5532      0.00000
     42       5.5576      0.00000
     43       7.3836      0.00000
     44       7.5641      0.00000
     45       7.6491      0.00000
     46       7.7365      0.00000
     47       7.9045      0.00000
     48       8.0824      0.00000

 k-point   112 :       0.4286    0.2857    0.5000
  band No.  band energies     occupation 
      1     -57.9897      2.00000
      2     -57.9895      2.00000
      3     -57.1558      2.00000
      4     -57.1548      2.00000
      5     -31.4554      2.00000
      6     -31.4521      2.00000
      7     -31.3029      2.00000
      8     -31.3016      2.00000
      9     -31.2659      2.00000
     10     -31.2645      2.00000
     11     -30.9201      2.00000
     12     -30.9082      2.00000
     13     -30.4881      2.00000
     14     -30.4819      2.00000
     15     -30.4800      2.00000
     16     -30.4740      2.00000
     17      -3.6384      2.00000
     18      -3.2308      2.00000
     19      -1.9911      2.00000
     20      -1.9299      2.00000
     21      -1.1783      2.00000
     22      -0.8626      2.00000
     23       0.7801      2.00000
     24       1.0707      2.00000
     25       1.5204      2.00000
     26       1.9396      2.00000
     27       2.0517      2.00000
     28       2.2771      2.00000
     29       2.3569      2.00000
     30       2.5020      2.00000
     31       2.6193      2.00000
     32       3.0298      2.00000
     33       3.6495      2.00000
     34       4.1671      2.00000
     35       4.3797      2.00000
     36       4.5906      2.00000
     37       4.8269      2.00000
     38       4.9359      2.00000
     39       5.2993      0.00000
     40       5.4048      0.00000
     41       5.7120      0.00000
     42       5.7907      0.00000
     43       6.9685      0.00000
     44       6.9964      0.00000
     45       7.0291      0.00000
     46       7.0710      0.00000
     47       7.6725      0.00000
     48       7.7477      0.00000

 k-point   113 :      -0.4286    0.2857    0.5000
  band No.  band energies     occupation 
      1     -57.9897      2.00000
      2     -57.9895      2.00000
      3     -57.1559      2.00000
      4     -57.1547      2.00000
      5     -31.4558      2.00000
      6     -31.4517      2.00000
      7     -31.3029      2.00000
      8     -31.3016      2.00000
      9     -31.2659      2.00000
     10     -31.2645      2.00000
     11     -30.9227      2.00000
     12     -30.9055      2.00000
     13     -30.4880      2.00000
     14     -30.4819      2.00000
     15     -30.4800      2.00000
     16     -30.4740      2.00000
     17      -3.4089      2.00000
     18      -3.3960      2.00000
     19      -2.0421      2.00000
     20      -1.9199      2.00000
     21      -1.2176      2.00000
     22      -0.9007      2.00000
     23       0.7735      2.00000
     24       1.0708      2.00000
     25       1.2574      2.00000
     26       2.1239      2.00000
     27       2.1778      2.00000
     28       2.2843      2.00000
     29       2.3644      2.00000
     30       2.4632      2.00000
     31       2.5389      2.00000
     32       3.0229      2.00000
     33       3.6406      2.00000
     34       4.1921      2.00000
     35       4.2535      2.00000
     36       4.8022      2.00000
     37       4.8789      2.00000
     38       5.1945      0.00000
     39       5.3779      0.00000
     40       5.4989      0.00000
     41       5.8249      0.00000
     42       6.0442      0.00000
     43       6.5689      0.00000
     44       6.6339      0.00000
     45       6.8254      0.00000
     46       6.9072      0.00000
     47       7.5889      0.00000
     48       7.7575      0.00000

 k-point   114 :      -0.2857    0.2857    0.5000
  band No.  band energies     occupation 
      1     -57.9896      2.00000
      2     -57.9895      2.00000
      3     -57.1559      2.00000
      4     -57.1547      2.00000
      5     -31.4557      2.00000
      6     -31.4516      2.00000
      7     -31.2989      2.00000
      8     -31.2989      2.00000
      9     -31.2624      2.00000
     10     -31.2622      2.00000
     11     -30.9238      2.00000
     12     -30.9047      2.00000
     13     -30.4878      2.00000
     14     -30.4870      2.00000
     15     -30.4820      2.00000
     16     -30.4813      2.00000
     17      -3.5156      2.00000
     18      -3.1396      2.00000
     19      -2.0253      2.00000
     20      -1.8366      2.00000
     21      -1.4779      2.00000
     22      -0.9530      2.00000
     23       1.1113      2.00000
     24       1.1367      2.00000
     25       1.1677      2.00000
     26       1.8189      2.00000
     27       2.4285      2.00000
     28       2.4588      2.00000
     29       2.4640      2.00000
     30       2.5347      2.00000
     31       2.6402      2.00000
     32       3.0324      2.00000
     33       3.2008      2.00000
     34       4.0559      2.00000
     35       4.0855      2.00000
     36       4.2348      2.00000
     37       4.5272      2.00000
     38       5.1585      0.00000
     39       5.2506      0.00000
     40       5.6117      0.00000
     41       5.6739      0.00000
     42       6.4807      0.00000
     43       6.4829      0.00000
     44       6.6589      0.00000
     45       7.1004      0.00000
     46       7.2601      0.00000
     47       7.5215      0.00000
     48       8.2213      0.00000

 k-point   115 :       0.4286    0.4286    0.5000
  band No.  band energies     occupation 
      1     -57.9897      2.00000
      2     -57.9895      2.00000
      3     -57.1559      2.00000
      4     -57.1546      2.00000
      5     -31.4560      2.00000
      6     -31.4516      2.00000
      7     -31.3053      2.00000
      8     -31.3052      2.00000
      9     -31.2686      2.00000
     10     -31.2685      2.00000
     11     -30.9227      2.00000
     12     -30.9054      2.00000
     13     -30.4819      2.00000
     14     -30.4819      2.00000
     15     -30.4730      2.00000
     16     -30.4728      2.00000
     17      -3.5808      2.00000
     18      -3.2865      2.00000
     19      -2.0996      2.00000
     20      -2.0334      2.00000
     21      -0.8644      2.00000
     22      -0.7416      2.00000
     23       0.4629      2.00000
     24       0.6718      2.00000
     25       1.2610      2.00000
     26       2.0632      2.00000
     27       2.1651      2.00000
     28       2.1856      2.00000
     29       2.3319      2.00000
     30       2.4328      2.00000
     31       2.5397      2.00000
     32       3.0392      2.00000
     33       4.2369      2.00000
     34       4.3471      2.00000
     35       4.3760      2.00000
     36       5.1931      0.00000
     37       5.3966      0.00000
     38       5.4601      0.00000
     39       5.4688      0.00000
     40       5.6619      0.00000
     41       5.8664      0.00000
     42       5.9490      0.00000
     43       6.3347      0.00000
     44       6.4277      0.00000
     45       6.4412      0.00000
     46       6.4552      0.00000
     47       7.8654      0.00000
     48       8.1122      0.00000

 k-point   116 :      -0.4286    0.4286    0.5000
  band No.  band energies     occupation 
      1     -57.9897      2.00000
      2     -57.9895      2.00000
      3     -57.1559      2.00000
      4     -57.1546      2.00000
      5     -31.4562      2.00000
      6     -31.4515      2.00000
      7     -31.3053      2.00000
      8     -31.3052      2.00000
      9     -31.2686      2.00000
     10     -31.2685      2.00000
     11     -30.9236      2.00000
     12     -30.9045      2.00000
     13     -30.4820      2.00000
     14     -30.4818      2.00000
     15     -30.4729      2.00000
     16     -30.4729      2.00000
     17      -3.4915      2.00000
     18      -3.3440      2.00000
     19      -2.1297      2.00000
     20      -2.0284      2.00000
     21      -0.8794      2.00000
     22      -0.7565      2.00000
     23       0.4568      2.00000
     24       0.6718      2.00000
     25       1.1620      2.00000
     26       2.0794      2.00000
     27       2.2404      2.00000
     28       2.2532      2.00000
     29       2.3183      2.00000
     30       2.4134      2.00000
     31       2.5159      2.00000
     32       3.0410      2.00000
     33       4.2447      2.00000
     34       4.3053      2.00000
     35       4.3866      2.00000
     36       5.1878      0.00000
     37       5.3955      0.00000
     38       5.5371      0.00000
     39       5.6712      0.00000
     40       5.7402      0.00000
     41       5.9323      0.00000
     42       6.1674      0.00000
     43       6.2216      0.00000
     44       6.2373      0.00000
     45       6.2547      0.00000
     46       6.3907      0.00000
     47       7.8830      0.00000
     48       8.1344      0.00000


--------------------------------------------------------------------------------------------------------


 soft charge-density along one line, spin component           1
         0         1         2         3         4         5         6         7         8         9
 total charge-density along one line
 
 pseudopotential strength for first ion, spin component:           1
  6.179   9.383  -0.001  -0.000   0.001  -0.001  -0.000   0.002
  9.383  14.240  -0.001  -0.000   0.001  -0.002  -0.000   0.003
 -0.001  -0.001  -2.091   0.001  -0.000  -3.519   0.000   0.001
 -0.000  -0.000   0.001  -2.091   0.001   0.000  -3.518   0.000
  0.001   0.001  -0.000   0.001  -2.091   0.001   0.000  -3.520
 -0.001  -0.002  -3.519   0.000   0.001  -5.714  -0.003   0.004
 -0.000  -0.000   0.000  -3.518   0.000  -0.003  -5.711  -0.002
  0.002   0.003   0.001   0.000  -3.520   0.004  -0.002  -5.717
 total augmentation occupancy for first ion, spin component:           1
  3.049  -0.618   0.051   0.000  -0.072  -0.014  -0.000   0.021
 -0.618   0.135  -0.010   0.000   0.015   0.004   0.000  -0.005
  0.051  -0.010   1.927   0.516  -0.315  -0.456  -0.118   0.073
  0.000  -0.000   0.516   1.718   0.363  -0.118  -0.407  -0.083
 -0.072   0.015  -0.315   0.363   2.154   0.073  -0.083  -0.508
 -0.014   0.004  -0.456  -0.118   0.073   0.111   0.028  -0.018
 -0.000   0.000  -0.118  -0.407  -0.083   0.028   0.099   0.020
  0.021  -0.005   0.073  -0.083  -0.508  -0.018   0.020   0.123


------------------------ aborting loop because EDIFF is reached ----------------------------------------




--------------------------------------------------------------------------------------------------------



  FREE ENERGIE OF THE ION-ELECTRON SYSTEM (eV)
  ---------------------------------------------------
  free  energy   TOTEN  =      -141.45063256 eV

  energy  without entropy=     -141.44948184  energy(sigma->0) =     -141.45005720
 


--------------------------------------------------------------------------------------------------------


    POTLOK:  cpu time    1.3396: real time    1.3486


--------------------------------------------------------------------------------------------------------


 writing wavefunctions
     LOOP+:  cpu time 1197.3320: real time 1207.5699
    4ORBIT:  cpu time    0.0000: real time    0.0000

 total amount of memory used by VASP MPI-rank0   357989. kBytes
=======================================================================

   base      :      30000. kBytes
   nonl-proj :     155943. kBytes
   fftplans  :      17764. kBytes
   grid      :      13358. kBytes
   one-center:         77. kBytes
   wavefun   :     140847. kBytes
 
  
  
 General timing and accounting informations for this job:
 ========================================================
  
                  Total CPU time used (sec):     1202.524
                            User time (sec):     1191.527
                          System time (sec):       10.998
                         Elapsed time (sec):     1213.816
  
                   Maximum memory used (kb):      577388.
                   Average memory used (kb):          N/A
  
                          Minor page faults:      1524282
                          Major page faults:           26
                 Voluntary context switches:        10741
