 vasp.6.2.0 18Jan21 (build Jan 05 2022 15:41:44) complex                        
  
 executed on             LinuxIFC date 2025.05.07  17:45:33
 running on   24 total cores
 distrk:  each k-point on   12 cores,    2 groups
 distr:  one band on NCORE=   2 cores,    6 groups


--------------------------------------------------------------------------------------------------------


 INCAR:
   SYSTEM = routine with relax: pwdword
   ICHARG = 2
   NPAR = 6
   KPAR = 2
   NCORE = 2
   ADDGRID = T
   PREC = Acc
   ENCUT = 600
   METAGGA = R2SCAN
   LASPH = .TRUE.
   LMIXTAU = .FALSE.
   ALGO = A
   EDIFF = 1E-9
   NELM = 100
   NELMIN = 6
   IALGO = 38
   LREAL = F
   NSW = 0
   ISIF = -1
   ISMEAR = 0
   SIGMA = 0.02

 POTCAR:    PAW_PBE B 06Sep2000                   
 POTCAR:    PAW_PBE Mo_sv 02Feb2006               
 POTCAR:    PAW_PBE Si 05Jan2001                  
 -----------------------------------------------------------------------------
|                                                                             |
|           W    W    AA    RRRRR   N    N  II  N    N   GGGG   !!!           |
|           W    W   A  A   R    R  NN   N  II  NN   N  G    G  !!!           |
|           W    W  A    A  R    R  N N  N  II  N N  N  G       !!!           |
|           W WW W  AAAAAA  RRRRR   N  N N  II  N  N N  G  GGG   !            |
|           WW  WW  A    A  R   R   N   NN  II  N   NN  G    G                |
|           W    W  A    A  R    R  N    N  II  N    N   GGGG   !!!           |
|                                                                             |
|     For optimal performance we recommend to set                             |
|       NCORE = 2 up to number-of-cores-per-socket                            |
|     NCORE specifies how many cores store one orbital (NPAR=cpu/NCORE).      |
|     This setting can greatly improve the performance of VASP for DFT.       |
|     The default, NCORE=1 might be grossly inefficient on modern             |
|     multi-core architectures or massively parallel machines. Do your        |
|     own testing! More info at https://www.vasp.at/wiki/index.php/NCORE      |
|     Unfortunately you need to use the default for GW and RPA                |
|     calculations (for HF NCORE is supported but not extensively tested      |
|     yet).                                                                   |
|                                                                             |
 -----------------------------------------------------------------------------

 POTCAR:    PAW_PBE B 06Sep2000                   
   VRHFIN =B: s2p1                                                                                  
   LEXCH  = PE                                                                                      
   EATOM  =    71.1703 eV,    5.2309 Ry                                                             
                                                                                                    
   TITEL  = PAW_PBE B 06Sep2000                                                                     
   LULTRA =        F    use ultrasoft PP ?                                                          
   IUNSCR =        1    unscreen: 0-lin 1-nonlin 2-no                                               
   RPACOR =    1.200    partial core radius                                                         
   POMASS =   10.811; ZVAL   =    3.000    mass and valenz                                          
   RCORE  =    1.700    outmost cutoff radius                                                       
   RWIGS  =    1.710; RWIGS  =    0.905    wigner-seitz radius (au A)                               
   ENMAX  =  318.614; ENMIN  =  238.960 eV                                                          
   ICORE  =        2    local potential                                                             
   LCOR   =        T    correct aug charges                                                         
   LPAW   =        T    paw PP                                                                      
   EAUG   =  535.514                                                                                
   DEXC   =    0.000                                                                                
   RMAX   =    1.732    core radius for proj-oper                                                   
   RAUG   =    1.300    factor for augmentation sphere                                              
   RDEP   =    1.757    radius for radial grids                                                     
   RDEPT  =    1.436    core radius for aug-charge                                                  
                                                                                                    
   Atomic configuration                                                                             
    4 entries                                                                                       
     n  l   j            E        occ.                                                              
     1  0  0.50      -180.5896   2.0000                                                             
     2  0  0.50        -9.4431   2.0000                                                             
     2  1  0.50        -3.6068   1.0000                                                             
     3  2  1.50        -4.0817   0.0000                                                             
   Description                                                                                      
     l       E           TYP  RCUT    TYP  RCUT                                                     
     0     -9.4430752     23  1.500                                                                 
     0      0.8675899     23  1.500                                                                 
     1     -3.6067955     23  1.700                                                                 
     1      6.1086146     23  1.700                                                                 
     2     -4.0817478      7  1.700                                                                 
  local pseudopotential read in
  partial core-charges read in
  partial kinetic energy density read in
  atomic valenz-charges read in
  non local Contribution for L=           0  read in
    real space projection operators read in
  non local Contribution for L=           0  read in
    real space projection operators read in
  non local Contribution for L=           1  read in
    real space projection operators read in
  non local Contribution for L=           1  read in
    real space projection operators read in
    PAW grid and wavefunctions read in
 
   number of l-projection  operators is LMAX  =           4
   number of lm-projection operators is LMMAX =           8
 
 POTCAR:    PAW_PBE Mo_sv 02Feb2006               
   VRHFIN =Mo: 4p5s4d                                                                               
   LEXCH  = PE                                                                                      
   EATOM  =  1862.2866 eV,  136.8742 Ry                                                             
                                                                                                    
   TITEL  = PAW_PBE Mo_sv 02Feb2006                                                                 
   LULTRA =        F    use ultrasoft PP ?                                                          
   IUNSCR =        1    unscreen: 0-lin 1-nonlin 2-no                                               
   RPACOR =    2.200    partial core radius                                                         
   POMASS =   95.940; ZVAL   =   14.000    mass and valenz                                          
   RCORE  =    2.500    outmost cutoff radius                                                       
   RWIGS  =    2.750; RWIGS  =    1.455    wigner-seitz radius (au A)                               
   ENMAX  =  242.676; ENMIN  =  182.007 eV                                                          
   ICORE  =        3    local potential                                                             
   LCOR   =        T    correct aug charges                                                         
   LPAW   =        T    paw PP                                                                      
   EAUG   =  446.014                                                                                
   DEXC   =    0.000                                                                                
   RMAX   =    2.563    core radius for proj-oper                                                   
   RAUG   =    1.300    factor for augmentation sphere                                              
   RDEP   =    2.641    radius for radial grids                                                     
   RDEPT  =    2.031    core radius for aug-charge                                                  
                                                                                                    
   Atomic configuration                                                                             
   11 entries                                                                                       
     n  l   j            E        occ.                                                              
     1  0  0.50    -19819.0341   2.0000                                                             
     2  0  0.50     -2799.0127   2.0000                                                             
     2  1  1.50     -2502.0276   6.0000                                                             
     3  0  0.50      -476.4449   2.0000                                                             
     3  1  1.50      -379.1496   6.0000                                                             
     3  2  2.50      -220.9367  10.0000                                                             
     4  0  0.50       -64.3378   2.0000                                                             
     5  0  0.50        -4.0862   1.0000                                                             
     4  1  1.50       -38.4773   6.0000                                                             
     4  2  2.50        -3.7535   5.0000                                                             
     4  3  2.50        -1.3606   0.0000                                                             
   Description                                                                                      
     l       E           TYP  RCUT    TYP  RCUT                                                     
     0    -64.3377829     23  2.100                                                                 
     0     -4.0861640     23  2.400                                                                 
     1    -38.4772993     23  2.100                                                                 
     1     13.6058260     23  2.100                                                                 
     2     -3.7534941     23  2.400                                                                 
     2     -5.1140767     23  2.400                                                                 
     3     -4.0817478     23  2.500                                                                 
  local pseudopotential read in
  partial core-charges read in
  partial kinetic energy density read in
  atomic valenz-charges read in
  non local Contribution for L=           0  read in
    real space projection operators read in
  non local Contribution for L=           0  read in
    real space projection operators read in
  non local Contribution for L=           1  read in
    real space projection operators read in
  non local Contribution for L=           1  read in
    real space projection operators read in
  non local Contribution for L=           2  read in
    real space projection operators read in
  non local Contribution for L=           2  read in
    real space projection operators read in
    PAW grid and wavefunctions read in
 
   number of l-projection  operators is LMAX  =           6
   number of lm-projection operators is LMMAX =          18
 
 POTCAR:    PAW_PBE Si 05Jan2001                  
   VRHFIN =Si: s2p2                                                                                 
   LEXCH  = PE                                                                                      
   EATOM  =   103.0669 eV,    7.5752 Ry                                                             
                                                                                                    
   TITEL  = PAW_PBE Si 05Jan2001                                                                    
   LULTRA =        F    use ultrasoft PP ?                                                          
   IUNSCR =        1    unscreen: 0-lin 1-nonlin 2-no                                               
   RPACOR =    1.500    partial core radius                                                         
   POMASS =   28.085; ZVAL   =    4.000    mass and valenz                                          
   RCORE  =    1.900    outmost cutoff radius                                                       
   RWIGS  =    2.480; RWIGS  =    1.312    wigner-seitz radius (au A)                               
   ENMAX  =  245.345; ENMIN  =  184.009 eV                                                          
   ICORE  =        2    local potential                                                             
   LCOR   =        T    correct aug charges                                                         
   LPAW   =        T    paw PP                                                                      
   EAUG   =  322.069                                                                                
   DEXC   =    0.000                                                                                
   RMAX   =    1.950    core radius for proj-oper                                                   
   RAUG   =    1.300    factor for augmentation sphere                                              
   RDEP   =    1.993    radius for radial grids                                                     
   RDEPT  =    1.837    core radius for aug-charge                                                  
                                                                                                    
   Atomic configuration                                                                             
    6 entries                                                                                       
     n  l   j            E        occ.                                                              
     1  0  0.50     -1785.8828   2.0000                                                             
     2  0  0.50      -139.4969   2.0000                                                             
     2  1  1.50       -95.5546   6.0000                                                             
     3  0  0.50       -10.8127   2.0000                                                             
     3  1  0.50        -4.0811   2.0000                                                             
     3  2  1.50        -4.0817   0.0000                                                             
   Description                                                                                      
     l       E           TYP  RCUT    TYP  RCUT                                                     
     0    -10.8127223     23  1.900                                                                 
     0     -7.6451159     23  1.900                                                                 
     1     -4.0811372     23  1.900                                                                 
     1      2.4879257     23  1.900                                                                 
     2     -4.0817478      7  1.900                                                                 
  local pseudopotential read in
  partial core-charges read in
  partial kinetic energy density read in
  atomic valenz-charges read in
  non local Contribution for L=           0  read in
    real space projection operators read in
  non local Contribution for L=           0  read in
    real space projection operators read in
  non local Contribution for L=           1  read in
    real space projection operators read in
  non local Contribution for L=           1  read in
    real space projection operators read in
    PAW grid and wavefunctions read in
 
   number of l-projection  operators is LMAX  =           4
   number of lm-projection operators is LMMAX =           8
 
 -----------------------------------------------------------------------------
|                                                                             |
|               ----> ADVICE to this user running VASP <----                  |
|                                                                             |
|     You have a (more or less) 'large supercell' and for larger cells it     |
|     might be more efficient to use real-space projection operators.         |
|     Therefore, try LREAL= Auto in the INCAR file.                           |
|     Mind: For very accurate calculation, you might also keep the            |
|     reciprocal projection scheme (i.e. LREAL=.FALSE.).                      |
|                                                                             |
 -----------------------------------------------------------------------------

  PAW_PBE B 06Sep2000                   :
 energy of atom  1       EATOM=  -71.1703
 kinetic energy error for atom=    0.0007 (will be added to EATOM!!)
  PAW_PBE Mo_sv 02Feb2006               :
 energy of atom  2       EATOM=-1862.2866
 kinetic energy error for atom=    0.0041 (will be added to EATOM!!)
  PAW_PBE Si 05Jan2001                  :
 energy of atom  3       EATOM= -103.0669
 kinetic energy error for atom=    0.0003 (will be added to EATOM!!)
 
 
 POSCAR: EA127
  positions in direct lattice
  No initial velocities read in

 METAGGA = R2SCA    LMAXTAU =  6    LMIXTAU =  F

 exchange correlation table for  LEXCH =        8
   RHO(1)=    0.500       N(1)  =     2000
   RHO(2)=  100.500       N(2)  =     4000
 


--------------------------------------------------------------------------------------------------------


 ion  position               nearest neighbor table
   1  0.265  0.963  0.228-  13 1.60  10 1.83   6 1.91  15 2.57  18 2.57  14 2.80   9 2.80
   2  0.235  0.463  0.698-  10 1.60  13 1.83   3 1.91  17 2.57  16 2.57   9 2.80  14 2.80
   3  0.037  0.265  0.302-  10 1.60  11 1.83   2 1.91  16 2.57  17 2.57   9 2.80  14 2.80
   4  0.963  0.735  0.698-  12 1.60  13 1.83   5 1.91  16 2.57  17 2.57  14 2.80   9 2.80
   5  0.765  0.537  0.302-  12 1.60  11 1.83   4 1.91  17 2.57  16 2.57  14 2.80   9 2.80
   6  0.463  0.765  0.228-  13 1.60  12 1.83   1 1.91  15 2.57  18 2.57   9 2.80  14 2.80
   7  0.735  0.037  0.772-  11 1.60  12 1.83   8 1.91  15 2.57  18 2.57   9 2.80  14 2.80
   8  0.537  0.235  0.772-  11 1.60  10 1.83   7 1.91  15 2.57  18 2.57  14 2.80   9 2.80
   9  0.250  0.250  0.000-  15 2.42  18 2.42  17 2.42  16 2.42   6 2.80   7 2.80   3 2.80   2 2.80
                             4 2.80   5 2.80   1 2.80   8 2.80  13 3.22  11 3.22  10 3.22  10 3.22
  10  0.269  0.231  0.500-   2 1.60   3 1.60   1 1.83   8 1.83  16 2.12  17 2.12   9 3.22   9 3.22
                            14 3.22  14 3.22  11 3.43  13 3.43  11 3.43  13 3.43
  11  0.769  0.269  0.038-   7 1.60   8 1.60   5 1.83   3 1.83  15 2.12  18 2.12  14 3.22   9 3.22
                            14 3.22   9 3.22  12 3.43  10 3.43  12 3.43  10 3.43
  12  0.731  0.769  0.500-   4 1.60   5 1.60   6 1.83   7 1.83  16 2.12  17 2.12  14 3.22  14 3.22
                             9 3.22   9 3.22  11 3.43  13 3.43  11 3.43  13 3.43
  13  0.231  0.731  0.962-   1 1.60   6 1.60   2 1.83   4 1.83  15 2.12  18 2.12   9 3.22  14 3.22
                             9 3.22  14 3.22  10 3.43  12 3.43  10 3.43  12 3.43
  14  0.750  0.750  0.000-  15 2.42  18 2.42  16 2.42  17 2.42   8 2.80   1 2.80   5 2.80   4 2.80
                             3 2.80   2 2.80   6 2.80   7 2.80  11 3.22  13 3.22  12 3.22  12 3.22
  15  0.000  0.500  0.000-  11 2.12  13 2.12   9 2.42  14 2.42   1 2.57   6 2.57   7 2.57   8 2.57

  16  0.000  0.000  0.500-  10 2.12  12 2.12   9 2.42  14 2.42   3 2.57   4 2.57   2 2.57   5 2.57

  17  0.500  0.500  0.500-  10 2.12  12 2.12  14 2.42   9 2.42   2 2.57   5 2.57   4 2.57   3 2.57

  18  0.500  0.000  0.000-  11 2.12  13 2.12   9 2.42  14 2.42   1 2.57   6 2.57   7 2.57   8 2.57

 
  LATTYP: Found a body centered tetragonal cell.
 ALAT       =     6.8378278416
 C/A-ratio  =     1.2379132342
  
  Lattice vectors:
  
 A1 = (   5.7896182408,   0.0000000000,  -2.7875997208)
 A2 = (  -2.2861713095,   5.3191258791,  -2.7875997208)
 A3 = (   0.0000000000,   0.0000000000,   6.4257600000)


Analysis of symmetry for initial positions (statically):
=====================================================================
 Subroutine PRICEL returns:
 Original cell was already a primitive cell.
 

 Routine SETGRP: Setting up the symmetry group for a 
 body centered tetragonal supercell.


 Subroutine GETGRP returns: Found  4 space group operations
 (whereof  2 operations were pure point group operations)
 out of a pool of 16 trial point group operations.


The static configuration has the point symmetry S_2 .
 The point group associated with its full space group is C_2h.


Analysis of symmetry for dynamics (positions and initial velocities):
=====================================================================
 Subroutine PRICEL returns:
 Original cell was already a primitive cell.
 

 Routine SETGRP: Setting up the symmetry group for a 
 body centered tetragonal supercell.


 Subroutine GETGRP returns: Found  4 space group operations
 (whereof  2 operations were pure point group operations)
 out of a pool of 16 trial point group operations.


The dynamic configuration has the point symmetry S_2 .
 The point group associated with its full space group is C_2h.


 Subroutine INISYM returns: Found  4 space group operations
 (whereof  2 operations are pure point group operations),
 and found     1 'primitive' translations


----------------------------------------------------------------------------------------

                                     Primitive cell                                     

  volume of cell :     197.8858

  direct lattice vectors                    reciprocal lattice vectors
     5.789618241  0.000000000 -2.787599721     0.172722960  0.074236686  0.000000000
    -2.286171309  5.319125879 -2.787599721     0.000000000  0.188000815  0.000000000
     0.000000000  0.000000000  6.425760000     0.074930043  0.113762914  0.155623615

  length of vectors
     6.425760000  6.425760000  6.425760000     0.188000815  0.188000815  0.206821714

  position of ions in fractional coordinates (direct lattice)
     0.265030000  0.962900000  0.227940000
     0.234970000  0.462900000  0.697870000
     0.037100000  0.265030000  0.302130000
     0.962900000  0.734970000  0.697870000
     0.765030000  0.537100000  0.302130000
     0.462900000  0.765030000  0.227940000
     0.734970000  0.037100000  0.772060000
     0.537100000  0.234970000  0.772060000
     0.250000000  0.250000000  0.000000000
     0.269010000  0.230990000  0.500000000
     0.769010000  0.269010000  0.038020000
     0.730990000  0.769010000  0.500000000
     0.230990000  0.730990000  0.961980000
     0.750000000  0.750000000  0.000000000
     0.000000000  0.500000000  0.000000000
     0.000000000  0.000000000  0.500000000
     0.500000000  0.500000000  0.500000000
     0.500000000  0.000000000  0.000000000

  ion indices of the primitive-cell ions
   primitive index   ion index
                 1           1
                 2           2
                 3           3
                 4           4
                 5           5
                 6           6
                 7           7
                 8           8
                 9           9
                10          10
                11          11
                12          12
                13          13
                14          14
                15          15
                16          16
                17          17
                18          18

----------------------------------------------------------------------------------------

 
 
 KPOINTS: EA                                      

Automatic generation of k-mesh.
 Grid dimensions read from file:
 generate k-points for:    7    7    7

 Generating k-lattice:

  Cartesian coordinates                     Fractional coordinates (reciprocal lattice)
     0.024674709  0.010605241  0.000000000     0.142857143 -0.000000000  0.000000000
     0.000000000  0.026857259  0.000000000     0.000000000  0.142857143  0.000000000
     0.010704292  0.016251845  0.022231945    -0.000000000 -0.000000000  0.142857143

  Length of vectors
     0.026857259  0.026857259  0.029545959

  Shift w.r.t. Gamma in fractional coordinates (k-lattice)
     0.000000000  0.000000000  0.000000000

 
 Subroutine IBZKPT returns following result:
 ===========================================
 
 Found    100 irreducible k-points:
 
 Following reciprocal coordinates:
            Coordinates               Weight
  0.000000  0.000000  0.000000      1.000000
  0.142857 -0.000000  0.000000      4.000000
 -0.000000  0.142857 -0.142857      4.000000
  0.285714 -0.000000  0.000000      4.000000
  0.000000  0.285714 -0.285714      4.000000
  0.428571  0.000000  0.000000      4.000000
  0.000000  0.428571 -0.428571      4.000000
  0.142857  0.142857  0.000000      2.000000
 -0.000000  0.285714 -0.142857      4.000000
  0.142857  0.142857 -0.285714      2.000000
  0.285714  0.142857  0.000000      4.000000
 -0.000000  0.428571 -0.142857      4.000000
  0.142857  0.285714 -0.428571      4.000000
  0.428571 -0.000000 -0.285714      4.000000
  0.428571  0.142857  0.000000      4.000000
 -0.000000 -0.428571 -0.142857      4.000000
  0.142857  0.428571  0.428571      4.000000
 -0.428571  0.000000 -0.428571      4.000000
 -0.428571  0.142857  0.000000      4.000000
 -0.000000 -0.285714 -0.142857      4.000000
  0.142857 -0.428571  0.285714      4.000000
 -0.285714 -0.000000  0.428571      4.000000
 -0.285714  0.142857  0.000000      4.000000
 -0.000000 -0.142857 -0.142857      4.000000
  0.142857 -0.285714  0.142857      4.000000
 -0.142857  0.000000  0.285714      4.000000
 -0.142857  0.142857  0.000000      2.000000
 -0.000000  0.000000 -0.142857      2.000000
  0.285714  0.285714  0.000000      2.000000
  0.000000 -0.428571 -0.285714      4.000000
  0.285714  0.285714  0.428571      2.000000
  0.428571  0.285714  0.000000      4.000000
  0.000000 -0.285714 -0.285714      4.000000
  0.285714  0.428571  0.285714      4.000000
 -0.285714  0.000000 -0.428571      4.000000
 -0.428571  0.285714  0.000000      4.000000
  0.000000 -0.142857 -0.285714      4.000000
  0.285714 -0.428571  0.142857      4.000000
 -0.142857  0.000000  0.428571      4.000000
 -0.285714  0.285714  0.000000      2.000000
  0.000000 -0.000000 -0.285714      2.000000
  0.428571  0.428571  0.000000      2.000000
  0.000000 -0.142857 -0.428571      4.000000
  0.428571  0.428571  0.142857      2.000000
 -0.428571  0.428571  0.000000      2.000000
  0.000000  0.000000 -0.428571      2.000000
  0.142857  0.142857  0.142857      2.000000
 -0.142857  0.428571 -0.142857      4.000000
  0.142857  0.142857 -0.428571      2.000000
  0.285714  0.142857  0.142857      4.000000
 -0.142857 -0.428571 -0.142857      4.000000
  0.142857  0.285714  0.428571      4.000000
 -0.428571 -0.142857 -0.285714      4.000000
 -0.142857  0.142857  0.142857      4.000000
  0.285714  0.285714  0.142857      2.000000
 -0.142857 -0.285714 -0.285714      4.000000
  0.285714  0.285714  0.285714      2.000000
  0.428571  0.285714  0.142857      4.000000
 -0.142857 -0.142857 -0.285714      2.000000
 -0.142857 -0.142857 -0.428571      2.000000
 -0.285714  0.285714  0.142857      4.000000
 -0.142857  0.142857 -0.285714      4.000000
 -0.142857  0.285714  0.142857      4.000000
 -0.142857  0.285714 -0.285714      4.000000
 -0.428571  0.428571  0.142857      4.000000
 -0.142857  0.142857 -0.428571      4.000000
 -0.285714  0.428571  0.142857      4.000000
 -0.142857  0.285714 -0.428571      4.000000
  0.428571 -0.285714 -0.285714      4.000000
  0.285714 -0.142857  0.285714      4.000000
 -0.142857  0.428571  0.142857      4.000000
 -0.142857  0.428571 -0.428571      4.000000
 -0.428571 -0.428571  0.142857      2.000000
 -0.142857  0.285714  0.428571      4.000000
 -0.428571 -0.428571 -0.285714      2.000000
 -0.285714 -0.428571  0.142857      4.000000
 -0.142857  0.428571  0.428571      4.000000
 -0.428571 -0.285714 -0.428571      4.000000
  0.428571 -0.142857  0.285714      4.000000
 -0.142857 -0.428571  0.142857      4.000000
 -0.142857 -0.428571  0.428571      4.000000
 -0.285714 -0.285714  0.142857      2.000000
 -0.142857 -0.428571  0.285714      4.000000
 -0.285714 -0.285714  0.428571      2.000000
 -0.142857 -0.285714  0.142857      4.000000
 -0.142857 -0.285714  0.285714      4.000000
 -0.142857 -0.142857  0.142857      2.000000
 -0.285714  0.285714  0.285714      4.000000
 -0.428571  0.428571  0.285714      4.000000
 -0.285714  0.285714 -0.428571      4.000000
 -0.285714  0.428571  0.285714      4.000000
 -0.285714  0.428571 -0.428571      4.000000
 -0.428571 -0.428571  0.285714      2.000000
 -0.285714  0.428571  0.428571      4.000000
 -0.428571 -0.428571 -0.428571      2.000000
 -0.285714 -0.428571  0.285714      4.000000
 -0.285714 -0.428571  0.428571      4.000000
 -0.285714 -0.285714  0.285714      2.000000
 -0.428571  0.428571  0.428571      4.000000
 -0.428571 -0.428571  0.428571      2.000000
 
 Following cartesian coordinates:
            Coordinates               Weight
  0.000000  0.000000  0.000000      1.000000
  0.024675  0.010605  0.000000      4.000000
 -0.010704  0.010605 -0.022232      4.000000
  0.049349  0.021210  0.000000      4.000000
 -0.021409  0.021211 -0.044464      4.000000
  0.074024  0.031816  0.000000      4.000000
 -0.032113  0.031816 -0.066696      4.000000
  0.024675  0.037463  0.000000      2.000000
 -0.010704  0.037463 -0.022232      4.000000
  0.003266  0.004959 -0.044464      2.000000
  0.049349  0.048068  0.000000      4.000000
 -0.010704  0.064320 -0.022232      4.000000
 -0.007438  0.015564 -0.066696      4.000000
  0.052616 -0.000688 -0.044464      4.000000
  0.074024  0.058673  0.000000      4.000000
 -0.010704 -0.096824 -0.022232      4.000000
  0.056788  0.139933  0.066696      4.000000
 -0.106137 -0.080571 -0.066696      4.000000
 -0.074024 -0.004958  0.000000      4.000000
 -0.010704 -0.069966 -0.022232      4.000000
  0.046083 -0.037463  0.044464      4.000000
 -0.017237  0.027545  0.066696      4.000000
 -0.049349  0.005647  0.000000      4.000000
 -0.010704 -0.043109 -0.022232      4.000000
  0.035379 -0.026857  0.022232      4.000000
 -0.003266  0.021898  0.044464      4.000000
 -0.024675  0.016252  0.000000      2.000000
 -0.010704 -0.016252 -0.022232      2.000000
  0.049349  0.074925  0.000000      2.000000
 -0.021409 -0.113075 -0.044464      4.000000
  0.081462  0.123681  0.066696      2.000000
  0.074024  0.085530  0.000000      4.000000
 -0.021409 -0.086218 -0.044464      4.000000
  0.070758  0.134286  0.044464      4.000000
 -0.081462 -0.069966 -0.066696      4.000000
 -0.074024  0.021899  0.000000      4.000000
 -0.021409 -0.059361 -0.044464      4.000000
  0.060054 -0.043109  0.022232      4.000000
  0.007438  0.038150  0.066696      4.000000
 -0.049349  0.032504  0.000000      2.000000
 -0.021409 -0.032504 -0.044464      2.000000
  0.074024  0.112388  0.000000      2.000000
 -0.032113 -0.075613 -0.066696      4.000000
  0.084728  0.128639  0.022232      2.000000
 -0.074024  0.048756  0.000000      2.000000
 -0.032113 -0.048756 -0.066696      2.000000
  0.035379  0.053714  0.022232      2.000000
 -0.035379  0.053715 -0.022232      4.000000
 -0.007438 -0.011293 -0.066696      2.000000
  0.060054  0.064320  0.022232      4.000000
 -0.035379 -0.107429 -0.022232      4.000000
  0.056788  0.113075  0.066696      4.000000
 -0.095433 -0.091177 -0.044464      4.000000
 -0.013970  0.032504  0.022232      4.000000
  0.060054  0.091177  0.022232      2.000000
 -0.046083 -0.096823 -0.044464      4.000000
  0.070758  0.107429  0.044464      2.000000
  0.084728  0.101782  0.022232      4.000000
 -0.046083 -0.069966 -0.044464      2.000000
 -0.056788 -0.086218 -0.066696      2.000000
 -0.038645  0.048756  0.022232      4.000000
 -0.046083 -0.016252 -0.044464      4.000000
 -0.013970  0.059361  0.022232      4.000000
 -0.046083  0.010606 -0.044464      4.000000
 -0.063320  0.065008  0.022232      4.000000
 -0.056788 -0.032504 -0.066696      4.000000
 -0.038645  0.075613  0.022232      4.000000
 -0.056788 -0.005646 -0.066696      4.000000
  0.052616 -0.054402 -0.044464      4.000000
  0.070758  0.026857  0.044464      4.000000
 -0.013970  0.086218  0.022232      4.000000
 -0.056788  0.021211 -0.066696      4.000000
 -0.063320 -0.096136  0.022232      2.000000
  0.007438  0.091865  0.066696      4.000000
 -0.095433 -0.144891 -0.044464      2.000000
 -0.038645 -0.085530  0.022232      4.000000
  0.007438  0.118722  0.066696      4.000000
 -0.106137 -0.134286 -0.066696      4.000000
  0.095433  0.037462  0.044464      4.000000
 -0.013970 -0.074925  0.022232      4.000000
  0.007438 -0.042421  0.066696      4.000000
 -0.038645 -0.058673  0.022232      2.000000
 -0.003266 -0.058673  0.044464      4.000000
 -0.017237 -0.026169  0.066696      2.000000
 -0.013970 -0.048068  0.022232      4.000000
 -0.003266 -0.031816  0.044464      4.000000
 -0.013970 -0.021211  0.022232      2.000000
 -0.027941  0.065008  0.044464      4.000000
 -0.052616  0.081260  0.044464      4.000000
 -0.081462 -0.016251 -0.066696      4.000000
 -0.027941  0.091865  0.044464      4.000000
 -0.081462  0.010606 -0.066696      4.000000
 -0.052616 -0.079884  0.044464      2.000000
 -0.017237  0.108117  0.066696      4.000000
 -0.106137 -0.161143 -0.066696      2.000000
 -0.027941 -0.069279  0.044464      4.000000
 -0.017237 -0.053027  0.066696      4.000000
 -0.027941 -0.042421  0.044464      2.000000
 -0.041911  0.097512  0.066696      4.000000
 -0.041911 -0.063632  0.066696      2.000000
 


--------------------------------------------------------------------------------------------------------




 Dimension of arrays:
   k-points           NKPTS =    100   k-points in BZ     NKDIM =    100   number of bands    NBANDS=     78
   number of dos      NEDOS =    301   number of ions     NIONS =     18
   non local maximal  LDIM  =      6   non local SUM 2l+1 LMDIM =     18
   total plane-waves  NPLWV = 157464
   max r-space proj   IRMAX =      1   max aug-charges    IRDMAX= 278556
   dimension x,y,z NGX =    54 NGY =   54 NGZ =   54
   dimension x,y,z NGXF=   108 NGYF=  108 NGZF=  108
   support grid    NGXF=   216 NGYF=  216 NGZF=  216
   ions per type =               8   6   4
   NGX,Y,Z   is equivalent  to a cutoff of  13.97, 13.97, 13.97 a.u.
   NGXF,Y,Z  is equivalent  to a cutoff of  27.94, 27.94, 27.94 a.u.

 SYSTEM =  routine with relax: pwdword             
 POSCAR =  EA127                                   

 Startparameter for this run:
   NWRITE =      2    write-flag & timer
   PREC   = acc       normal or accurate (medium, high low for compatibility)
   ISTART =      0    job   : 0-new  1-cont  2-samecut
   ICHARG =      2    charge: 1-file 2-atom 10-const
   ISPIN  =      1    spin polarized calculation?
   LNONCOLLINEAR =      F non collinear calculations
   LSORBIT =      F    spin-orbit coupling
   INIWAV =      1    electr: 0-lowe 1-rand  2-diag
   LASPH  =      T    aspherical Exc in radial PAW
   METAGGA=      F    non-selfconsistent MetaGGA calc.

 Electronic Relaxation 1
   ENCUT  =  600.0 eV  44.10 Ry    6.64 a.u.  12.83 12.83 12.83*2*pi/ulx,y,z
   ENINI  =  600.0     initial cutoff
   ENAUG  =  535.5 eV  augmentation charge cutoff
   NELM   =    100;   NELMIN=  6; NELMDL= -5     # of ELM steps 
   EDIFF  = 0.1E-08   stopping-criterion for ELM
   LREAL  =      F    real-space projection
   NLSPLINE    = F    spline interpolate recip. space projectors
   LCOMPAT=      F    compatible to vasp.4.4
   GGA_COMPAT  = T    GGA compatible to vasp.4.4-vasp.4.6
   LMAXPAW     = -100 max onsite density
   LMAXMIX     =    2 max onsite mixed and CHGCAR
   VOSKOWN=      0    Vosko Wilk Nusair interpolation
   ROPT   =    0.00000   0.00000   0.00000
 Ionic relaxation
   EDIFFG = 0.1E-07   stopping-criterion for IOM
   NSW    =      0    number of steps for IOM
   NBLOCK =      1;   KBLOCK =      1    inner block; outer block 
   IBRION =     -1    ionic relax: 0-MD 1-quasi-New 2-CG
   NFREE  =      0    steps in history (QN), initial steepest desc. (CG)
   ISIF   =     -1    stress and relaxation
   IWAVPR =     10    prediction:  0-non 1-charg 2-wave 3-comb
   ISYM   =      2    0-nonsym 1-usesym 2-fastsym
   LCORR  =      T    Harris-Foulkes like correction to forces

   POTIM  = 0.5000    time-step for ionic-motion
   TEIN   =    0.0    initial temperature
   TEBEG  =    0.0;   TEEND  =   0.0 temperature during run
   SMASS  =  -3.00    Nose mass-parameter (am)
   estimated Nose-frequenzy (Omega)   =  0.10E-29 period in steps = 0.13E+47 mass=  -0.944E-27a.u.
   SCALEE = 1.0000    scale energy and forces
   NPACO  =    256;   APACO  = 16.0  distance and # of slots for P.C.
   PSTRESS=    0.0 pullay stress

  Mass of Ions in am
   POMASS =  10.81 95.94 28.09
  Ionic Valenz
   ZVAL   =   3.00 14.00  4.00
  Atomic Wigner-Seitz radii
   RWIGS  =  -1.00 -1.00 -1.00
  virtual crystal weights 
   VCA    =   1.00  1.00  1.00
   NELECT =     124.0000    total number of electrons
   NUPDOWN=      -1.0000    fix difference up-down

 DOS related values:
   EMIN   =  10.00;   EMAX   =-10.00  energy-range for DOS
   EFERMI =   0.00
   ISMEAR =     0;   SIGMA  =   0.02  broadening in eV -4-tet -1-fermi 0-gaus

 Electronic relaxation 2 (details)
   IALGO  =     58    algorithm
   LDIAG  =      T    sub-space diagonalisation (order eigenvalues)
   LSUBROT=      F    optimize rotation matrix (better conditioning)
   TURBO    =      0    0=normal 1=particle mesh
   IRESTART =      0    0=no restart 2=restart with 2 vectors
   NREBOOT  =      0    no. of reboots
   NMIN     =      0    reboot dimension
   EREF     =   0.00    reference energy to select bands
   IMIX   =      4    mixing-type and parameters
     AMIX     =   0.40;   BMIX     =  1.00
     AMIX_MAG =   1.60;   BMIX_MAG =  1.00
     AMIN     =   0.10
     WC   =   100.;   INIMIX=   1;  MIXPRE=   1;  MAXMIX= -45

 Intra band minimization:
   WEIMIN = 0.0000     energy-eigenvalue tresh-hold
   EBREAK =  0.32E-11  absolut break condition
   DEPER  =   0.30     relativ break condition  

   TIME   =   0.40     timestep for ELM

  volume/ion in A,a.u.               =      10.99        74.19
  Fermi-wavevector in a.u.,A,eV,Ry     =   1.400911  2.647338 26.702130  1.962551
  Thomas-Fermi vector in A             =   2.523824
 
 Write flags
   LWAVE        =      T    write WAVECAR
   LDOWNSAMPLE  =      F    k-point downsampling of WAVECAR
   LCHARG       =      T    write CHGCAR
   LVTOT        =      F    write LOCPOT, total local potential
   LVHAR        =      F    write LOCPOT, Hartree potential only
   LELF         =      F    write electronic localiz. function (ELF)
   LORBIT       =      0    0 simple, 1 ext, 2 COOP (PROOUT), +10 PAW based schemes


 Dipole corrections
   LMONO  =      F    monopole corrections only (constant potential shift)
   LDIPOL =      F    correct potential (dipole corrections)
   IDIPOL =      0    1-x, 2-y, 3-z, 4-all directions 
   EPSILON=  1.0000000 bulk dielectric constant

 Exchange correlation treatment:
   GGA     =    --    GGA type
   LEXCH   =     8    internal setting for exchange type
   VOSKOWN=      0    Vosko Wilk Nusair interpolation
   LHFCALC =     F    Hartree Fock is set to
   LHFONE  =     F    Hartree Fock one center treatment
   AEXX    =    0.0000 exact exchange contribution

 Linear response parameters
   LEPSILON=     F    determine dielectric tensor
   LRPA    =     F    only Hartree local field effects (RPA)
   LNABLA  =     F    use nabla operator in PAW spheres
   LVEL    =     F    velocity operator in full k-point grid
   LINTERFAST=   F  fast interpolation
   KINTER  =     0    interpolate to denser k-point grid
   CSHIFT  =0.1000    complex shift for real part using Kramers Kronig
   OMEGAMAX=  -1.0    maximum frequency
   DEG_THRESHOLD= 0.2000000E-02 threshold for treating states as degnerate
   RTIME   =   -0.100 relaxation time in fs
  (WPLASMAI=    0.000 imaginary part of plasma frequency in eV, 0.658/RTIME)
   DFIELD  = 0.0000000 0.0000000 0.0000000 field for delta impulse in time
 
 Orbital magnetization related:
   ORBITALMAG=     F  switch on orbital magnetization
   LCHIMAG   =     F  perturbation theory with respect to B field
   DQ        =  0.001000  dq finite difference perturbation B field
   LLRAUG    =     F  two centre corrections for induced B field



--------------------------------------------------------------------------------------------------------


 Static calculation
 charge density and potential will be updated during run
 non-spin polarized calculation
 Conjugate gradient for all bands (Freysoldt, et al. PRB 79, 241103 (2009))
 preconditioned conjugated gradient                                        
 perform sub-space diagonalisation
    before iterative eigenvector-optimisation
 modified Broyden-mixing scheme, WC =      100.0
 initial mixing is a Kerker type mixing with AMIX =  0.4000 and BMIX =      1.0000
 Hartree-type preconditioning will be used
 using additional bands           16
 reciprocal scheme for non local part
 use partial core corrections
 no Harris-corrections to forces 
 use gradient corrections 
 use of overlap-Matrix (Vanderbilt PP)
 Gauss-broadening in eV      SIGMA  =   0.02


--------------------------------------------------------------------------------------------------------


  energy-cutoff  :      600.00
  volume of cell :      197.89
      direct lattice vectors                 reciprocal lattice vectors
     5.789618241  0.000000000 -2.787599721     0.172722960  0.074236686  0.000000000
    -2.286171309  5.319125879 -2.787599721     0.000000000  0.188000815  0.000000000
     0.000000000  0.000000000  6.425760000     0.074930043  0.113762914  0.155623615

  length of vectors
     6.425760000  6.425760000  6.425760000     0.188000815  0.188000815  0.206821714


 
 k-points in units of 2pi/SCALE and weight: EA                                      
   0.00000000  0.00000000  0.00000000       0.003
   0.02467471  0.01060524  0.00000000       0.012
  -0.01070429  0.01060541 -0.02223194       0.012
   0.04934942  0.02121048  0.00000000       0.012
  -0.02140858  0.02121083 -0.04446389       0.012
   0.07402413  0.03181572  0.00000000       0.012
  -0.03211288  0.03181624 -0.06669583       0.012
   0.02467471  0.03746250  0.00000000       0.006
  -0.01070429  0.03746267 -0.02223194       0.012
   0.00326612  0.00495881 -0.04446389       0.006
   0.04934942  0.04806774  0.00000000       0.012
  -0.01070429  0.06431993 -0.02223194       0.012
  -0.00743817  0.01556422 -0.06669583       0.012
   0.05261554 -0.00068797 -0.04446389       0.012
   0.07402413  0.05867298  0.00000000       0.012
  -0.01070429 -0.09682362 -0.02223194       0.012
   0.05678758  0.13993255  0.06669583       0.012
  -0.10613700 -0.08057126 -0.06669583       0.012
  -0.07402413 -0.00495846  0.00000000       0.012
  -0.01070429 -0.06996636 -0.02223194       0.012
   0.04608329 -0.03746285  0.04446389       0.012
  -0.01723654  0.02754505  0.06669583       0.012
  -0.04934942  0.00564678  0.00000000       0.012
  -0.01070429 -0.04310910 -0.02223194       0.012
   0.03537900 -0.02685743  0.02223194       0.012
  -0.00326612  0.02189845  0.04446389       0.012
  -0.02467471  0.01625202  0.00000000       0.006
  -0.01070429 -0.01625184 -0.02223194       0.006
   0.04934942  0.07492500  0.00000000       0.006
  -0.02140858 -0.11307547 -0.04446389       0.012
   0.08146229  0.12368053  0.06669583       0.006
   0.07402413  0.08553024  0.00000000       0.012
  -0.02140858 -0.08621821 -0.04446389       0.012
   0.07075800  0.13428595  0.04446389       0.012
  -0.08146229 -0.06996602 -0.06669583       0.012
  -0.07402413  0.02189880  0.00000000       0.012
  -0.02140858 -0.05936095 -0.04446389       0.012
   0.06005371 -0.04310945  0.02223194       0.012
   0.00743817  0.03815029  0.06669583       0.012
  -0.04934942  0.03250404  0.00000000       0.006
  -0.02140858 -0.03250369 -0.04446389       0.006
   0.07402413  0.11238750  0.00000000       0.006
  -0.03211288 -0.07561279 -0.06669583       0.012
   0.08472842  0.12863935  0.02223194       0.006
  -0.07402413  0.04875606  0.00000000       0.006
  -0.03211288 -0.04875553 -0.06669583       0.006
   0.03537900  0.05371434  0.02223194       0.006
  -0.03537900  0.05371469 -0.02223194       0.012
  -0.00743817 -0.01129303 -0.06669583       0.006
   0.06005371  0.06431959  0.02223194       0.012
  -0.03537900 -0.10742886 -0.02223194       0.012
   0.05678758  0.11307529  0.06669583       0.012
  -0.09543271 -0.09117667 -0.04446389       0.012
  -0.01397042  0.03250386  0.02223194       0.012
   0.06005371  0.09117685  0.02223194       0.006
  -0.04608329 -0.09682345 -0.04446389       0.012
   0.07075800  0.10742869  0.04446389       0.006
   0.08472842  0.10178209  0.02223194       0.012
  -0.04608329 -0.06996619 -0.04446389       0.006
  -0.05678758 -0.08621803 -0.06669583       0.006
  -0.03864513  0.04875588  0.02223194       0.012
  -0.04608329 -0.01625167 -0.04446389       0.012
  -0.01397042  0.05936112  0.02223194       0.012
  -0.04608329  0.01060559 -0.04446389       0.012
  -0.06331983  0.06500790  0.02223194       0.012
  -0.05678758 -0.03250352 -0.06669583       0.012
  -0.03864513  0.07561314  0.02223194       0.012
  -0.05678758 -0.00564626 -0.06669583       0.012
   0.05261554 -0.05440249 -0.04446389       0.012
   0.07075800  0.02685691  0.04446389       0.012
  -0.01397042  0.08621838  0.02223194       0.012
  -0.05678758  0.02121100 -0.06669583       0.012
  -0.06331983 -0.09613566  0.02223194       0.006
   0.00743817  0.09186481  0.06669583       0.012
  -0.09543271 -0.14489119 -0.04446389       0.006
  -0.03864513 -0.08553041  0.02223194       0.012
   0.00743817  0.11872207  0.06669583       0.012
  -0.10613700 -0.13428578 -0.06669583       0.012
   0.09543271  0.03746215  0.04446389       0.012
  -0.01397042 -0.07492517  0.02223194       0.012
   0.00743817 -0.04242148  0.06669583       0.012
  -0.03864513 -0.05867316  0.02223194       0.006
  -0.00326612 -0.05867333  0.04446389       0.012
  -0.01723654 -0.02616947  0.06669583       0.006
  -0.01397042 -0.04806791  0.02223194       0.012
  -0.00326612 -0.03181607  0.04446389       0.012
  -0.01397042 -0.02121066  0.02223194       0.006
  -0.02794083  0.06500773  0.04446389       0.012
  -0.05261554  0.08125975  0.04446389       0.012
  -0.08146229 -0.01625150 -0.06669583       0.012
  -0.02794083  0.09186499  0.04446389       0.012
  -0.08146229  0.01060576 -0.06669583       0.012
  -0.05261554 -0.07988381  0.04446389       0.006
  -0.01723654  0.10811683  0.06669583       0.012
  -0.10613700 -0.16114303 -0.06669583       0.006
  -0.02794083 -0.06927857  0.04446389       0.012
  -0.01723654 -0.05302672  0.06669583       0.012
  -0.02794083 -0.04242131  0.04446389       0.006
  -0.04191125  0.09751159  0.06669583       0.012
  -0.04191125 -0.06363197  0.06669583       0.006
 
 k-points in reciprocal lattice and weights: EA                                      
   0.00000000  0.00000000  0.00000000       0.003
   0.14285714 -0.00000000  0.00000000       0.012
  -0.00000000  0.14285714 -0.14285714       0.012
   0.28571429 -0.00000000  0.00000000       0.012
   0.00000000  0.28571429 -0.28571429       0.012
   0.42857143  0.00000000  0.00000000       0.012
   0.00000000  0.42857143 -0.42857143       0.012
   0.14285714  0.14285714  0.00000000       0.006
  -0.00000000  0.28571429 -0.14285714       0.012
   0.14285714  0.14285714 -0.28571429       0.006
   0.28571429  0.14285714  0.00000000       0.012
  -0.00000000  0.42857143 -0.14285714       0.012
   0.14285714  0.28571429 -0.42857143       0.012
   0.42857143 -0.00000000 -0.28571429       0.012
   0.42857143  0.14285714  0.00000000       0.012
  -0.00000000 -0.42857143 -0.14285714       0.012
   0.14285714  0.42857143  0.42857143       0.012
  -0.42857143  0.00000000 -0.42857143       0.012
  -0.42857143  0.14285714  0.00000000       0.012
  -0.00000000 -0.28571429 -0.14285714       0.012
   0.14285714 -0.42857143  0.28571429       0.012
  -0.28571429 -0.00000000  0.42857143       0.012
  -0.28571429  0.14285714  0.00000000       0.012
  -0.00000000 -0.14285714 -0.14285714       0.012
   0.14285714 -0.28571429  0.14285714       0.012
  -0.14285714  0.00000000  0.28571429       0.012
  -0.14285714  0.14285714  0.00000000       0.006
  -0.00000000  0.00000000 -0.14285714       0.006
   0.28571429  0.28571429  0.00000000       0.006
   0.00000000 -0.42857143 -0.28571429       0.012
   0.28571429  0.28571429  0.42857143       0.006
   0.42857143  0.28571429  0.00000000       0.012
   0.00000000 -0.28571429 -0.28571429       0.012
   0.28571429  0.42857143  0.28571429       0.012
  -0.28571429  0.00000000 -0.42857143       0.012
  -0.42857143  0.28571429  0.00000000       0.012
   0.00000000 -0.14285714 -0.28571429       0.012
   0.28571429 -0.42857143  0.14285714       0.012
  -0.14285714  0.00000000  0.42857143       0.012
  -0.28571429  0.28571429  0.00000000       0.006
   0.00000000 -0.00000000 -0.28571429       0.006
   0.42857143  0.42857143  0.00000000       0.006
   0.00000000 -0.14285714 -0.42857143       0.012
   0.42857143  0.42857143  0.14285714       0.006
  -0.42857143  0.42857143  0.00000000       0.006
   0.00000000  0.00000000 -0.42857143       0.006
   0.14285714  0.14285714  0.14285714       0.006
  -0.14285714  0.42857143 -0.14285714       0.012
   0.14285714  0.14285714 -0.42857143       0.006
   0.28571429  0.14285714  0.14285714       0.012
  -0.14285714 -0.42857143 -0.14285714       0.012
   0.14285714  0.28571429  0.42857143       0.012
  -0.42857143 -0.14285714 -0.28571429       0.012
  -0.14285714  0.14285714  0.14285714       0.012
   0.28571429  0.28571429  0.14285714       0.006
  -0.14285714 -0.28571429 -0.28571429       0.012
   0.28571429  0.28571429  0.28571429       0.006
   0.42857143  0.28571429  0.14285714       0.012
  -0.14285714 -0.14285714 -0.28571429       0.006
  -0.14285714 -0.14285714 -0.42857143       0.006
  -0.28571429  0.28571429  0.14285714       0.012
  -0.14285714  0.14285714 -0.28571429       0.012
  -0.14285714  0.28571429  0.14285714       0.012
  -0.14285714  0.28571429 -0.28571429       0.012
  -0.42857143  0.42857143  0.14285714       0.012
  -0.14285714  0.14285714 -0.42857143       0.012
  -0.28571429  0.42857143  0.14285714       0.012
  -0.14285714  0.28571429 -0.42857143       0.012
   0.42857143 -0.28571429 -0.28571429       0.012
   0.28571429 -0.14285714  0.28571429       0.012
  -0.14285714  0.42857143  0.14285714       0.012
  -0.14285714  0.42857143 -0.42857143       0.012
  -0.42857143 -0.42857143  0.14285714       0.006
  -0.14285714  0.28571429  0.42857143       0.012
  -0.42857143 -0.42857143 -0.28571429       0.006
  -0.28571429 -0.42857143  0.14285714       0.012
  -0.14285714  0.42857143  0.42857143       0.012
  -0.42857143 -0.28571429 -0.42857143       0.012
   0.42857143 -0.14285714  0.28571429       0.012
  -0.14285714 -0.42857143  0.14285714       0.012
  -0.14285714 -0.42857143  0.42857143       0.012
  -0.28571429 -0.28571429  0.14285714       0.006
  -0.14285714 -0.42857143  0.28571429       0.012
  -0.28571429 -0.28571429  0.42857143       0.006
  -0.14285714 -0.28571429  0.14285714       0.012
  -0.14285714 -0.28571429  0.28571429       0.012
  -0.14285714 -0.14285714  0.14285714       0.006
  -0.28571429  0.28571429  0.28571429       0.012
  -0.42857143  0.42857143  0.28571429       0.012
  -0.28571429  0.28571429 -0.42857143       0.012
  -0.28571429  0.42857143  0.28571429       0.012
  -0.28571429  0.42857143 -0.42857143       0.012
  -0.42857143 -0.42857143  0.28571429       0.006
  -0.28571429  0.42857143  0.42857143       0.012
  -0.42857143 -0.42857143 -0.42857143       0.006
  -0.28571429 -0.42857143  0.28571429       0.012
  -0.28571429 -0.42857143  0.42857143       0.012
  -0.28571429 -0.28571429  0.28571429       0.006
  -0.42857143  0.42857143  0.42857143       0.012
  -0.42857143 -0.42857143  0.42857143       0.006
 
 position of ions in fractional coordinates (direct lattice) 
   0.26503000  0.96290000  0.22794000
   0.23497000  0.46290000  0.69787000
   0.03710000  0.26503000  0.30213000
   0.96290000  0.73497000  0.69787000
   0.76503000  0.53710000  0.30213000
   0.46290000  0.76503000  0.22794000
   0.73497000  0.03710000  0.77206000
   0.53710000  0.23497000  0.77206000
   0.25000000  0.25000000  0.00000000
   0.26901000  0.23099000  0.50000000
   0.76901000  0.26901000  0.03802000
   0.73099000  0.76901000  0.50000000
   0.23099000  0.73099000  0.96198000
   0.75000000  0.75000000  0.00000000
   0.00000000  0.50000000  0.00000000
   0.00000000  0.00000000  0.50000000
   0.50000000  0.50000000  0.50000000
   0.50000000  0.00000000  0.00000000
 
 position of ions in cartesian coordinates  (Angst):
  -0.66693183  5.12178631 -1.95828959
   0.30211790  2.46222337  2.53896291
  -0.39110915  1.40972793  1.09919737
   3.89455608  3.90939795 -0.24863681
   3.20132903  2.85690251 -1.68840236
   0.93102465  4.06929087 -1.95828959
   4.17037876  0.19733957  2.80885015
   2.57242228  1.24983501  2.80885015
   0.87586173  1.32978147 -1.39379986
   1.02938249  1.22866489  1.81908014
   3.83727138  1.43089805 -2.64927687
   2.47406444  4.09046099 -0.96851958
  -0.33382445  3.88822783  3.49983743
   2.62758520  3.98934441 -4.18139958
  -1.14308565  2.65956294 -1.39379986
   0.00000000  0.00000000  3.21288000
   1.75172347  2.65956294  0.42528028
   2.89480912  0.00000000 -1.39379986
 


--------------------------------------------------------------------------------------------------------


 k-point   1 :   0.0000 0.0000 0.0000  plane waves:    6589
 k-point   2 :   0.1429-0.0000 0.0000  plane waves:    6594
 k-point   3 :  -0.0000 0.1429-0.1429  plane waves:    6594
 k-point   4 :   0.2857-0.0000 0.0000  plane waves:    6593
 k-point   5 :   0.0000 0.2857-0.2857  plane waves:    6593
 k-point   6 :   0.4286 0.0000 0.0000  plane waves:    6612
 k-point   7 :   0.0000 0.4286-0.4286  plane waves:    6612
 k-point   8 :   0.1429 0.1429 0.0000  plane waves:    6595
 k-point   9 :  -0.0000 0.2857-0.1429  plane waves:    6595
 k-point  10 :   0.1429 0.1429-0.2857  plane waves:    6595
 k-point  11 :   0.2857 0.1429 0.0000  plane waves:    6601
 k-point  12 :  -0.0000 0.4286-0.1429  plane waves:    6601
 k-point  13 :   0.1429 0.2857-0.4286  plane waves:    6601
 k-point  14 :   0.4286-0.0000-0.2857  plane waves:    6601
 k-point  15 :   0.4286 0.1429 0.0000  plane waves:    6613
 k-point  16 :  -0.0000-0.4286-0.1429  plane waves:    6613
 k-point  17 :   0.1429 0.4286 0.4286  plane waves:    6613
 k-point  18 :  -0.4286 0.0000-0.4286  plane waves:    6613
 k-point  19 :  -0.4286 0.1429 0.0000  plane waves:    6612
 k-point  20 :  -0.0000-0.2857-0.1429  plane waves:    6612
 k-point  21 :   0.1429-0.4286 0.2857  plane waves:    6612
 k-point  22 :  -0.2857-0.0000 0.4286  plane waves:    6612
 k-point  23 :  -0.2857 0.1429 0.0000  plane waves:    6599
 k-point  24 :  -0.0000-0.1429-0.1429  plane waves:    6599
 k-point  25 :   0.1429-0.2857 0.1429  plane waves:    6599
 k-point  26 :  -0.1429 0.0000 0.2857  plane waves:    6599
 k-point  27 :  -0.1429 0.1429 0.0000  plane waves:    6601
 k-point  28 :  -0.0000 0.0000-0.1429  plane waves:    6601
 k-point  29 :   0.2857 0.2857 0.0000  plane waves:    6609
 k-point  30 :   0.0000-0.4286-0.2857  plane waves:    6609
 k-point  31 :   0.2857 0.2857 0.4286  plane waves:    6609
 k-point  32 :   0.4286 0.2857 0.0000  plane waves:    6605
 k-point  33 :   0.0000-0.2857-0.2857  plane waves:    6605
 k-point  34 :   0.2857 0.4286 0.2857  plane waves:    6605
 k-point  35 :  -0.2857 0.0000-0.4286  plane waves:    6605
 k-point  36 :  -0.4286 0.2857 0.0000  plane waves:    6597
 k-point  37 :   0.0000-0.1429-0.2857  plane waves:    6597
 k-point  38 :   0.2857-0.4286 0.1429  plane waves:    6597
 k-point  39 :  -0.1429 0.0000 0.4286  plane waves:    6597
 k-point  40 :  -0.2857 0.2857 0.0000  plane waves:    6599
 k-point  41 :   0.0000-0.0000-0.2857  plane waves:    6599
 k-point  42 :   0.4286 0.4286 0.0000  plane waves:    6602
 k-point  43 :   0.0000-0.1429-0.4286  plane waves:    6603
 k-point  44 :   0.4286 0.4286 0.1429  plane waves:    6602
 k-point  45 :  -0.4286 0.4286 0.0000  plane waves:    6588
 k-point  46 :   0.0000 0.0000-0.4286  plane waves:    6588
 k-point  47 :   0.1429 0.1429 0.1429  plane waves:    6594
 k-point  48 :  -0.1429 0.4286-0.1429  plane waves:    6594
 k-point  49 :   0.1429 0.1429-0.4286  plane waves:    6594
 k-point  50 :   0.2857 0.1429 0.1429  plane waves:    6609
 k-point  51 :  -0.1429-0.4286-0.1429  plane waves:    6609
 k-point  52 :   0.1429 0.2857 0.4286  plane waves:    6609
 k-point  53 :  -0.4286-0.1429-0.2857  plane waves:    6609
 k-point  54 :  -0.1429 0.1429 0.1429  plane waves:    6585
 k-point  55 :   0.2857 0.2857 0.1429  plane waves:    6594
 k-point  56 :  -0.1429-0.2857-0.2857  plane waves:    6594
 k-point  57 :   0.2857 0.2857 0.2857  plane waves:    6594
 k-point  58 :   0.4286 0.2857 0.1429  plane waves:    6596
 k-point  59 :  -0.1429-0.1429-0.2857  plane waves:    6596
 k-point  60 :  -0.1429-0.1429-0.4286  plane waves:    6596
 k-point  61 :  -0.2857 0.2857 0.1429  plane waves:    6588
 k-point  62 :  -0.1429 0.1429-0.2857  plane waves:    6588
 k-point  63 :  -0.1429 0.2857 0.1429  plane waves:    6600
 k-point  64 :  -0.1429 0.2857-0.2857  plane waves:    6600
 k-point  65 :  -0.4286 0.4286 0.1429  plane waves:    6589
 k-point  66 :  -0.1429 0.1429-0.4286  plane waves:    6589
 k-point  67 :  -0.2857 0.4286 0.1429  plane waves:    6596
 k-point  68 :  -0.1429 0.2857-0.4286  plane waves:    6596
 k-point  69 :   0.4286-0.2857-0.2857  plane waves:    6596
 k-point  70 :   0.2857-0.1429 0.2857  plane waves:    6596
 k-point  71 :  -0.1429 0.4286 0.1429  plane waves:    6603
 k-point  72 :  -0.1429 0.4286-0.4286  plane waves:    6603
 k-point  73 :  -0.4286-0.4286 0.1429  plane waves:    6617
 k-point  74 :  -0.1429 0.2857 0.4286  plane waves:    6617
 k-point  75 :  -0.4286-0.4286-0.2857  plane waves:    6617
 k-point  76 :  -0.2857-0.4286 0.1429  plane waves:    6602
 k-point  77 :  -0.1429 0.4286 0.4286  plane waves:    6602
 k-point  78 :  -0.4286-0.2857-0.4286  plane waves:    6602
 k-point  79 :   0.4286-0.1429 0.2857  plane waves:    6602
 k-point  80 :  -0.1429-0.4286 0.1429  plane waves:    6597
 k-point  81 :  -0.1429-0.4286 0.4286  plane waves:    6597
 k-point  82 :  -0.2857-0.2857 0.1429  plane waves:    6606
 k-point  83 :  -0.1429-0.4286 0.2857  plane waves:    6606
 k-point  84 :  -0.2857-0.2857 0.4286  plane waves:    6606
 k-point  85 :  -0.1429-0.2857 0.1429  plane waves:    6619
 k-point  86 :  -0.1429-0.2857 0.2857  plane waves:    6619
 k-point  87 :  -0.1429-0.1429 0.1429  plane waves:    6601
 k-point  88 :  -0.2857 0.2857 0.2857  plane waves:    6604
 k-point  89 :  -0.4286 0.4286 0.2857  plane waves:    6618
 k-point  90 :  -0.2857 0.2857-0.4286  plane waves:    6618
 k-point  91 :  -0.2857 0.4286 0.2857  plane waves:    6613
 k-point  92 :  -0.2857 0.4286-0.4286  plane waves:    6614
 k-point  93 :  -0.4286-0.4286 0.2857  plane waves:    6617
 k-point  94 :  -0.2857 0.4286 0.4286  plane waves:    6617
 k-point  95 :  -0.4286-0.4286-0.4286  plane waves:    6617
 k-point  96 :  -0.2857-0.4286 0.2857  plane waves:    6619
 k-point  97 :  -0.2857-0.4286 0.4286  plane waves:    6619
 k-point  98 :  -0.2857-0.2857 0.2857  plane waves:    6633
 k-point  99 :  -0.4286 0.4286 0.4286  plane waves:    6636
 k-point 100 :  -0.4286-0.4286 0.4286  plane waves:    6625

 maximum and minimum number of plane-waves per node :      3334     3271

 maximum number of plane-waves:      6636
 maximum index in each direction: 
   IXMAX=   13   IYMAX=   13   IZMAX=   13
   IXMIN=  -13   IYMIN=  -13   IZMIN=  -13


 parallel 3D FFT for wavefunctions:
    minimum data exchange during FFTs selected (reduces bandwidth)
 parallel 3D FFT for charge:
    minimum data exchange during FFTs selected (reduces bandwidth)


 total amount of memory used by VASP MPI-rank0   420874. kBytes
=======================================================================

   base      :      30000. kBytes
   nonl-proj :     145075. kBytes
   fftplans  :      17772. kBytes
   grid      :      13358. kBytes
   one-center:        139. kBytes
   wavefun   :     214530. kBytes
 
     INWAV:  cpu time    0.0000: real time    0.0000
 Broyden mixing: mesh for mixing (old mesh)
   NGX = 25   NGY = 25   NGZ = 25
  (NGX  =108   NGY  =108   NGZ  =108)
  gives a total of  15625 points

 initial charge density was supplied:
 charge density of overlapping atoms calculated
 number of electron     124.0000000 magnetization 
 keeping initial charge density in first step


--------------------------------------------------------------------------------------------------------


 Maximum index for augmentation-charges        22578 (set IRDMAX)


--------------------------------------------------------------------------------------------------------


 First call to EWALD:  gamma=   0.304
 Maximum number of real-space cells 3x 3x 3
 Maximum number of reciprocal cells 3x 3x 3

    FEWALD:  cpu time    0.0294: real time    0.0296


--------------------------------------- Iteration      1(   1)  ---------------------------------------


    POTLOK:  cpu time    0.2319: real time    0.2356
    SETDIJ:  cpu time    0.7822: real time    0.7876
    TRIAL :  cpu time   33.5813: real time   33.8602
    CORREC:  cpu time    0.0020: real time    0.0020
    --------------------------------------------
      LOOP:  cpu time   34.7016: real time   34.9954

 eigenvalue-minimisations  : 16140
 total energy-change (2. order) : 0.1277054E+04  (-0.8331648E+04)
 number of electron     124.0000000 magnetization 
 augmentation part      124.0000000 magnetization 

 Free energy of the ion-electron system (eV)
  ---------------------------------------------------
  alpha Z        PSCENC =       630.95774334
  Ewald energy   TEWEN  =     -9258.92414101
  -Hartree energ DENC   =     -3128.71876862
  -exchange      EXHF   =         0.00000000
  -V(xc)+E(xc)   XCENC  =       525.88445162
  PAW double counting   =      9583.98494199    -9523.92957983
  entropy T*S    EENTRO =        -0.00127777
  eigenvalues    EBANDS =       292.48207346
  atomic energy  EATOM  =     12155.31816883
  ---------------------------------------------------
  free energy    TOTEN  =      1277.05361202 eV

  energy without entropy =     1277.05488979  energy(sigma->0) =     1277.05425090


--------------------------------------------------------------------------------------------------------




--------------------------------------- Iteration      1(   2)  ---------------------------------------


    TRIAL :  cpu time   37.5838: real time   38.4183
    CORREC:  cpu time    0.0021: real time    0.0021
    --------------------------------------------
      LOOP:  cpu time   37.5882: real time   38.4233

 eigenvalue-minimisations  : 17484
 total energy-change (2. order) :-0.1462232E+04  (-0.1415295E+04)
 number of electron     124.0000000 magnetization 
 augmentation part      124.0000000 magnetization 

 Free energy of the ion-electron system (eV)
  ---------------------------------------------------
  alpha Z        PSCENC =       630.95774334
  Ewald energy   TEWEN  =     -9258.92414101
  -Hartree energ DENC   =     -3128.71876862
  -exchange      EXHF   =         0.00000000
  -V(xc)+E(xc)   XCENC  =       525.88445162
  PAW double counting   =      9583.98494199    -9523.92957983
  entropy T*S    EENTRO =        -0.00116218
  eigenvalues    EBANDS =     -1169.75028270
  atomic energy  EATOM  =     12155.31816883
  ---------------------------------------------------
  free energy    TOTEN  =      -185.17862855 eV

  energy without entropy =     -185.17746637  energy(sigma->0) =     -185.17804746


--------------------------------------------------------------------------------------------------------




--------------------------------------- Iteration      1(   3)  ---------------------------------------


    TRIAL :  cpu time   42.0372: real time   42.9900
    CORREC:  cpu time    0.0022: real time    0.0022
    --------------------------------------------
      LOOP:  cpu time   42.0421: real time   42.9954

 eigenvalue-minimisations  : 20094
 total energy-change (2. order) :-0.6426935E+02  (-0.6308023E+02)
 number of electron     124.0000000 magnetization 
 augmentation part      124.0000000 magnetization 

 Free energy of the ion-electron system (eV)
  ---------------------------------------------------
  alpha Z        PSCENC =       630.95774334
  Ewald energy   TEWEN  =     -9258.92414101
  -Hartree energ DENC   =     -3128.71876862
  -exchange      EXHF   =         0.00000000
  -V(xc)+E(xc)   XCENC  =       525.88445162
  PAW double counting   =      9583.98494199    -9523.92957983
  entropy T*S    EENTRO =        -0.00082022
  eigenvalues    EBANDS =     -1234.01997572
  atomic energy  EATOM  =     12155.31816883
  ---------------------------------------------------
  free energy    TOTEN  =      -249.44797961 eV

  energy without entropy =     -249.44715939  energy(sigma->0) =     -249.44756950


--------------------------------------------------------------------------------------------------------




--------------------------------------- Iteration      1(   4)  ---------------------------------------


    TRIAL :  cpu time   41.2889: real time   42.0023
    CORREC:  cpu time    0.0021: real time    0.0021
    --------------------------------------------
      LOOP:  cpu time   41.2932: real time   42.0073

 eigenvalue-minimisations  : 19560
 total energy-change (2. order) :-0.1169170E+01  (-0.1160958E+01)
 number of electron     124.0000000 magnetization 
 augmentation part      124.0000000 magnetization 

 Free energy of the ion-electron system (eV)
  ---------------------------------------------------
  alpha Z        PSCENC =       630.95774334
  Ewald energy   TEWEN  =     -9258.92414101
  -Hartree energ DENC   =     -3128.71876862
  -exchange      EXHF   =         0.00000000
  -V(xc)+E(xc)   XCENC  =       525.88445162
  PAW double counting   =      9583.98494199    -9523.92957983
  entropy T*S    EENTRO =        -0.00086318
  eigenvalues    EBANDS =     -1235.18910310
  atomic energy  EATOM  =     12155.31816883
  ---------------------------------------------------
  free energy    TOTEN  =      -250.61714994 eV

  energy without entropy =     -250.61628677  energy(sigma->0) =     -250.61671836


--------------------------------------------------------------------------------------------------------




--------------------------------------- Iteration      1(   5)  ---------------------------------------


    TRIAL :  cpu time   41.9326: real time   42.8170
    CORREC:  cpu time    0.0022: real time    0.0022
    CHARGE:  cpu time    2.5914: real time    2.6085
    --------------------------------------------
      LOOP:  cpu time   44.5289: real time   45.4308

 eigenvalue-minimisations  : 19944
 total energy-change (2. order) :-0.2279868E-01  (-0.2276152E-01)
 number of electron     124.0000001 magnetization 
 augmentation part       13.1129666 magnetization 

 Free energy of the ion-electron system (eV)
  ---------------------------------------------------
  alpha Z        PSCENC =       630.95774334
  Ewald energy   TEWEN  =     -9258.92414101
  -Hartree energ DENC   =     -3128.71876862
  -exchange      EXHF   =         0.00000000
  -V(xc)+E(xc)   XCENC  =       525.88445162
  PAW double counting   =      9583.98494199    -9523.92957983
  entropy T*S    EENTRO =        -0.00086773
  eigenvalues    EBANDS =     -1235.21189722
  atomic energy  EATOM  =     12155.31816883
  ---------------------------------------------------
  free energy    TOTEN  =      -250.63994862 eV

  energy without entropy =     -250.63908089  energy(sigma->0) =     -250.63951476


--------------------------------------------------------------------------------------------------------




--------------------------------------- Iteration      1(   6)  ---------------------------------------


    POTLOK:  cpu time    0.2114: real time    0.2126
    SETDIJ:  cpu time    0.6892: real time    0.6938
    TRIAL :  cpu time   28.4638: real time   28.8377
    CORREC:  cpu time    9.0660: real time    9.1375
    CHARGE:  cpu time    3.1552: real time    3.1771
    --------------------------------------------
      LOOP:  cpu time   41.5879: real time   42.0623

 eigenvalue-minimisations  :     0
 total energy-change (2. order) : 0.1042833E+03  (-0.4196562E+02)
 number of electron     124.0000001 magnetization 
 augmentation part       14.0772130 magnetization 

 Free energy of the ion-electron system (eV)
  ---------------------------------------------------
  alpha Z        PSCENC =       630.95774334
  Ewald energy   TEWEN  =     -9258.92414101
  -Hartree energ DENC   =     -3148.63165821
  -exchange      EXHF   =         0.00000000
  -V(xc)+E(xc)   XCENC  =       544.71250066
  PAW double counting   =     25466.82687037   -25438.93835106
  entropy T*S    EENTRO =        -0.00069084
  eigenvalues    EBANDS =     -1097.67687152
  atomic energy  EATOM  =     12155.31816883
  ---------------------------------------------------
  free energy    TOTEN  =      -146.35660632 eV

  energy without entropy =     -146.35591548  energy(sigma->0) =     -146.35626090


--------------------------------------------------------------------------------------------------------




--------------------------------------- Iteration      1(   7)  ---------------------------------------


    POTLOK:  cpu time    0.1452: real time    0.1460
    SETDIJ:  cpu time    0.6864: real time    0.6903
    TRIAL :  cpu time   32.3985: real time   32.6666
    CORREC:  cpu time   12.2835: real time   12.3665
    CHARGE:  cpu time    3.0245: real time    3.0430
    --------------------------------------------
      LOOP:  cpu time   48.5475: real time   48.9232

 eigenvalue-minimisations  :     0
 total energy-change (2. order) :-0.4224791E+02  (-0.5520097E+01)
 number of electron     124.0000001 magnetization 
 augmentation part       13.9755352 magnetization 

 Free energy of the ion-electron system (eV)
  ---------------------------------------------------
  alpha Z        PSCENC =       630.95774334
  Ewald energy   TEWEN  =     -9258.92414101
  -Hartree energ DENC   =     -3165.13973514
  -exchange      EXHF   =         0.00000000
  -V(xc)+E(xc)   XCENC  =       546.59771314
  PAW double counting   =     25100.76002724   -25063.89063545
  entropy T*S    EENTRO =        -0.00089630
  eigenvalues    EBANDS =     -1134.28297087
  atomic energy  EATOM  =     12155.31816883
  ---------------------------------------------------
  free energy    TOTEN  =      -188.60452075 eV

  energy without entropy =     -188.60362445  energy(sigma->0) =     -188.60407260


--------------------------------------------------------------------------------------------------------




--------------------------------------- Iteration      1(   8)  ---------------------------------------


    POTLOK:  cpu time    0.1838: real time    0.1848
    SETDIJ:  cpu time    1.4143: real time    1.4231
    TRIAL :  cpu time   34.3506: real time   34.8920
    CORREC:  cpu time   10.6235: real time   10.7031
    CHARGE:  cpu time    4.0592: real time    4.0839
    --------------------------------------------
      LOOP:  cpu time   50.6407: real time   51.2967

 eigenvalue-minimisations  :     0
 total energy-change (2. order) :-0.5524608E+01  (-0.1495486E+01)
 number of electron     124.0000001 magnetization 
 augmentation part       14.0789816 magnetization 

 Free energy of the ion-electron system (eV)
  ---------------------------------------------------
  alpha Z        PSCENC =       630.95774334
  Ewald energy   TEWEN  =     -9258.92414101
  -Hartree energ DENC   =     -3151.03708817
  -exchange      EXHF   =         0.00000000
  -V(xc)+E(xc)   XCENC  =       545.95177924
  PAW double counting   =     24261.84526658   -24221.81000584
  entropy T*S    EENTRO =        -0.00075221
  eigenvalues    EBANDS =     -1156.42995510
  atomic energy  EATOM  =     12155.31816883
  ---------------------------------------------------
  free energy    TOTEN  =      -194.12912843 eV

  energy without entropy =     -194.12837622  energy(sigma->0) =     -194.12875232


--------------------------------------------------------------------------------------------------------




--------------------------------------- Iteration      1(   9)  ---------------------------------------


    POTLOK:  cpu time    0.1473: real time    0.1481
    SETDIJ:  cpu time    0.6888: real time    0.6932
    TRIAL :  cpu time   31.2096: real time   31.4680
    CORREC:  cpu time   13.2515: real time   13.3448
    CHARGE:  cpu time    3.7837: real time    3.8077
    --------------------------------------------
      LOOP:  cpu time   49.0896: real time   49.4712

 eigenvalue-minimisations  :     0
 total energy-change (2. order) :-0.1495534E+01  (-0.5413392E+00)
 number of electron     124.0000001 magnetization 
 augmentation part       14.1609034 magnetization 

 Free energy of the ion-electron system (eV)
  ---------------------------------------------------
  alpha Z        PSCENC =       630.95774334
  Ewald energy   TEWEN  =     -9258.92414101
  -Hartree energ DENC   =     -3155.26309631
  -exchange      EXHF   =         0.00000000
  -V(xc)+E(xc)   XCENC  =       546.23727237
  PAW double counting   =     23582.06507567   -23539.40317259
  entropy T*S    EENTRO =        -0.00110442
  eigenvalues    EBANDS =     -1156.61176099
  atomic energy  EATOM  =     12155.31816883
  ---------------------------------------------------
  free energy    TOTEN  =      -195.62466289 eV

  energy without entropy =     -195.62355847  energy(sigma->0) =     -195.62411068


--------------------------------------------------------------------------------------------------------




--------------------------------------- Iteration      1(  10)  ---------------------------------------


    POTLOK:  cpu time    0.1455: real time    0.1463
    SETDIJ:  cpu time    0.6882: real time    0.6920
    TRIAL :  cpu time   31.8116: real time   32.0734
    CORREC:  cpu time   10.6835: real time   10.7618
    CHARGE:  cpu time    3.2396: real time    3.2599
    --------------------------------------------
      LOOP:  cpu time   46.5783: real time   46.9438

 eigenvalue-minimisations  :     0
 total energy-change (2. order) :-0.5410946E+00  (-0.1879570E+00)
 number of electron     124.0000001 magnetization 
 augmentation part       14.1107408 magnetization 

 Free energy of the ion-electron system (eV)
  ---------------------------------------------------
  alpha Z        PSCENC =       630.95774334
  Ewald energy   TEWEN  =     -9258.92414101
  -Hartree energ DENC   =     -3164.29834368
  -exchange      EXHF   =         0.00000000
  -V(xc)+E(xc)   XCENC  =       546.76038784
  PAW double counting   =     23320.47749036   -23276.21164020
  entropy T*S    EENTRO =        -0.00119904
  eigenvalues    EBANDS =     -1150.24431852
  atomic energy  EATOM  =     12155.31816883
  ---------------------------------------------------
  free energy    TOTEN  =      -196.16575745 eV

  energy without entropy =     -196.16455841  energy(sigma->0) =     -196.16515793


--------------------------------------------------------------------------------------------------------




--------------------------------------- Iteration      1(  11)  ---------------------------------------


    POTLOK:  cpu time    0.1478: real time    0.1486
    SETDIJ:  cpu time    1.3405: real time    1.3490
    TRIAL :  cpu time   32.7991: real time   33.0765
    CORREC:  cpu time   12.6644: real time   12.7629
    CHARGE:  cpu time    3.0768: real time    3.0974
    --------------------------------------------
      LOOP:  cpu time   50.0388: real time   50.4454

 eigenvalue-minimisations  :     0
 total energy-change (2. order) :-0.1879782E+00  (-0.8723479E-01)
 number of electron     124.0000001 magnetization 
 augmentation part       14.0773498 magnetization 

 Free energy of the ion-electron system (eV)
  ---------------------------------------------------
  alpha Z        PSCENC =       630.95774334
  Ewald energy   TEWEN  =     -9258.92414101
  -Hartree energ DENC   =     -3160.60185732
  -exchange      EXHF   =         0.00000000
  -V(xc)+E(xc)   XCENC  =       546.63181973
  PAW double counting   =     23324.15571480   -23279.99316902
  entropy T*S    EENTRO =        -0.00118685
  eigenvalues    EBANDS =     -1153.89681592
  atomic energy  EATOM  =     12155.31816883
  ---------------------------------------------------
  free energy    TOTEN  =      -196.35373560 eV

  energy without entropy =     -196.35254875  energy(sigma->0) =     -196.35314217


--------------------------------------------------------------------------------------------------------




--------------------------------------- Iteration      1(  12)  ---------------------------------------


    POTLOK:  cpu time    0.1474: real time    0.1483
    SETDIJ:  cpu time    0.6907: real time    0.6948
    TRIAL :  cpu time   31.3892: real time   31.6396
    CORREC:  cpu time   12.6382: real time   12.9675
    CHARGE:  cpu time    3.0315: real time    3.0555
    --------------------------------------------
      LOOP:  cpu time   47.9059: real time   48.5155

 eigenvalue-minimisations  :     0
 total energy-change (2. order) :-0.8679582E-01  (-0.4092777E-01)
 number of electron     124.0000001 magnetization 
 augmentation part       14.1012017 magnetization 

 Free energy of the ion-electron system (eV)
  ---------------------------------------------------
  alpha Z        PSCENC =       630.95774334
  Ewald energy   TEWEN  =     -9258.92414101
  -Hartree energ DENC   =     -3155.52583541
  -exchange      EXHF   =         0.00000000
  -V(xc)+E(xc)   XCENC  =       546.39616599
  PAW double counting   =     23384.00900815   -23340.25184420
  entropy T*S    EENTRO =        -0.00089363
  eigenvalues    EBANDS =     -1158.41861027
  atomic energy  EATOM  =     12155.31816883
  ---------------------------------------------------
  free energy    TOTEN  =      -196.44053142 eV

  energy without entropy =     -196.43963779  energy(sigma->0) =     -196.44008461


--------------------------------------------------------------------------------------------------------




--------------------------------------- Iteration      1(  13)  ---------------------------------------


[...]
     74      13.9134      0.00000
     75      14.4544      0.00000
     76      14.7207      0.00000
     77      14.7764      0.00000
     78      14.9076      0.00000

 k-point    95 :      -0.4286   -0.4286   -0.4286
  band No.  band energies     occupation 
      1     -52.2881      2.00000
      2     -52.2881      2.00000
      3     -51.5811      2.00000
      4     -51.5759      2.00000
      5     -51.5758      2.00000
      6     -51.5663      2.00000
      7     -26.3333      2.00000
      8     -26.3188      2.00000
      9     -26.3182      2.00000
     10     -26.3106      2.00000
     11     -25.8928      2.00000
     12     -25.8748      2.00000
     13     -25.8471      2.00000
     14     -25.8317      2.00000
     15     -25.7812      2.00000
     16     -25.7760      2.00000
     17     -25.7571      2.00000
     18     -25.7405      2.00000
     19     -25.7192      2.00000
     20     -25.7104      2.00000
     21     -25.2457      2.00000
     22     -25.1915      2.00000
     23     -25.1813      2.00000
     24     -25.1780      2.00000
     25      -0.3805      2.00000
     26       0.0339      2.00000
     27       0.1115      2.00000
     28       0.7027      2.00000
     29       2.1672      2.00000
     30       2.2613      2.00000
     31       2.3394      2.00000
     32       2.4611      2.00000
     33       2.4773      2.00000
     34       2.5969      2.00000
     35       2.8258      2.00000
     36       3.3526      2.00000
     37       3.3562      2.00000
     38       3.7240      2.00000
     39       4.1248      2.00000
     40       4.4416      2.00000
     41       4.5330      2.00000
     42       4.7568      2.00000
     43       5.1431      2.00000
     44       5.4710      2.00000
     45       5.5836      2.00000
     46       5.7848      2.00000
     47       5.9690      2.00000
     48       6.0402      2.00000
     49       6.2469      2.00000
     50       6.3724      2.00000
     51       6.5789      2.00000
     52       6.9478      2.00000
     53       7.1385      2.00000
     54       7.3884      2.00000
     55       7.5606      2.00000
     56       8.3459      2.00000
     57       8.4909      2.00000
     58       8.5991      2.00000
     59       9.5284      2.00000
     60       9.6293      2.00000
     61       9.7919      2.00000
     62      10.5351      2.00000
     63      10.7618      2.00000
     64      12.0791      0.00000
     65      12.1623      0.00000
     66      12.7600      0.00000
     67      12.8648      0.00000
     68      12.8987      0.00000
     69      13.2459      0.00000
     70      13.4012      0.00000
     71      13.4598      0.00000
     72      13.6583      0.00000
     73      13.7009      0.00000
     74      13.9081      0.00000
     75      14.5623      0.00000
     76      14.7540      0.00000
     77      14.8618      0.00000
     78      15.0844      0.00000

 k-point    96 :      -0.2857   -0.4286    0.2857
  band No.  band energies     occupation 
      1     -52.2884      2.00000
      2     -52.2880      2.00000
      3     -51.5819      2.00000
      4     -51.5760      2.00000
      5     -51.5751      2.00000
      6     -51.5661      2.00000
      7     -26.3340      2.00000
      8     -26.3193      2.00000
      9     -26.3179      2.00000
     10     -26.3100      2.00000
     11     -25.9121      2.00000
     12     -25.8848      2.00000
     13     -25.8722      2.00000
     14     -25.8304      2.00000
     15     -25.7821      2.00000
     16     -25.7664      2.00000
     17     -25.7562      2.00000
     18     -25.7314      2.00000
     19     -25.7172      2.00000
     20     -25.6887      2.00000
     21     -25.2370      2.00000
     22     -25.1870      2.00000
     23     -25.1801      2.00000
     24     -25.1790      2.00000
     25      -0.8161      2.00000
     26       0.1461      2.00000
     27       0.3682      2.00000
     28       0.9306      2.00000
     29       2.0901      2.00000
     30       2.2059      2.00000
     31       2.3039      2.00000
     32       2.3100      2.00000
     33       2.4554      2.00000
     34       2.5844      2.00000
     35       2.8309      2.00000
     36       3.3820      2.00000
     37       3.5011      2.00000
     38       3.8011      2.00000
     39       4.1734      2.00000
     40       4.2163      2.00000
     41       4.5306      2.00000
     42       4.5666      2.00000
     43       5.2673      2.00000
     44       5.3681      2.00000
     45       5.5056      2.00000
     46       5.8026      2.00000
     47       5.9598      2.00000
     48       6.2073      2.00000
     49       6.2816      2.00000
     50       6.4784      2.00000
     51       6.4964      2.00000
     52       7.1724      2.00000
     53       7.3589      2.00000
     54       7.3602      2.00000
     55       7.9932      2.00000
     56       8.1917      2.00000
     57       8.5212      2.00000
     58       8.5698      2.00000
     59       9.5956      2.00000
     60       9.7063      2.00000
     61       9.7435      2.00000
     62      10.3548      2.00000
     63      10.7861      2.00000
     64      12.2043      0.00000
     65      12.5296      0.00000
     66      12.5426      0.00000
     67      12.6574      0.00000
     68      12.9797      0.00000
     69      13.0608      0.00000
     70      13.2369      0.00000
     71      13.3951      0.00000
     72      13.4534      0.00000
     73      13.5049      0.00000
     74      13.9539      0.00000
     75      14.0865      0.00000
     76      14.3534      0.00000
     77      14.4491      0.00000
     78      14.8843      0.00000

 k-point    97 :      -0.2857   -0.4286    0.4286
  band No.  band energies     occupation 
      1     -52.2884      2.00000
      2     -52.2880      2.00000
      3     -51.5819      2.00000
      4     -51.5760      2.00000
      5     -51.5751      2.00000
      6     -51.5661      2.00000
      7     -26.3340      2.00000
      8     -26.3193      2.00000
      9     -26.3179      2.00000
     10     -26.3100      2.00000
     11     -25.9121      2.00000
     12     -25.8848      2.00000
     13     -25.8722      2.00000
     14     -25.8304      2.00000
     15     -25.7821      2.00000
     16     -25.7664      2.00000
     17     -25.7562      2.00000
     18     -25.7314      2.00000
     19     -25.7172      2.00000
     20     -25.6887      2.00000
     21     -25.2370      2.00000
     22     -25.1870      2.00000
     23     -25.1801      2.00000
     24     -25.1790      2.00000
     25      -0.8161      2.00000
     26       0.1461      2.00000
     27       0.3682      2.00000
     28       0.9306      2.00000
     29       2.0901      2.00000
     30       2.2059      2.00000
     31       2.3038      2.00000
     32       2.3100      2.00000
     33       2.4554      2.00000
     34       2.5845      2.00000
     35       2.8309      2.00000
     36       3.3820      2.00000
     37       3.5011      2.00000
     38       3.8011      2.00000
     39       4.1734      2.00000
     40       4.2163      2.00000
     41       4.5307      2.00000
     42       4.5667      2.00000
     43       5.2673      2.00000
     44       5.3681      2.00000
     45       5.5056      2.00000
     46       5.8026      2.00000
     47       5.9597      2.00000
     48       6.2073      2.00000
     49       6.2817      2.00000
     50       6.4784      2.00000
     51       6.4964      2.00000
     52       7.1724      2.00000
     53       7.3589      2.00000
     54       7.3602      2.00000
     55       7.9932      2.00000
     56       8.1917      2.00000
     57       8.5212      2.00000
     58       8.5698      2.00000
     59       9.5956      2.00000
     60       9.7063      2.00000
     61       9.7435      2.00000
     62      10.3548      2.00000
     63      10.7861      2.00000
     64      12.2043      0.00000
     65      12.5296      0.00000
     66      12.5426      0.00000
     67      12.6574      0.00000
     68      12.9798      0.00000
     69      13.0608      0.00000
     70      13.2191      0.00000
     71      13.3951      0.00000
     72      13.4545      0.00000
     73      13.5026      0.00000
     74      13.9149      0.00000
     75      14.0676      0.00000
     76      14.3460      0.00000
     77      14.4503      0.00000
     78      14.9233      0.00000

 k-point    98 :      -0.2857   -0.2857    0.2857
  band No.  band energies     occupation 
      1     -52.2887      2.00000
      2     -52.2879      2.00000
      3     -51.5828      2.00000
      4     -51.5751      2.00000
      5     -51.5749      2.00000
      6     -51.5659      2.00000
      7     -26.3346      2.00000
      8     -26.3189      2.00000
      9     -26.3186      2.00000
     10     -26.3093      2.00000
     11     -25.9441      2.00000
     12     -25.9003      2.00000
     13     -25.9001      2.00000
     14     -25.8085      2.00000
     15     -25.7978      2.00000
     16     -25.7978      2.00000
     17     -25.7584      2.00000
     18     -25.7013      2.00000
     19     -25.7012      2.00000
     20     -25.6522      2.00000
     21     -25.2225      2.00000
     22     -25.1790      2.00000
     23     -25.1781      2.00000
     24     -25.1780      2.00000
     25      -1.2525      2.00000
     26       0.5088      2.00000
     27       0.5088      2.00000
     28       1.1007      2.00000
     29       1.8911      2.00000
     30       1.9972      2.00000
     31       2.2527      2.00000
     32       2.3083      2.00000
     33       2.5548      2.00000
     34       2.5548      2.00000
     35       2.6469      2.00000
     36       3.6159      2.00000
     37       3.6159      2.00000
     38       3.9460      2.00000
     39       4.1405      2.00000
     40       4.1406      2.00000
     41       4.3176      2.00000
     42       4.5558      2.00000
     43       5.2567      2.00000
     44       5.2568      2.00000
     45       5.5661      2.00000
     46       5.8075      2.00000
     47       5.9119      2.00000
     48       6.0484      2.00000
     49       6.0484      2.00000
     50       6.5460      2.00000
     51       6.5461      2.00000
     52       7.5783      2.00000
     53       7.6297      2.00000
     54       7.9608      2.00000
     55       7.9609      2.00000
     56       8.2066      2.00000
     57       8.2229      2.00000
     58       8.9625      2.00000
     59       9.8216      2.00000
     60       9.9195      2.00000
     61       9.9789      2.00000
     62      10.4761      2.00000
     63      10.4761      2.00000
     64      12.3213      0.00000
     65      12.3854      0.00000
     66      12.3855      0.00000
     67      12.7609      0.00000
     68      12.7609      0.00000
     69      12.9067      0.00000
     70      12.9391      0.00000
     71      13.3920      0.00000
     72      13.4123      0.00000
     73      13.4147      0.00000
     74      13.7265      0.00000
     75      13.7622      0.00000
     76      13.7633      0.00000
     77      14.0503      0.00000
     78      14.8983      0.00000

 k-point    99 :      -0.4286    0.4286    0.4286
  band No.  band energies     occupation 
      1     -52.2881      2.00000
      2     -52.2881      2.00000
      3     -51.5814      2.00000
      4     -51.5764      2.00000
      5     -51.5755      2.00000
      6     -51.5659      2.00000
      7     -26.3341      2.00000
      8     -26.3190      2.00000
      9     -26.3176      2.00000
     10     -26.3102      2.00000
     11     -25.8705      2.00000
     12     -25.8550      2.00000
     13     -25.8307      2.00000
     14     -25.8301      2.00000
     15     -25.7754      2.00000
     16     -25.7751      2.00000
     17     -25.7646      2.00000
     18     -25.7568      2.00000
     19     -25.7373      2.00000
     20     -25.7243      2.00000
     21     -25.2536      2.00000
     22     -25.1947      2.00000
     23     -25.1812      2.00000
     24     -25.1804      2.00000
     25      -0.2450      2.00000
     26      -0.0288      2.00000
     27       0.1909      2.00000
     28       0.4813      2.00000
     29       2.1217      2.00000
     30       2.3014      2.00000
     31       2.3595      2.00000
     32       2.5117      2.00000
     33       2.6293      2.00000
     34       2.6339      2.00000
     35       2.8194      2.00000
     36       3.1850      2.00000
     37       3.3697      2.00000
     38       3.8435      2.00000
     39       4.2405      2.00000
     40       4.4806      2.00000
     41       4.6601      2.00000
     42       4.8606      2.00000
     43       5.2911      2.00000
     44       5.2976      2.00000
     45       5.4611      2.00000
     46       5.5336      2.00000
     47       5.9975      2.00000
     48       6.1186      2.00000
     49       6.3980      2.00000
     50       6.4314      2.00000
     51       6.6156      2.00000
     52       6.8418      2.00000
     53       7.0314      2.00000
     54       7.1583      2.00000
     55       7.9985      2.00000
     56       8.0440      2.00000
     57       8.1157      2.00000
     58       8.4098      2.00000
     59       9.2112      2.00000
     60       9.6546      2.00000
     61       9.7900      2.00000
     62      10.3752      2.00000
     63      10.7988      2.00000
     64      12.2306      0.00000
     65      12.3940      0.00000
     66      12.6807      0.00000
     67      12.7448      0.00000
     68      13.0786      0.00000
     69      13.0941      0.00000
     70      13.3719      0.00000
     71      13.5799      0.00000
     72      13.5968      0.00000
     73      13.8490      0.00000
     74      13.8917      0.00000
     75      14.3167      0.00000
     76      14.9138      0.00000
     77      15.0591      0.00000
     78      15.7769      0.00000

 k-point   100 :      -0.4286   -0.4286    0.4286
  band No.  band energies     occupation 
      1     -52.2882      2.00000
      2     -52.2880      2.00000
      3     -51.5819      2.00000
      4     -51.5760      2.00000
      5     -51.5758      2.00000
      6     -51.5655      2.00000
      7     -26.3348      2.00000
      8     -26.3184      2.00000
      9     -26.3181      2.00000
     10     -26.3097      2.00000
     11     -25.8754      2.00000
     12     -25.8476      2.00000
     13     -25.8473      2.00000
     14     -25.8088      2.00000
     15     -25.7806      2.00000
     16     -25.7806      2.00000
     17     -25.7558      2.00000
     18     -25.7558      2.00000
     19     -25.7479      2.00000
     20     -25.7196      2.00000
     21     -25.2536      2.00000
     22     -25.1938      2.00000
     23     -25.1814      2.00000
     24     -25.1813      2.00000
     25      -0.5179      2.00000
     26       0.1810      2.00000
     27       0.1810      2.00000
     28       0.6054      2.00000
     29       2.0529      2.00000
     30       2.3367      2.00000
     31       2.3542      2.00000
     32       2.5670      2.00000
     33       2.6118      2.00000
     34       2.6118      2.00000
     35       2.7578      2.00000
     36       3.2962      2.00000
     37       3.2962      2.00000
     38       4.1851      2.00000
     39       4.1851      2.00000
     40       4.3244      2.00000
     41       4.4762      2.00000
     42       4.7667      2.00000
     43       5.3086      2.00000
     44       5.3087      2.00000
     45       5.5067      2.00000
     46       5.5073      2.00000
     47       6.2620      2.00000
     48       6.2620      2.00000
     49       6.4376      2.00000
     50       6.4811      2.00000
     51       6.4812      2.00000
     52       6.7700      2.00000
     53       6.8047      2.00000
     54       7.7878      2.00000
     55       7.9774      2.00000
     56       7.9775      2.00000
     57       8.0053      2.00000
     58       8.1748      2.00000
     59       9.0421      2.00000
     60       9.6398      2.00000
     61       9.7839      2.00000
     62      10.5345      2.00000
     63      10.5345      2.00000
     64      12.4964      0.00000
     65      12.5763      0.00000
     66      12.7739      0.00000
     67      12.8734      0.00000
     68      12.8734      0.00000
     69      12.9422      0.00000
     70      13.3881      0.00000
     71      13.4284      0.00000
     72      13.4438      0.00000
     73      13.7069      0.00000
     74      13.7398      0.00000
     75      14.2966      0.00000
     76      14.8399      0.00000
     77      14.8878      0.00000
     78      14.9113      0.00000


--------------------------------------------------------------------------------------------------------


 soft charge-density along one line, spin component           1
         0         1         2         3         4         5         6         7         8         9
 total charge-density along one line
 
 pseudopotential strength for first ion, spin component:           1
  6.029   9.137  -0.010  -0.010  -0.001  -0.013  -0.014  -0.002
  9.137  13.837  -0.015  -0.015  -0.001  -0.020  -0.021  -0.002
 -0.010  -0.015  -1.979  -0.023   0.011  -3.305  -0.045   0.021
 -0.010  -0.015  -0.023  -1.965   0.007  -0.045  -3.279   0.013
 -0.001  -0.001   0.011   0.007  -1.953   0.021   0.013  -3.255
 -0.013  -0.020  -3.305  -0.045   0.021  -5.309  -0.086   0.041
 -0.014  -0.021  -0.045  -3.279   0.013  -0.086  -5.258   0.025
 -0.002  -0.002   0.021   0.013  -3.255   0.041   0.025  -5.213
 total augmentation occupancy for first ion, spin component:           1
  3.931  -1.037  -0.671  -0.522   0.188   0.298   0.231  -0.084
 -1.037   0.372   0.319   0.253  -0.082  -0.155  -0.121   0.043
 -0.671   0.319   3.941   1.033  -0.586  -1.213  -0.403   0.218
 -0.522   0.253   1.033   3.245  -0.338  -0.404  -0.947   0.134
  0.188  -0.082  -0.586  -0.338   2.825   0.217   0.133  -0.764
  0.298  -0.155  -1.213  -0.404   0.217   0.428   0.185  -0.090
  0.231  -0.121  -0.403  -0.947   0.133   0.185   0.315  -0.059
 -0.084   0.043   0.218   0.134  -0.764  -0.090  -0.059   0.219


------------------------ aborting loop because EDIFF is reached ----------------------------------------




--------------------------------------------------------------------------------------------------------



  FREE ENERGIE OF THE ION-ELECTRON SYSTEM (eV)
  ---------------------------------------------------
  free  energy   TOTEN  =      -196.50849352 eV

  energy  without entropy=     -196.50756845  energy(sigma->0) =     -196.50803099
 


--------------------------------------------------------------------------------------------------------


    POTLOK:  cpu time    1.3960: real time    1.4046


--------------------------------------------------------------------------------------------------------


 writing wavefunctions
     LOOP+:  cpu time 1519.1742: real time 1537.6657
    4ORBIT:  cpu time    0.0000: real time    0.0000

 total amount of memory used by VASP MPI-rank0   420874. kBytes
=======================================================================

   base      :      30000. kBytes
   nonl-proj :     145075. kBytes
   fftplans  :      17772. kBytes
   grid      :      13358. kBytes
   one-center:        139. kBytes
   wavefun   :     214530. kBytes
 
  
  
 General timing and accounting informations for this job:
 ========================================================
  
                  Total CPU time used (sec):     1529.490
                            User time (sec):     1481.210
                          System time (sec):       48.281
                         Elapsed time (sec):     1557.742
  
                   Maximum memory used (kb):      642084.
                   Average memory used (kb):          N/A
  
                          Minor page faults:      5016095
                          Major page faults:           55
                 Voluntary context switches:        15201
