<?xml version="1.0" encoding="ISO-8859-1"?>
<modeling>
 <generator>
  <i name="program" type="string">vasp </i>
  <i name="version" type="string">6.2.0  </i>
  <i name="subversion" type="string">18Jan21 (build Jan 05 2022 15:41:44) complex                          parallel </i>
  <i name="platform" type="string">LinuxIFC </i>
  <i name="date" type="string">2025 05 07 </i>
  <i name="time" type="string">17:24:58 </i>
 </generator>
 <incar>
  <i type="string" name="SYSTEM">routine with relax: pwdword</i>
  <i type="string" name="PREC">Acc</i>
  <i type="int" name="IALGO">    38</i>
  <i type="string" name="ALGO">A</i>
  <i type="logical" name="ADDGRID"> T  </i>
  <i type="int" name="ICHARG">     2</i>
  <i type="int" name="NELM">   100</i>
  <i type="int" name="NELMIN">     6</i>
  <i name="EDIFF">      0.00000000</i>
  <i type="int" name="NSW">     0</i>
  <i type="int" name="ISIF">    -1</i>
  <i name="SYMPREC">      0.00010000</i>
  <i name="ENCUT">    600.00000000</i>
  <i type="logical" name="LREAL"> F  </i>
  <i type="int" name="ISMEAR">     0</i>
  <i name="SIGMA">      0.02000000</i>
  <i type="logical" name="LASPH"> T  </i>
  <i type="string" name="METAGGA">R2SCAN</i>
  <i type="logical" name="LMIXTAU"> F  </i>
 </incar>
 <primitive_cell>
  <structure name="primitive_cell" >
   <crystal>
    <varray name="basis" >
     <v>       5.92498233       0.00000000      -3.48381611 </v>
     <v>      -1.93895105       5.59873954      -3.48381611 </v>
     <v>       0.00000000       0.00000000       6.87331000 </v>
    </varray>
    <i name="volume">    228.00441473 </i>
    <varray name="rec_basis" >
     <v>       0.16877687       0.05845067       0.00000000 </v>
     <v>       0.00000000       0.17861163       0.00000000 </v>
     <v>       0.08554650       0.12015775       0.14549031 </v>
    </varray>
   </crystal>
   <varray name="positions" >
    <v>       0.30580000       0.80580000       0.30034000 </v>
    <v>       0.69420000       0.19420000       0.69966000 </v>
    <v>       0.80580000       0.50547000       0.50000000 </v>
    <v>       0.19420000       0.49453000       0.50000000 </v>
    <v>       0.50547000       0.00547000       0.69966000 </v>
    <v>       0.49453000       0.99453000       0.30034000 </v>
    <v>       0.00547000       0.30580000       0.50000000 </v>
    <v>       0.99453000       0.69420000       0.50000000 </v>
    <v>       0.18209000       0.68209000       0.86418000 </v>
    <v>       0.00000000       0.00000000       0.00000000 </v>
    <v>       0.81791000       0.31791000       0.13582000 </v>
    <v>       0.68209000       0.81791000       0.50000000 </v>
    <v>       0.31791000       0.18209000       0.50000000 </v>
    <v>       0.50000000       0.50000000       0.00000000 </v>
    <v>       0.25000000       0.25000000       0.00000000 </v>
    <v>       0.75000000       0.75000000       0.00000000 </v>
   </varray>
  </structure>
  <varray name="primitive_index" >
   <v type="int" >        1 </v>
   <v type="int" >        2 </v>
   <v type="int" >        3 </v>
   <v type="int" >        4 </v>
   <v type="int" >        5 </v>
   <v type="int" >        6 </v>
   <v type="int" >        7 </v>
   <v type="int" >        8 </v>
   <v type="int" >        9 </v>
   <v type="int" >       10 </v>
   <v type="int" >       11 </v>
   <v type="int" >       12 </v>
   <v type="int" >       13 </v>
   <v type="int" >       14 </v>
   <v type="int" >       15 </v>
   <v type="int" >       16 </v>
  </varray>
 </primitive_cell>
 <kpoints>
  <generation param="Gamma">
   <v type="int" name="divisions">       6        6        7 </v>
   <v name="usershift">      0.00000000       0.00000000       0.00000000 </v>
   <v name="genvec1">      0.16666667      -0.00000000       0.00000000 </v>
   <v name="genvec2">      0.00000000       0.16666667       0.00000000 </v>
   <v name="genvec3">     -0.00000000       0.00000000       0.14285714 </v>
   <v name="shift">      0.00000000       0.00000000       0.00000000 </v>
  </generation>
  <varray name="kpointlist" >
   <v>       0.00000000       0.00000000       0.00000000 </v>
   <v>       0.16666667      -0.00000000       0.00000000 </v>
   <v>       0.33333333      -0.00000000       0.00000000 </v>
   <v>       0.50000000      -0.00000000       0.00000000 </v>
   <v>       0.16666667       0.16666667       0.00000000 </v>
   <v>       0.33333333       0.16666667       0.00000000 </v>
   <v>       0.50000000       0.16666667       0.00000000 </v>
   <v>      -0.33333333       0.16666667       0.00000000 </v>
   <v>      -0.16666667       0.16666667       0.00000000 </v>
   <v>       0.33333333       0.33333333       0.00000000 </v>
   <v>       0.50000000       0.33333333       0.00000000 </v>
   <v>      -0.33333333       0.33333333       0.00000000 </v>
   <v>       0.50000000       0.50000000       0.00000000 </v>
   <v>      -0.00000000      -0.00000000       0.14285714 </v>
   <v>       0.16666667      -0.00000000       0.14285714 </v>
   <v>       0.33333333      -0.00000000       0.14285714 </v>
   <v>       0.50000000       0.00000000       0.14285714 </v>
   <v>      -0.33333333      -0.00000000       0.14285714 </v>
   <v>      -0.16666667      -0.00000000       0.14285714 </v>
   <v>       0.16666667       0.16666667       0.14285714 </v>
   <v>       0.33333333       0.16666667       0.14285714 </v>
   <v>       0.50000000       0.16666667       0.14285714 </v>
   <v>      -0.33333333       0.16666667       0.14285714 </v>
   <v>      -0.16666667       0.16666667       0.14285714 </v>
   <v>       0.33333333       0.33333333       0.14285714 </v>
   <v>       0.50000000       0.33333333       0.14285714 </v>
   <v>      -0.33333333       0.33333333       0.14285714 </v>
   <v>      -0.16666667       0.33333333       0.14285714 </v>
   <v>       0.50000000       0.50000000       0.14285714 </v>
   <v>      -0.33333333       0.50000000       0.14285714 </v>
   <v>      -0.16666667       0.50000000       0.14285714 </v>
   <v>      -0.33333333      -0.33333333       0.14285714 </v>
   <v>      -0.16666667      -0.33333333       0.14285714 </v>
   <v>      -0.16666667      -0.16666667       0.14285714 </v>
   <v>      -0.00000000      -0.00000000       0.28571429 </v>
   <v>       0.16666667      -0.00000000       0.28571429 </v>
   <v>       0.33333333      -0.00000000       0.28571429 </v>
   <v>       0.50000000       0.00000000       0.28571429 </v>
   <v>      -0.33333333       0.00000000       0.28571429 </v>
   <v>      -0.16666667      -0.00000000       0.28571429 </v>
   <v>       0.16666667       0.16666667       0.28571429 </v>
   <v>       0.33333333       0.16666667       0.28571429 </v>
   <v>       0.50000000       0.16666667       0.28571429 </v>
   <v>      -0.33333333       0.16666667       0.28571429 </v>
   <v>      -0.16666667       0.16666667       0.28571429 </v>
   <v>       0.33333333       0.33333333       0.28571429 </v>
   <v>       0.50000000       0.33333333       0.28571429 </v>
   <v>      -0.33333333       0.33333333       0.28571429 </v>
   <v>      -0.16666667       0.33333333       0.28571429 </v>
   <v>       0.50000000       0.50000000       0.28571429 </v>
   <v>      -0.33333333       0.50000000       0.28571429 </v>
   <v>      -0.16666667       0.50000000       0.28571429 </v>
   <v>      -0.33333333      -0.33333333       0.28571429 </v>
   <v>      -0.16666667      -0.33333333       0.28571429 </v>
   <v>      -0.16666667      -0.16666667       0.28571429 </v>
   <v>      -0.00000000       0.00000000       0.42857143 </v>
   <v>       0.16666667      -0.00000000       0.42857143 </v>
   <v>       0.33333333      -0.00000000       0.42857143 </v>
   <v>       0.50000000       0.00000000       0.42857143 </v>
   <v>      -0.33333333      -0.00000000       0.42857143 </v>
   <v>      -0.16666667      -0.00000000       0.42857143 </v>
   <v>       0.16666667       0.16666667       0.42857143 </v>
   <v>       0.33333333       0.16666667       0.42857143 </v>
   <v>       0.50000000       0.16666667       0.42857143 </v>
   <v>      -0.33333333       0.16666667       0.42857143 </v>
   <v>      -0.16666667       0.16666667       0.42857143 </v>
   <v>       0.33333333       0.33333333       0.42857143 </v>
   <v>       0.50000000       0.33333333       0.42857143 </v>
   <v>      -0.33333333       0.33333333       0.42857143 </v>
   <v>      -0.16666667       0.33333333       0.42857143 </v>
   <v>       0.50000000       0.50000000       0.42857143 </v>
   <v>      -0.33333333       0.50000000       0.42857143 </v>
   <v>      -0.16666667       0.50000000       0.42857143 </v>
   <v>      -0.33333333      -0.33333333       0.42857143 </v>
   <v>      -0.16666667      -0.33333333       0.42857143 </v>
   <v>      -0.16666667      -0.16666667       0.42857143 </v>
  </varray>
  <varray name="weights" >
   <v>       0.00396825 </v>
   <v>       0.01587302 </v>
   <v>       0.01587302 </v>
   <v>       0.00793651 </v>
   <v>       0.00793651 </v>
   <v>       0.01587302 </v>
   <v>       0.01587302 </v>
   <v>       0.01587302 </v>
   <v>       0.00793651 </v>
   <v>       0.00793651 </v>
   <v>       0.01587302 </v>
   <v>       0.00793651 </v>
   <v>       0.00396825 </v>
   <v>       0.00793651 </v>
   <v>       0.01587302 </v>
   <v>       0.01587302 </v>
   <v>       0.01587302 </v>
   <v>       0.01587302 </v>
   <v>       0.01587302 </v>
   <v>       0.00793651 </v>
   <v>       0.01587302 </v>
   <v>       0.01587302 </v>
   <v>       0.01587302 </v>
   <v>       0.01587302 </v>
   <v>       0.00793651 </v>
   <v>       0.01587302 </v>
   <v>       0.01587302 </v>
   <v>       0.01587302 </v>
   <v>       0.00793651 </v>
   <v>       0.01587302 </v>
   <v>       0.01587302 </v>
   <v>       0.00793651 </v>
   <v>       0.01587302 </v>
   <v>       0.00793651 </v>
   <v>       0.00793651 </v>
   <v>       0.01587302 </v>
   <v>       0.01587302 </v>
   <v>       0.01587302 </v>
   <v>       0.01587302 </v>
   <v>       0.01587302 </v>
   <v>       0.00793651 </v>
   <v>       0.01587302 </v>
   <v>       0.01587302 </v>
   <v>       0.01587302 </v>
   <v>       0.01587302 </v>
   <v>       0.00793651 </v>
   <v>       0.01587302 </v>
   <v>       0.01587302 </v>
   <v>       0.01587302 </v>
   <v>       0.00793651 </v>
   <v>       0.01587302 </v>
   <v>       0.01587302 </v>
   <v>       0.00793651 </v>
   <v>       0.01587302 </v>
   <v>       0.00793651 </v>
   <v>       0.00793651 </v>
   <v>       0.01587302 </v>
   <v>       0.01587302 </v>
   <v>       0.01587302 </v>
   <v>       0.01587302 </v>
   <v>       0.01587302 </v>
   <v>       0.00793651 </v>
   <v>       0.01587302 </v>
   <v>       0.01587302 </v>
   <v>       0.01587302 </v>
   <v>       0.01587302 </v>
   <v>       0.00793651 </v>
   <v>       0.01587302 </v>
   <v>       0.01587302 </v>
   <v>       0.01587302 </v>
   <v>       0.00793651 </v>
   <v>       0.01587302 </v>
   <v>       0.01587302 </v>
   <v>       0.00793651 </v>
   <v>       0.01587302 </v>
   <v>       0.00793651 </v>
  </varray>
 </kpoints>
 <parameters>
  <separator name="general" >
   <i type="string" name="SYSTEM">routine with relax: pwdword</i>
   <i type="logical" name="LCOMPAT"> F  </i>
  </separator>
  <separator name="electronic" >
   <i type="string" name="PREC">acc</i>
   <i name="ENMAX">    600.00000000</i>
   <i name="ENAUG">    535.51400000</i>
   <i name="EDIFF">      0.00000000</i>
   <i type="int" name="IALGO">    58</i>
   <i type="int" name="IWAVPR">    10</i>
   <i type="int" name="NBANDS">    72</i>
   <i type="int" name="NBANDSLOW">    -1</i>
   <i type="int" name="NBANDSHIGH">    -1</i>
   <i name="NELECT">    116.00000000</i>
   <i type="int" name="TURBO">     0</i>
   <i type="int" name="IRESTART">     0</i>
   <i type="int" name="NREBOOT">     0</i>
   <i type="int" name="NMIN">     0</i>
   <i name="EREF">      0.00000000</i>
   <separator name="electronic smearing" >
    <i type="int" name="ISMEAR">     0</i>
    <i name="SIGMA">      0.02000000</i>
    <i name="KSPACING">      0.50000000</i>
    <i type="logical" name="KGAMMA"> T  </i>
    <i type="logical" name="KBLOWUP"> F  </i>
   </separator>
   <separator name="electronic projectors" >
    <i type="logical" name="LREAL"> F  </i>
    <v name="ROPT">      0.00000000      0.00000000      0.00000000</v>
    <i type="int" name="LMAXPAW">  -100</i>
    <i type="int" name="LMAXMIX">     2</i>
    <i type="logical" name="NLSPLINE"> F  </i>
   </separator>
   <separator name="electronic startup" >
    <i type="int" name="ISTART">     0</i>
    <i type="int" name="ICHARG">     2</i>
    <i type="int" name="INIWAV">     1</i>
   </separator>
   <separator name="electronic spin" >
    <i type="int" name="ISPIN">     1</i>
    <i type="logical" name="LNONCOLLINEAR"> F  </i>
    <v name="MAGMOM">      1.00000000      1.00000000      1.00000000      1.00000000      1.00000000      1.00000000      1.00000000      1.00000000      1.00000000      1.00000000      1.00000000      1.00000000      1.00000000      1.00000000      1.00000000      1.00000000</v>
    <i name="NUPDOWN">     -1.00000000</i>
    <i type="logical" name="LSORBIT"> F  </i>
    <v name="SAXIS">      0.00000000      0.00000000      1.00000000</v>
    <i type="logical" name="LSPIRAL"> F  </i>
    <v name="QSPIRAL">      0.00000000      0.00000000      0.00000000</v>
    <i type="logical" name="LZEROZ"> F  </i>
   </separator>
   <separator name="electronic exchange-correlation" >
    <i type="logical" name="LASPH"> T  </i>
    <i type="logical" name="LMETAGGA"> F  </i>
   </separator>
   <separator name="electronic convergence" >
    <i type="int" name="NELM">   100</i>
    <i type="int" name="NELMDL">    -5</i>
    <i type="int" name="NELMIN">     6</i>
    <i name="ENINI">    600.00000000</i>
    <separator name="electronic convergence detail" >
     <i type="logical" name="LDIAG"> T  </i>
     <i type="logical" name="LSUBROT"> F  </i>
     <i name="WEIMIN">      0.00000000</i>
     <i name="EBREAK">      0.00000000</i>
     <i name="DEPER">      0.30000000</i>
     <i type="int" name="NRMM">     4</i>
     <i name="TIME">      0.40000000</i>
    </separator>
   </separator>
   <separator name="electronic mixer" >
    <i name="AMIX">      0.40000000</i>
    <i name="BMIX">      1.00000000</i>
    <i name="AMIN">      0.10000000</i>
    <i name="AMIX_MAG">      1.60000000</i>
    <i name="BMIX_MAG">      1.00000000</i>
    <separator name="electronic mixer details" >
     <i type="int" name="IMIX">     4</i>
     <i type="logical" name="MIXFIRST"> F  </i>
     <i type="int" name="MAXMIX">   -45</i>
     <i name="WC">    100.00000000</i>
     <i type="int" name="INIMIX">     1</i>
     <i type="int" name="MIXPRE">     1</i>
     <i type="int" name="MREMOVE">     5</i>
    </separator>
   </separator>
   <separator name="electronic dipolcorrection" >
    <i type="logical" name="LDIPOL"> F  </i>
    <i type="logical" name="LMONO"> F  </i>
    <i type="int" name="IDIPOL">     0</i>
    <i name="EPSILON">      1.00000000</i>
    <v name="DIPOL">   -100.00000000   -100.00000000   -100.00000000</v>
    <i name="EFIELD">      0.00000000</i>
   </separator>
  </separator>
  <separator name="grids" >
   <i type="int" name="NGX">    56</i>
   <i type="int" name="NGY">    56</i>
   <i type="int" name="NGZ">    56</i>
   <i type="int" name="NGXF">   112</i>
   <i type="int" name="NGYF">   112</i>
   <i type="int" name="NGZF">   112</i>
   <i type="logical" name="ADDGRID"> T  </i>
  </separator>
  <separator name="ionic" >
   <i type="int" name="NSW">     0</i>
   <i type="int" name="IBRION">    -1</i>
   <i type="int" name="MDALGO">     0</i>
   <i type="int" name="ISIF">    -1</i>
   <i name="PSTRESS">      0.00000000</i>
   <i name="EDIFFG">      0.00000001</i>
   <i type="int" name="NFREE">     0</i>
   <i name="POTIM">      0.50000000</i>
   <i name="SMASS">     -3.00000000</i>
   <i name="SCALEE">      1.00000000</i>
  </separator>
  <separator name="ionic md" >
   <i name="TEBEG">      0.00010000</i>
   <i name="TEEND">      0.00010000</i>
   <i type="int" name="NBLOCK">     1</i>
   <i type="int" name="KBLOCK">     1</i>
   <i type="int" name="NPACO">   256</i>
   <i name="APACO">     16.00000000</i>
  </separator>
  <separator name="symmetry" >
   <i type="int" name="ISYM">     2</i>
   <i name="SYMPREC">      0.00010000</i>
  </separator>
  <separator name="dos" >
   <i type="int" name="LORBIT">     0</i>
   <v name="RWIGS">     -1.00000000     -1.00000000     -1.00000000</v>
   <i type="int" name="NEDOS">   301</i>
   <i name="EMIN">     10.00000000</i>
   <i name="EMAX">    -10.00000000</i>
   <i name="EFERMI">      0.00000000</i>
  </separator>
  <separator name="writing" >
   <i type="int" name="NWRITE">     2</i>
   <i type="logical" name="LWAVE"> T  </i>
   <i type="logical" name="LDOWNSAMPLE"> F  </i>
   <i type="logical" name="LCHARG"> T  </i>
   <i type="logical" name="LPARD"> F  </i>
   <i type="logical" name="LVTOT"> F  </i>
   <i type="logical" name="LVHAR"> F  </i>
   <i type="logical" name="LELF"> F  </i>
   <i type="logical" name="LOPTICS"> F  </i>
   <v name="STM">      0.00000000      0.00000000      0.00000000      0.00000000      0.00000000      0.00000000      0.00000000</v>
  </separator>
  <separator name="performance" >
   <i type="int" name="NPAR">     6</i>
   <i type="int" name="NSIM">     4</i>
   <i type="int" name="NBLK">    -1</i>
   <i type="logical" name="LPLANE"> T  </i>
   <i type="logical" name="LSCALAPACK"> T  </i>
   <i type="logical" name="LSCAAWARE"> F  </i>
   <i type="logical" name="LSCALU"> F  </i>
   <i type="logical" name="LASYNC"> F  </i>
   <i type="logical" name="LORBITALREAL"> F  </i>
  </separator>
  <separator name="miscellaneous" >
   <i type="int" name="IDIOT">     3</i>
   <i type="int" name="PHON_NSTRUCT">    -1</i>
   <i type="logical" name="LMUSIC"> F  </i>
   <v name="POMASS">     10.81100000     95.94000000     28.08500000</v>
   <v name="DARWINR">      0.00000000      0.00000000      0.00000000</v>
   <v name="DARWINV">      1.00000000      1.00000000      1.00000000</v>
   <i type="logical" name="LCORR"> T  </i>
  </separator>
  <i type="logical" name="GGA_COMPAT"> T  </i>
  <i type="logical" name="LBERRY"> F  </i>
  <i type="int" name="ICORELEVEL">     0</i>
  <i type="logical" name="LDAU"> F  </i>
  <i type="int" name="I_CONSTRAINED_M">     0</i>
  <separator name="electronic exchange-correlation" >
   <i type="string" name="GGA">--</i>
   <i type="int" name="VOSKOWN">     0</i>
   <i type="logical" name="LHFCALC"> F  </i>
   <i type="string" name="PRECFOCK"></i>
   <i type="logical" name="LSYMGRAD"> F  </i>
   <i type="logical" name="LHFONE"> F  </i>
   <i type="logical" name="LRHFCALC"> F  </i>
   <i type="logical" name="LTHOMAS"> F  </i>
   <i type="logical" name="LMODELHF"> F  </i>
   <i type="logical" name="LFOCKACE"> F  </i>
   <i name="ENCUT4O">     -1.00000000</i>
   <i type="int" name="EXXOEP">     0</i>
   <i type="int" name="FOURORBIT">     0</i>
   <i name="AEXX">      0.00000000</i>
   <i name="HFALPHA">      0.00000000</i>
   <i name="MCALPHA">      0.00000000</i>
   <i name="ALDAX">      1.00000000</i>
   <i name="AGGAX">      1.00000000</i>
   <i name="ALDAC">      1.00000000</i>
   <i name="AGGAC">      1.00000000</i>
   <i type="int" name="NKREDX">     1</i>
   <i type="int" name="NKREDY">     1</i>
   <i type="int" name="NKREDZ">     1</i>
   <i type="logical" name="SHIFTRED"> F  </i>
   <i type="logical" name="ODDONLY"> F  </i>
   <i type="logical" name="EVENONLY"> F  </i>
   <i type="int" name="LMAXFOCK">     0</i>
   <i type="int" name="NMAXFOCKAE">     0</i>
   <i type="logical" name="LFOCKAEDFT"> F  </i>
   <i name="HFSCREEN">      0.00000000</i>
   <i name="HFSCREENC">      0.00000000</i>
   <i type="int" name="NBANDSGWLOW">     0</i>
  </separator>
  <separator name="vdW DFT" >
   <i type="logical" name="LUSE_VDW"> F  </i>
   <i name="Zab_VDW">     -0.84910000</i>
   <i name="PARAM1">      0.12340000</i>
   <i name="PARAM2">      1.00000000</i>
   <i name="PARAM3">      0.00000000</i>
  </separator>
  <separator name="model GW" >
   <i type="int" name="MODEL_GW">     0</i>
   <i name="MODEL_EPS0">      8.55016555</i>
   <i name="MODEL_ALPHA">      1.00000000</i>
  </separator>
  <separator name="linear response parameters" >
   <i type="logical" name="LEPSILON"> F  </i>
   <i type="logical" name="LRPA"> F  </i>
   <i type="logical" name="LNABLA"> F  </i>
   <i type="logical" name="LVEL"> F  </i>
   <i type="int" name="KINTER">     0</i>
   <i name="CSHIFT">      0.10000000</i>
   <i name="OMEGAMAX">     -1.00000000</i>
   <i name="DEG_THRESHOLD">      0.00200000</i>
   <i name="RTIME">     -0.10000000</i>
   <i name="WPLASMAI">      0.00000000</i>
   <v name="DFIELD">      0.00000000      0.00000000      0.00000000</v>
   <v name="WPLASMA">      0.00000000      0.00000000      0.00000000      0.00000000      0.00000000      0.00000000      0.00000000      0.00000000      0.00000000</v>
  </separator>
  <separator name="orbital magnetization" >
   <i type="logical" name="NUCIND"> F  </i>
   <v name="MAGPOS">      0.00000000      0.00000000      0.00000000</v>
   <i type="logical" name="LNICSALL"> T  </i>
   <i type="logical" name="ORBITALMAG"> F  </i>
   <i type="logical" name="LMAGBLOCH"> F  </i>
   <i type="logical" name="LCHIMAG"> F  </i>
   <i type="logical" name="LGAUGE"> T  </i>
   <i type="int" name="MAGATOM">     0</i>
   <v name="MAGDIPOL">      0.00000000      0.00000000      0.00000000</v>
   <v name="AVECCONST">      0.00000000      0.00000000      0.00000000</v>
  </separator>
  <separator name="response functions" >
   <i type="logical" name="LFINITE_TEMPERATURE"> F  </i>
   <i type="logical" name="LADDER"> F  </i>
   <i type="logical" name="LRPAFORCE"> F  </i>
   <i type="logical" name="LFXC"> F  </i>
   <i type="logical" name="LHARTREE"> T  </i>
   <i type="int" name="IBSE">     0</i>
   <v type="int" name="KPOINT">    -1     0     0     0</v>
   <i type="logical" name="LTCTC"> F  </i>
   <i type="logical" name="LTCTE"> F  </i>
   <i type="logical" name="LTETE"> F  </i>
   <i type="logical" name="LTRIPLET"> F  </i>
   <i type="logical" name="LFXCEPS"> F  </i>
   <i type="logical" name="LFXHEG"> F  </i>
   <i type="int" name="NATURALO">     2</i>
   <i type="logical" name="LHOLEGF"> F  </i>
   <i type="logical" name="L2ORDER"> F  </i>
   <i type="logical" name="LDMP1"> F  </i>
   <i type="logical" name="LMP2LT"> F  </i>
   <i type="logical" name="LSMP2LT"> F  </i>
   <i type="logical" name="LGWLF"> F  </i>
   <i name="ENCUTGW">     -2.00000000</i>
   <i name="ENCUTGWSOFT">     -2.00000000</i>
   <i name="ENCUTLF">     -1.00000000</i>
   <i type="logical" name="LESF_SPLINES"> F  </i>
   <i type="int" name="LMAXMP2">    -1</i>
   <i name="SCISSOR">      0.00000000</i>
   <i type="int" name="NOMEGA">     0</i>
   <i type="int" name="NOMEGAR">     0</i>
   <i type="int" name="NBANDSGW">    -1</i>
   <i type="int" name="NBANDSO">    -1</i>
   <i type="int" name="NBANDSV">    -1</i>
   <i type="int" name="NELM">   100</i>
   <i type="int" name="NELMHF">     1</i>
   <i type="int" name="DIM">     3</i>
   <i type="int" name="IESPILON">     4</i>
   <i type="int" name="ANTIRES">     0</i>
   <i name="OMEGAMAX">    -30.00000000</i>
   <i name="OMEGAMIN">    -30.00000000</i>
   <i name="OMEGATL">   -200.00000000</i>
   <i type="int" name="OMEGAGRID">     0</i>
   <i name="CSHIFT">     -0.10000000</i>
   <i type="logical" name="LSELFENERGY"> F  </i>
   <i type="logical" name="LSPECTRAL"> F  </i>
   <i type="logical" name="LSPECTRALGW"> F  </i>
   <i type="logical" name="LSINGLES"> F  </i>
   <i type="logical" name="LFERMIGW"> F  </i>
   <i type="logical" name="ODDONLYGW"> F  </i>
   <i type="logical" name="EVENONLYGW"> F  </i>
   <i type="int" name="NKREDLFX">     1</i>
   <i type="int" name="NKREDLFY">     1</i>
   <i type="int" name="NKREDLFZ">     1</i>
   <i type="int" name="MAXMEM">  2800</i>
   <i type="int" name="TELESCOPE">     0</i>
   <i type="int" name="NTAUPAR">    -1</i>
   <i type="int" name="NOMEGAPAR">    -1</i>
   <i name="DAMP_NEWTON">      0.80000001</i>
   <i name="LAMBDA">      1.00000000</i>
  </separator>
  <separator name="External order field" >
   <i name="OFIELD_KAPPA">      0.00000000</i>
   <v name="OFIELD_K">      0.00000000      0.00000000      0.00000000</v>
   <i name="OFIELD_Q6_NEAR">      0.00000000</i>
   <i name="OFIELD_Q6_FAR">      0.00000000</i>
   <i name="OFIELD_A">      0.00000000</i>
  </separator>
 </parameters>
 <atominfo>
  <atoms>      16 </atoms>
  <types>       3 </types>
  <array name="atoms" >
   <dimension dim="1">ion</dimension>
   <field type="string">element</field>
   <field type="int">atomtype</field>
   <set>
    <rc><c>B </c><c>   1</c></rc>
    <rc><c>B </c><c>   1</c></rc>
    <rc><c>B </c><c>   1</c></rc>
    <rc><c>B </c><c>   1</c></rc>
    <rc><c>B </c><c>   1</c></rc>
    <rc><c>B </c><c>   1</c></rc>
    <rc><c>B </c><c>   1</c></rc>
    <rc><c>B </c><c>   1</c></rc>
    <rc><c>Mo</c><c>   2</c></rc>
    <rc><c>Mo</c><c>   2</c></rc>
    <rc><c>Mo</c><c>   2</c></rc>
    <rc><c>Mo</c><c>   2</c></rc>
    <rc><c>Mo</c><c>   2</c></rc>
    <rc><c>Mo</c><c>   2</c></rc>
    <rc><c>Si</c><c>   3</c></rc>
    <rc><c>Si</c><c>   3</c></rc>
   </set>
  </array>
  <array name="atomtypes" >
   <dimension dim="1">type</dimension>
   <field type="int">atomspertype</field>
   <field type="string">element</field>
   <field>mass</field>
   <field>valence</field>
   <field type="string">pseudopotential</field>
   <set>
    <rc><c>   8</c><c>B </c><c>     10.81100000</c><c>      3.00000000</c><c>  PAW_PBE B 06Sep2000                   </c></rc>
    <rc><c>   6</c><c>Mo</c><c>     95.94000000</c><c>     14.00000000</c><c>  PAW_PBE Mo_sv 02Feb2006               </c></rc>
    <rc><c>   2</c><c>Si</c><c>     28.08500000</c><c>      4.00000000</c><c>  PAW_PBE Si 05Jan2001                  </c></rc>
   </set>
  </array>
 </atominfo>
 <structure name="initialpos" >
  <crystal>
   <varray name="basis" >
    <v>       5.92498233       0.00000000      -3.48381611 </v>
    <v>      -1.93895105       5.59873954      -3.48381611 </v>
    <v>       0.00000000       0.00000000       6.87331000 </v>
   </varray>
   <i name="volume">    228.00441473 </i>
   <varray name="rec_basis" >
    <v>       0.16877687       0.05845067       0.00000000 </v>
    <v>       0.00000000       0.17861163       0.00000000 </v>
    <v>       0.08554650       0.12015775       0.14549031 </v>
   </varray>
  </crystal>
  <varray name="positions" >
   <v>       0.30580000       0.80580000       0.30034000 </v>
   <v>       0.69420000       0.19420000       0.69966000 </v>
   <v>       0.80580000       0.50547000       0.50000000 </v>
   <v>       0.19420000       0.49453000       0.50000000 </v>
   <v>       0.50547000       0.00547000       0.69966000 </v>
   <v>       0.49453000       0.99453000       0.30034000 </v>
   <v>       0.00547000       0.30580000       0.50000000 </v>
   <v>       0.99453000       0.69420000       0.50000000 </v>
   <v>       0.18209000       0.68209000       0.86418000 </v>
   <v>       0.00000000       0.00000000       0.00000000 </v>
   <v>       0.81791000       0.31791000       0.13582000 </v>
   <v>       0.68209000       0.81791000       0.50000000 </v>
   <v>       0.31791000       0.18209000       0.50000000 </v>
   <v>       0.50000000       0.50000000       0.00000000 </v>
   <v>       0.25000000       0.25000000       0.00000000 </v>
   <v>       0.75000000       0.75000000       0.00000000 </v>
  </varray>
 </structure>
 <calculation>
  <scstep>
   <time name="total">   27.71   28.01</time>
   <energy>
    <i name="alphaZ">    503.71746738 </i>
    <i name="ewald">  -7851.01580114 </i>
    <i name="hartreedc">  -3917.46937811 </i>
    <i name="XCdc">    514.36277560 </i>
    <i name="pawpsdc">   9417.46121024 </i>
    <i name="pawaedc">  -9379.23717351 </i>
    <i name="eentropy">     -0.00088795 </i>
    <i name="bandstr">   -160.38461258 </i>
    <i name="atom">  11949.18504973 </i>
    <i name="e_fr_energy">   1076.61864966 </i>
    <i name="e_wo_entrp">   1076.61953762 </i>
    <i name="e_0_energy">   1076.61909364 </i>
   </energy>
  </scstep>
  <scstep>
   <time name="total">   29.77   30.11</time>
   <energy>
    <i name="e_fr_energy">   -197.86101732 </i>
    <i name="e_wo_entrp">   -197.85894109 </i>
    <i name="e_0_energy">   -197.85997920 </i>
   </energy>
  </scstep>
  <scstep>
   <time name="total">   33.83   34.30</time>
   <energy>
    <i name="e_fr_energy">   -260.33854145 </i>
    <i name="e_wo_entrp">   -260.33719098 </i>
    <i name="e_0_energy">   -260.33786621 </i>
   </energy>
  </scstep>
  <scstep>
   <time name="total">   32.56   32.91</time>
   <energy>
    <i name="e_fr_energy">   -262.12602052 </i>
    <i name="e_wo_entrp">   -262.12427206 </i>
    <i name="e_0_energy">   -262.12514629 </i>
   </energy>
  </scstep>
  <scstep>
   <time name="total">   34.18   34.54</time>
   <energy>
    <i name="e_fr_energy">   -262.16803131 </i>
    <i name="e_wo_entrp">   -262.16624314 </i>
    <i name="e_0_energy">   -262.16713723 </i>
   </energy>
  </scstep>
  <scstep>
   <time name="total">   35.04   35.45</time>
   <energy>
    <i name="e_fr_energy">   -184.26308307 </i>
    <i name="e_wo_entrp">   -184.26074412 </i>
    <i name="e_0_energy">   -184.26191359 </i>
   </energy>
  </scstep>
  <scstep>
   <time name="total">   38.56   38.91</time>
   <energy>
    <i name="e_fr_energy">   -207.55690038 </i>
    <i name="e_wo_entrp">   -207.55461867 </i>
    <i name="e_0_energy">   -207.55575952 </i>
   </energy>
  </scstep>
  <scstep>
   <time name="total">   39.11   39.47</time>
   <energy>
    <i name="e_fr_energy">   -211.06719084 </i>
    <i name="e_wo_entrp">   -211.06427942 </i>
    <i name="e_0_energy">   -211.06573513 </i>
   </energy>
  </scstep>
  <scstep>
   <time name="total">   39.90   40.33</time>
   <energy>
    <i name="e_fr_energy">   -211.96892986 </i>
    <i name="e_wo_entrp">   -211.96582886 </i>
    <i name="e_0_energy">   -211.96737936 </i>
   </energy>
  </scstep>
  <scstep>
   <time name="total">   40.83   41.26</time>
   <energy>
    <i name="e_fr_energy">   -212.37491081 </i>
    <i name="e_wo_entrp">   -212.37197576 </i>
    <i name="e_0_energy">   -212.37344329 </i>
   </energy>
  </scstep>
  <scstep>
   <time name="total">   38.30   38.66</time>
   <energy>
    <i name="e_fr_energy">   -212.51194058 </i>
    <i name="e_wo_entrp">   -212.50931487 </i>
    <i name="e_0_energy">   -212.51062773 </i>
   </energy>
  </scstep>
  <scstep>
   <time name="total">   39.77   40.15</time>
   <energy>
    <i name="e_fr_energy">   -212.57385795 </i>
    <i name="e_wo_entrp">   -212.57135242 </i>
    <i name="e_0_energy">   -212.57260518 </i>
   </energy>
  </scstep>
  <scstep>
   <time name="total">   38.06   38.43</time>
   <energy>
    <i name="e_fr_energy">   -212.60246752 </i>
    <i name="e_wo_entrp">   -212.59996117 </i>
    <i name="e_0_energy">   -212.60121434 </i>
   </energy>
  </scstep>
  <scstep>
   <time name="total">   38.60   38.96</time>
   <energy>
    <i name="e_fr_energy">   -212.61560344 </i>
    <i name="e_wo_entrp">   -212.61310410 </i>
    <i name="e_0_energy">   -212.61435377 </i>
   </energy>
  </scstep>
  <scstep>
   <time name="total">   39.51   39.91</time>
   <energy>
    <i name="e_fr_energy">   -212.62227896 </i>
    <i name="e_wo_entrp">   -212.61978079 </i>
    <i name="e_0_energy">   -212.62102988 </i>
   </energy>
  </scstep>
  <scstep>
   <time name="total">   41.12   41.54</time>
   <energy>
    <i name="e_fr_energy">   -212.62505876 </i>
    <i name="e_wo_entrp">   -212.62255061 </i>
    <i name="e_0_energy">   -212.62380468 </i>
   </energy>
  </scstep>
  <scstep>
   <time name="total">   41.51   41.90</time>
   <energy>
    <i name="e_fr_energy">   -212.62627032 </i>
    <i name="e_wo_entrp">   -212.62375699 </i>
    <i name="e_0_energy">   -212.62501365 </i>
   </energy>
  </scstep>
  <scstep>
   <time name="total">   41.59   42.02</time>
   <energy>
    <i name="e_fr_energy">   -212.62681487 </i>
    <i name="e_wo_entrp">   -212.62430030 </i>
    <i name="e_0_energy">   -212.62555758 </i>
   </energy>
  </scstep>
  <scstep>
   <time name="total">   39.93   40.30</time>
   <energy>
    <i name="e_fr_energy">   -212.62703760 </i>
    <i name="e_wo_entrp">   -212.62452138 </i>
    <i name="e_0_energy">   -212.62577949 </i>
   </energy>
  </scstep>
  <scstep>
   <time name="total">   39.63   40.01</time>
   <energy>
    <i name="e_fr_energy">   -212.62712186 </i>
    <i name="e_wo_entrp">   -212.62460668 </i>
    <i name="e_0_energy">   -212.62586427 </i>
   </energy>
  </scstep>
  <scstep>
   <time name="total">   39.62   40.01</time>
   <energy>
    <i name="e_fr_energy">   -212.62715687 </i>
    <i name="e_wo_entrp">   -212.62464114 </i>
    <i name="e_0_energy">   -212.62589901 </i>
   </energy>
  </scstep>
  <scstep>
   <time name="total">   39.28   39.66</time>
   <energy>
    <i name="e_fr_energy">   -212.62717276 </i>
    <i name="e_wo_entrp">   -212.62465596 </i>
    <i name="e_0_energy">   -212.62591436 </i>
   </energy>
  </scstep>
  <scstep>
   <time name="total">   39.72   40.10</time>
   <energy>
    <i name="e_fr_energy">   -212.62718041 </i>
    <i name="e_wo_entrp">   -212.62466287 </i>
    <i name="e_0_energy">   -212.62592164 </i>
   </energy>
  </scstep>
  <scstep>
   <time name="total">   38.44   38.79</time>
   <energy>
    <i name="e_fr_energy">   -212.62718336 </i>
    <i name="e_wo_entrp">   -212.62466516 </i>
    <i name="e_0_energy">   -212.62592426 </i>
   </energy>
  </scstep>
  <scstep>
   <time name="total">   38.64   39.01</time>
   <energy>
    <i name="e_fr_energy">   -212.62718482 </i>
    <i name="e_wo_entrp">   -212.62466524 </i>
    <i name="e_0_energy">   -212.62592503 </i>
   </energy>
  </scstep>
  <scstep>
   <time name="total">   39.94   40.31</time>
   <energy>
    <i name="e_fr_energy">   -212.62718545 </i>
    <i name="e_wo_entrp">   -212.62466617 </i>
    <i name="e_0_energy">   -212.62592581 </i>
   </energy>
  </scstep>
  <scstep>
   <time name="total">   38.73   39.09</time>
   <energy>
    <i name="e_fr_energy">   -212.62718577 </i>
    <i name="e_wo_entrp">   -212.62466660 </i>
    <i name="e_0_energy">   -212.62592619 </i>
   </energy>
  </scstep>
  <scstep>
   <time name="total">   65.47   66.06</time>
   <energy>
    <i name="e_fr_energy">   -212.62718590 </i>
    <i name="e_wo_entrp">   -212.62466664 </i>
    <i name="e_0_energy">   -212.62592627 </i>
   </energy>
  </scstep>
  <scstep>
   <time name="total">   39.90   40.27</time>
   <energy>
    <i name="e_fr_energy">   -212.62718420 </i>
    <i name="e_wo_entrp">   -212.62466547 </i>
    <i name="e_0_energy">   -212.62592484 </i>
   </energy>
  </scstep>
  <scstep>
   <time name="total">   39.68   40.07</time>
   <energy>
    <i name="e_fr_energy">   -212.62718541 </i>
    <i name="e_wo_entrp">   -212.62466662 </i>
    <i name="e_0_energy">   -212.62592601 </i>
   </energy>
  </scstep>
  <scstep>
   <time name="total">   39.76   40.14</time>
   <energy>
    <i name="e_fr_energy">   -212.62718590 </i>
    <i name="e_wo_entrp">   -212.62466686 </i>
    <i name="e_0_energy">   -212.62592638 </i>
   </energy>
  </scstep>
  <scstep>
   <time name="total">   40.31   40.68</time>
   <energy>
    <i name="e_fr_energy">   -212.62718588 </i>
    <i name="e_wo_entrp">   -212.62466697 </i>
    <i name="e_0_energy">   -212.62592643 </i>
   </energy>
  </scstep>
  <scstep>
   <time name="total">   39.03   39.42</time>
   <energy>
    <i name="e_fr_energy">   -212.62718605 </i>
    <i name="e_wo_entrp">   -212.62466718 </i>
    <i name="e_0_energy">   -212.62592662 </i>
   </energy>
  </scstep>
  <scstep>
   <time name="total">   37.69   38.04</time>
   <energy>
    <i name="e_fr_energy">   -212.62718604 </i>
    <i name="e_wo_entrp">   -212.62466718 </i>
    <i name="e_0_energy">   -212.62592661 </i>
   </energy>
  </scstep>
  <scstep>
   <time name="total">   38.43   38.80</time>
   <energy>
    <i name="e_fr_energy">   -212.62718604 </i>
    <i name="e_wo_entrp">   -212.62466717 </i>
    <i name="e_0_energy">   -212.62592661 </i>
   </energy>
  </scstep>
  <scstep>
   <time name="total">   39.69   40.06</time>
   <energy>
    <i name="e_fr_energy">   -212.62718604 </i>
    <i name="e_wo_entrp">   -212.62466717 </i>
    <i name="e_0_energy">   -212.62592660 </i>
   </energy>
  </scstep>
  <scstep>
   <time name="total">   40.39   40.77</time>
   <energy>
    <i name="e_fr_energy">   -212.62718604 </i>
    <i name="e_wo_entrp">   -212.62466717 </i>
    <i name="e_0_energy">   -212.62592660 </i>
   </energy>
  </scstep>
  <scstep>
   <time name="total">   44.42   44.85</time>
   <energy>
    <i name="alphaZ">    503.71746738 </i>
    <i name="ewald">  -7851.01580114 </i>
    <i name="hartreedc">  -3839.23598946 </i>
    <i name="XCdc">    525.77346206 </i>
    <i name="pawpsdc">  13146.39938344 </i>
    <i name="pawaedc"> -13128.54175808 </i>
    <i name="eentropy">     -0.00251888 </i>
    <i name="bandstr">  -1518.90648109 </i>
    <i name="atom">  11949.18504973 </i>
    <i name="e_fr_energy">   -212.62718604 </i>
    <i name="e_wo_entrp">   -212.62466717 </i>
    <i name="e_0_energy">   -212.62592660 </i>
   </energy>
  </scstep>
  <structure>
   <crystal>
    <varray name="basis" >
     <v>       5.92498233       0.00000000      -3.48381611 </v>
     <v>      -1.93895105       5.59873954      -3.48381611 </v>
     <v>       0.00000000       0.00000000       6.87331000 </v>
    </varray>
    <i name="volume">    228.00441473 </i>
    <varray name="rec_basis" >
     <v>       0.16877687       0.05845067       0.00000000 </v>
     <v>       0.00000000       0.17861163       0.00000000 </v>
     <v>       0.08554650       0.12015775       0.14549031 </v>
    </varray>
   </crystal>
   <varray name="positions" >
    <v>       0.30580000       0.80580000       0.30034000 </v>
    <v>       0.69420000       0.19420000       0.69966000 </v>
    <v>       0.80580000       0.50547000       0.50000000 </v>
    <v>       0.19420000       0.49453000       0.50000000 </v>
    <v>       0.50547000       0.00547000       0.69966000 </v>
    <v>       0.49453000       0.99453000       0.30034000 </v>
    <v>       0.00547000       0.30580000       0.50000000 </v>
    <v>       0.99453000       0.69420000       0.50000000 </v>
    <v>       0.18209000       0.68209000       0.86418000 </v>
    <v>       0.00000000       0.00000000       0.00000000 </v>
    <v>       0.81791000       0.31791000       0.13582000 </v>
    <v>       0.68209000       0.81791000       0.50000000 </v>
    <v>       0.31791000       0.18209000       0.50000000 </v>
    <v>       0.50000000       0.50000000       0.00000000 </v>
    <v>       0.25000000       0.25000000       0.00000000 </v>
    <v>       0.75000000       0.75000000       0.00000000 </v>
   </varray>
  </structure>
  <varray name="forces" >
   <v>       0.00000000       0.00000000       0.00000000 </v>
   <v>       0.00000000       0.00000000       0.00000000 </v>
   <v>       0.00000000       0.00000000       0.00000000 </v>
   <v>       0.00000000       0.00000000       0.00000000 </v>
   <v>       0.00000000       0.00000000       0.00000000 </v>
   <v>       0.00000000       0.00000000       0.00000000 </v>
   <v>       0.00000000       0.00000000       0.00000000 </v>
   <v>       0.00000000       0.00000000       0.00000000 </v>
   <v>       0.00000000       0.00000000       0.00000000 </v>
   <v>       0.00000000       0.00000000       0.00000000 </v>
   <v>       0.00000000       0.00000000       0.00000000 </v>
   <v>       0.00000000       0.00000000       0.00000000 </v>
   <v>       0.00000000       0.00000000       0.00000000 </v>
   <v>       0.00000000       0.00000000       0.00000000 </v>
   <v>       0.00000000       0.00000000       0.00000000 </v>
   <v>       0.00000000       0.00000000       0.00000000 </v>
  </varray>
  <varray name="stress" >
   <v>       0.00000000       0.00000000       0.00000000 </v>
   <v>       0.00000000       0.00000000       0.00000000 </v>
   <v>       0.00000000       0.00000000       0.00000000 </v>
  </varray>
  <energy>
   <i name="e_fr_energy">   -212.62718604 </i>
   <i name="e_wo_entrp">   -212.62466717 </i>
   <i name="e_0_energy">   -212.62592660 </i>
  </energy>
  <time name="totalsc"> 1493.86 1508.59</time>
  <eigenvalues>
   <array>
    <dimension dim="1">band</dimension>
    <dimension dim="2">kpoint</dimension>
    <dimension dim="3">spin</dimension>
    <field>eigene</field>
    <field>occ</field>
    <set>
     <set comment="spin 1">
      <set comment="kpoint 1">
       <r>  -55.9799    1.0000 </r>
       <r>  -55.8980    1.0000 </r>
       <r>  -55.3849    1.0000 </r>
       <r>  -55.3838    1.0000 </r>
       <r>  -55.3806    1.0000 </r>
       <r>  -55.3042    1.0000 </r>
       <r>  -30.2137    1.0000 </r>
       <r>  -30.2136    1.0000 </r>
       <r>  -29.5576    1.0000 </r>
       <r>  -29.5575    1.0000 </r>
       <r>  -29.3326    1.0000 </r>
       <r>  -29.2743    1.0000 </r>
       <r>  -29.1111    1.0000 </r>
       <r>  -28.9811    1.0000 </r>
       <r>  -28.9728    1.0000 </r>
       <r>  -28.9300    1.0000 </r>
       <r>  -28.8204    1.0000 </r>
       <r>  -28.8193    1.0000 </r>
       <r>  -28.7884    1.0000 </r>
       <r>  -28.7874    1.0000 </r>
       <r>  -28.7836    1.0000 </r>
       <r>  -28.7350    1.0000 </r>
       <r>  -28.1246    1.0000 </r>
       <r>  -28.1241    1.0000 </r>
       <r>   -5.4735    1.0000 </r>
       <r>   -3.6242    1.0000 </r>
       <r>   -1.6273    1.0000 </r>
       <r>   -1.6272    1.0000 </r>
       <r>   -1.5767    1.0000 </r>
       <r>   -0.7890    1.0000 </r>
       <r>   -0.3237    1.0000 </r>
       <r>    0.8546    1.0000 </r>
       <r>    0.9506    1.0000 </r>
       <r>    1.3153    1.0000 </r>
       <r>    1.6097    1.0000 </r>
       <r>    1.6099    1.0000 </r>
       <r>    2.1757    1.0000 </r>
       <r>    2.6422    1.0000 </r>
       <r>    3.3480    1.0000 </r>
       <r>    3.3483    1.0000 </r>
       <r>    3.4587    1.0000 </r>
       <r>    3.5792    1.0000 </r>
       <r>    3.6796    1.0000 </r>
       <r>    3.6799    1.0000 </r>
       <r>    3.9464    1.0000 </r>
       <r>    5.1402    1.0000 </r>
       <r>    5.2639    1.0000 </r>
       <r>    5.2647    1.0000 </r>
       <r>    5.8808    1.0000 </r>
       <r>    5.9411    1.0000 </r>
       <r>    5.9511    1.0000 </r>
       <r>    6.0519    1.0000 </r>
       <r>    6.0522    1.0000 </r>
       <r>    6.2310    1.0000 </r>
       <r>    6.3447    1.0000 </r>
       <r>    6.4034    1.0000 </r>
       <r>    6.7408    1.0000 </r>
       <r>    6.7412    1.0000 </r>
       <r>    6.9192    1.0000 </r>
       <r>    7.2555    1.0000 </r>
       <r>    7.2564    1.0000 </r>
       <r>    7.3906    0.3824 </r>
       <r>    7.6051    0.0000 </r>
       <r>    7.6052    0.0000 </r>
       <r>    8.2931    0.0000 </r>
       <r>    8.4518    0.0000 </r>
       <r>    8.8415    0.0000 </r>
       <r>    8.8415    0.0000 </r>
       <r>    8.9032    0.0000 </r>
       <r>    9.3264    0.0000 </r>
       <r>    9.3526    0.0000 </r>
       <r>    9.5119    0.0000 </r>
      </set>
      <set comment="kpoint 2">
       <r>  -55.9750    1.0000 </r>
       <r>  -55.9043    1.0000 </r>
       <r>  -55.3841    1.0000 </r>
       <r>  -55.3812    1.0000 </r>
       <r>  -55.3778    1.0000 </r>
       <r>  -55.3090    1.0000 </r>
       <r>  -30.1845    1.0000 </r>
       <r>  -30.1843    1.0000 </r>
       <r>  -29.6370    1.0000 </r>
       <r>  -29.6368    1.0000 </r>
       <r>  -29.3290    1.0000 </r>
       <r>  -29.2786    1.0000 </r>
       <r>  -29.1005    1.0000 </r>
       <r>  -28.9752    1.0000 </r>
       <r>  -28.9661    1.0000 </r>
       <r>  -28.9284    1.0000 </r>
       <r>  -28.7877    1.0000 </r>
       <r>  -28.7856    1.0000 </r>
       <r>  -28.7821    1.0000 </r>
       <r>  -28.7496    1.0000 </r>
       <r>  -28.7480    1.0000 </r>
       <r>  -28.7382    1.0000 </r>
       <r>  -28.1584    1.0000 </r>
       <r>  -28.1576    1.0000 </r>
       <r>   -5.3748    1.0000 </r>
       <r>   -3.7987    1.0000 </r>
       <r>   -1.6458    1.0000 </r>
       <r>   -1.5960    1.0000 </r>
       <r>   -1.5155    1.0000 </r>
       <r>   -0.7422    1.0000 </r>
       <r>   -0.4411    1.0000 </r>
       <r>    0.6482    1.0000 </r>
       <r>    1.0774    1.0000 </r>
       <r>    1.4611    1.0000 </r>
       <r>    1.7418    1.0000 </r>
       <r>    1.7862    1.0000 </r>
       <r>    2.1409    1.0000 </r>
       <r>    2.6636    1.0000 </r>
       <r>    3.0827    1.0000 </r>
       <r>    3.3190    1.0000 </r>
       <r>    3.5453    1.0000 </r>
       <r>    3.6063    1.0000 </r>
       <r>    3.6882    1.0000 </r>
       <r>    3.8227    1.0000 </r>
       <r>    3.9481    1.0000 </r>
       <r>    4.8742    1.0000 </r>
       <r>    5.0595    1.0000 </r>
       <r>    5.1645    1.0000 </r>
       <r>    5.4178    1.0000 </r>
       <r>    5.5102    1.0000 </r>
       <r>    5.7336    1.0000 </r>
       <r>    5.8297    1.0000 </r>
       <r>    6.0828    1.0000 </r>
       <r>    6.2544    1.0000 </r>
       <r>    6.4399    1.0000 </r>
       <r>    6.6770    1.0000 </r>
       <r>    6.8048    1.0000 </r>
       <r>    7.1195    1.0000 </r>
       <r>    7.1766    1.0000 </r>
       <r>    7.3385    0.9996 </r>
       <r>    7.4298    0.0011 </r>
       <r>    7.6260    0.0000 </r>
       <r>    7.8461    0.0000 </r>
       <r>    8.0841    0.0000 </r>
       <r>    8.1107    0.0000 </r>
       <r>    8.3047    0.0000 </r>
       <r>    8.7971    0.0000 </r>
       <r>    8.8246    0.0000 </r>
       <r>    9.0918    0.0000 </r>
       <r>    9.1677    0.0000 </r>
       <r>    9.3594    0.0000 </r>
       <r>    9.7065    0.0000 </r>
      </set>
      <set comment="kpoint 3">
       <r>  -55.9613    1.0000 </r>
       <r>  -55.9207    1.0000 </r>
       <r>  -55.3834    1.0000 </r>
       <r>  -55.3817    1.0000 </r>
       <r>  -55.3619    1.0000 </r>
       <r>  -55.3223    1.0000 </r>
       <r>  -30.0992    1.0000 </r>
       <r>  -30.0989    1.0000 </r>
       <r>  -29.7999    1.0000 </r>
       <r>  -29.7998    1.0000 </r>
       <r>  -29.3191    1.0000 </r>
       <r>  -29.2901    1.0000 </r>
       <r>  -29.0718    1.0000 </r>
       <r>  -28.9968    1.0000 </r>
       <r>  -28.9515    1.0000 </r>
       <r>  -28.9333    1.0000 </r>
       <r>  -28.7870    1.0000 </r>
       <r>  -28.7854    1.0000 </r>
       <r>  -28.7727    1.0000 </r>
       <r>  -28.7470    1.0000 </r>
       <r>  -28.5846    1.0000 </r>
       <r>  -28.5812    1.0000 </r>
       <r>  -28.2561    1.0000 </r>
       <r>  -28.2541    1.0000 </r>
       <r>   -5.0946    1.0000 </r>
       <r>   -4.2085    1.0000 </r>
       <r>   -1.6454    1.0000 </r>
       <r>   -1.5790    1.0000 </r>
       <r>   -1.3666    1.0000 </r>
       <r>   -0.8450    1.0000 </r>
       <r>   -0.4294    1.0000 </r>
       <r>    0.2473    1.0000 </r>
       <r>    1.3856    1.0000 </r>
       <r>    1.7559    1.0000 </r>
       <r>    2.0011    1.0000 </r>
       <r>    2.0220    1.0000 </r>
       <r>    2.3115    1.0000 </r>
       <r>    2.6104    1.0000 </r>
       <r>    3.0003    1.0000 </r>
       <r>    3.0607    1.0000 </r>
       <r>    3.4757    1.0000 </r>
       <r>    3.6515    1.0000 </r>
       <r>    3.7200    1.0000 </r>
       <r>    3.8552    1.0000 </r>
       <r>    3.9136    1.0000 </r>
       <r>    4.5014    1.0000 </r>
       <r>    4.5934    1.0000 </r>
       <r>    4.9009    1.0000 </r>
       <r>    4.9031    1.0000 </r>
       <r>    5.1929    1.0000 </r>
       <r>    5.4272    1.0000 </r>
       <r>    5.7019    1.0000 </r>
       <r>    6.0129    1.0000 </r>
       <r>    6.2594    1.0000 </r>
       <r>    6.4514    1.0000 </r>
       <r>    7.0171    1.0000 </r>
       <r>    7.1432    1.0000 </r>
       <r>    7.2680    1.0000 </r>
       <r>    7.3109    1.0000 </r>
       <r>    7.4638    0.0000 </r>
       <r>    7.7293    0.0000 </r>
       <r>    8.1195    0.0000 </r>
       <r>    8.1682    0.0000 </r>
       <r>    8.3501    0.0000 </r>
       <r>    8.4430    0.0000 </r>
       <r>    8.7457    0.0000 </r>
       <r>    8.7892    0.0000 </r>
       <r>    8.8452    0.0000 </r>
       <r>    9.0901    0.0000 </r>
       <r>    9.2090    0.0000 </r>
       <r>    9.2963    0.0000 </r>
       <r>    9.3399    0.0000 </r>
      </set>
      <set comment="kpoint 4">
       <r>  -55.9417    1.0000 </r>
       <r>  -55.9417    1.0000 </r>
       <r>  -55.3826    1.0000 </r>
       <r>  -55.3825    1.0000 </r>
       <r>  -55.3415    1.0000 </r>
       <r>  -55.3414    1.0000 </r>
       <r>  -29.9685    1.0000 </r>
       <r>  -29.9684    1.0000 </r>
       <r>  -29.9625    1.0000 </r>
       <r>  -29.9623    1.0000 </r>
       <r>  -29.3050    1.0000 </r>
       <r>  -29.3050    1.0000 </r>
       <r>  -29.0338    1.0000 </r>
       <r>  -29.0327    1.0000 </r>
       <r>  -28.9422    1.0000 </r>
       <r>  -28.9412    1.0000 </r>
       <r>  -28.7862    1.0000 </r>
       <r>  -28.7860    1.0000 </r>
       <r>  -28.7597    1.0000 </r>
       <r>  -28.7594    1.0000 </r>
       <r>  -28.4075    1.0000 </r>
       <r>  -28.4070    1.0000 </r>
       <r>  -28.4010    1.0000 </r>
       <r>  -28.4005    1.0000 </r>
       <r>   -4.6806    1.0000 </r>
       <r>   -4.6793    1.0000 </r>
       <r>   -1.6126    1.0000 </r>
       <r>   -1.6125    1.0000 </r>
       <r>   -1.1287    1.0000 </r>
       <r>   -1.1286    1.0000 </r>
       <r>   -0.1418    1.0000 </r>
       <r>   -0.1407    1.0000 </r>
       <r>    1.7200    1.0000 </r>
       <r>    1.7202    1.0000 </r>
       <r>    2.1276    1.0000 </r>
       <r>    2.1277    1.0000 </r>
       <r>    2.6079    1.0000 </r>
       <r>    2.6080    1.0000 </r>
       <r>    3.0240    1.0000 </r>
       <r>    3.0241    1.0000 </r>
       <r>    3.2724    1.0000 </r>
       <r>    3.2725    1.0000 </r>
       <r>    3.8473    1.0000 </r>
       <r>    3.8473    1.0000 </r>
       <r>    4.0408    1.0000 </r>
       <r>    4.0414    1.0000 </r>
       <r>    4.6653    1.0000 </r>
       <r>    4.6659    1.0000 </r>
       <r>    4.8166    1.0000 </r>
       <r>    4.8166    1.0000 </r>
       <r>    5.6192    1.0000 </r>
       <r>    5.6195    1.0000 </r>
       <r>    6.1394    1.0000 </r>
       <r>    6.1397    1.0000 </r>
       <r>    6.6234    1.0000 </r>
       <r>    6.6238    1.0000 </r>
       <r>    7.2714    1.0000 </r>
       <r>    7.2719    1.0000 </r>
       <r>    7.6884    0.0000 </r>
       <r>    7.6885    0.0000 </r>
       <r>    8.0350    0.0000 </r>
       <r>    8.0350    0.0000 </r>
       <r>    8.2510    0.0000 </r>
       <r>    8.2513    0.0000 </r>
       <r>    8.6768    0.0000 </r>
       <r>    8.6770    0.0000 </r>
       <r>    8.8531    0.0000 </r>
       <r>    8.8533    0.0000 </r>
       <r>    9.2007    0.0000 </r>
       <r>    9.2009    0.0000 </r>
       <r>    9.5324    0.0000 </r>
       <r>    9.5327    0.0000 </r>
      </set>
      <set comment="kpoint 5">
       <r>  -55.9707    1.0000 </r>
       <r>  -55.9096    1.0000 </r>
       <r>  -55.3852    1.0000 </r>
       <r>  -55.3810    1.0000 </r>
       <r>  -55.3720    1.0000 </r>
       <r>  -55.3128    1.0000 </r>
       <r>  -30.2090    1.0000 </r>
       <r>  -30.1041    1.0000 </r>
       <r>  -29.7925    1.0000 </r>
       <r>  -29.5698    1.0000 </r>
       <r>  -29.3266    1.0000 </r>
       <r>  -29.2816    1.0000 </r>
       <r>  -29.0901    1.0000 </r>
       <r>  -28.9731    1.0000 </r>
       <r>  -28.9670    1.0000 </r>
       <r>  -28.9277    1.0000 </r>
       <r>  -28.8318    1.0000 </r>
       <r>  -28.7898    1.0000 </r>
       <r>  -28.7840    1.0000 </r>
       <r>  -28.7788    1.0000 </r>
       <r>  -28.7405    1.0000 </r>
       <r>  -28.5820    1.0000 </r>
       <r>  -28.2556    1.0000 </r>
       <r>  -28.1238    1.0000 </r>
       <r>   -5.2572    1.0000 </r>
       <r>   -3.9476    1.0000 </r>
       <r>   -1.7535    1.0000 </r>
       <r>   -1.6067    1.0000 </r>
       <r>   -1.3870    1.0000 </r>
       <r>   -0.6590    1.0000 </r>
       <r>   -0.5833    1.0000 </r>
       <r>    0.3914    1.0000 </r>
       <r>    1.2242    1.0000 </r>
       <r>    1.5809    1.0000 </r>
       <r>    1.8397    1.0000 </r>
       <r>    1.9532    1.0000 </r>
       <r>    2.1229    1.0000 </r>
       <r>    2.8671    1.0000 </r>
       <r>    3.2187    1.0000 </r>
       <r>    3.2731    1.0000 </r>
       <r>    3.4279    1.0000 </r>
       <r>    3.4996    1.0000 </r>
       <r>    3.6318    1.0000 </r>
       <r>    3.9069    1.0000 </r>
       <r>    4.0695    1.0000 </r>
       <r>    4.6390    1.0000 </r>
       <r>    4.9092    1.0000 </r>
       <r>    4.9412    1.0000 </r>
       <r>    5.0664    1.0000 </r>
       <r>    5.2903    1.0000 </r>
       <r>    5.4776    1.0000 </r>
       <r>    5.8714    1.0000 </r>
       <r>    6.1888    1.0000 </r>
       <r>    6.4096    1.0000 </r>
       <r>    6.4259    1.0000 </r>
       <r>    6.6872    1.0000 </r>
       <r>    6.8743    1.0000 </r>
       <r>    7.0999    1.0000 </r>
       <r>    7.1658    1.0000 </r>
       <r>    7.3181    1.0000 </r>
       <r>    7.5840    0.0000 </r>
       <r>    7.9733    0.0000 </r>
       <r>    7.9930    0.0000 </r>
       <r>    8.1166    0.0000 </r>
       <r>    8.1357    0.0000 </r>
       <r>    8.4990    0.0000 </r>
       <r>    8.7865    0.0000 </r>
       <r>    8.8682    0.0000 </r>
       <r>    8.9921    0.0000 </r>
       <r>    9.1925    0.0000 </r>
       <r>    9.5895    0.0000 </r>
       <r>    9.7159    0.0000 </r>
      </set>
      <set comment="kpoint 6">
       <r>  -55.9587    1.0000 </r>
       <r>  -55.9236    1.0000 </r>
       <r>  -55.3852    1.0000 </r>
       <r>  -55.3825    1.0000 </r>
       <r>  -55.3576    1.0000 </r>
       <r>  -55.3238    1.0000 </r>
       <r>  -30.1762    1.0000 </r>
       <r>  -29.9757    1.0000 </r>
       <r>  -29.9552    1.0000 </r>
       <r>  -29.6541    1.0000 </r>
       <r>  -29.3183    1.0000 </r>
       <r>  -29.2908    1.0000 </r>
       <r>  -29.0616    1.0000 </r>
       <r>  -28.9878    1.0000 </r>
       <r>  -28.9591    1.0000 </r>
       <r>  -28.9351    1.0000 </r>
       <r>  -28.7900    1.0000 </r>
       <r>  -28.7862    1.0000 </r>
       <r>  -28.7686    1.0000 </r>
       <r>  -28.7569    1.0000 </r>
       <r>  -28.7472    1.0000 </r>
       <r>  -28.4057    1.0000 </r>
       <r>  -28.4027    1.0000 </r>
       <r>  -28.1573    1.0000 </r>
       <r>   -4.9799    1.0000 </r>
       <r>   -4.2855    1.0000 </r>
       <r>   -1.8503    1.0000 </r>
       <r>   -1.6334    1.0000 </r>
       <r>   -1.2159    1.0000 </r>
       <r>   -0.8967    1.0000 </r>
       <r>   -0.3160    1.0000 </r>
       <r>    0.0317    1.0000 </r>
       <r>    1.5536    1.0000 </r>
       <r>    1.8118    1.0000 </r>
       <r>    1.9961    1.0000 </r>
       <r>    2.0513    1.0000 </r>
       <r>    2.4195    1.0000 </r>
       <r>    2.8584    1.0000 </r>
       <r>    3.0270    1.0000 </r>
       <r>    3.1905    1.0000 </r>
       <r>    3.3142    1.0000 </r>
       <r>    3.5429    1.0000 </r>
       <r>    3.5993    1.0000 </r>
       <r>    3.8571    1.0000 </r>
       <r>    4.0352    1.0000 </r>
       <r>    4.4152    1.0000 </r>
       <r>    4.5030    1.0000 </r>
       <r>    4.6287    1.0000 </r>
       <r>    4.7095    1.0000 </r>
       <r>    5.1246    1.0000 </r>
       <r>    5.3635    1.0000 </r>
       <r>    5.7915    1.0000 </r>
       <r>    6.1393    1.0000 </r>
       <r>    6.4020    1.0000 </r>
       <r>    6.7094    1.0000 </r>
       <r>    6.7934    1.0000 </r>
       <r>    6.9135    1.0000 </r>
       <r>    7.1084    1.0000 </r>
       <r>    7.3830    0.5937 </r>
       <r>    7.6500    0.0000 </r>
       <r>    7.9704    0.0000 </r>
       <r>    8.1365    0.0000 </r>
       <r>    8.2676    0.0000 </r>
       <r>    8.3824    0.0000 </r>
       <r>    8.4697    0.0000 </r>
       <r>    8.6438    0.0000 </r>
       <r>    8.6904    0.0000 </r>
       <r>    8.8979    0.0000 </r>
       <r>    9.0616    0.0000 </r>
       <r>    9.2999    0.0000 </r>
       <r>    9.4539    0.0000 </r>
       <r>    9.5466    0.0000 </r>
      </set>
      <set comment="kpoint 7">
       <r>  -55.9416    1.0000 </r>
       <r>  -55.9415    1.0000 </r>
       <r>  -55.3845    1.0000 </r>
       <r>  -55.3838    1.0000 </r>
       <r>  -55.3402    1.0000 </r>
       <r>  -55.3396    1.0000 </r>
       <r>  -30.0890    1.0000 </r>
       <r>  -30.0887    1.0000 </r>
       <r>  -29.8145    1.0000 </r>
       <r>  -29.8144    1.0000 </r>
       <r>  -29.3062    1.0000 </r>
       <r>  -29.3035    1.0000 </r>
       <r>  -29.0237    1.0000 </r>
       <r>  -29.0227    1.0000 </r>
       <r>  -28.9485    1.0000 </r>
       <r>  -28.9474    1.0000 </r>
       <r>  -28.7891    1.0000 </r>
       <r>  -28.7881    1.0000 </r>
       <r>  -28.7573    1.0000 </r>
       <r>  -28.7570    1.0000 </r>
       <r>  -28.5851    1.0000 </r>
       <r>  -28.5845    1.0000 </r>
       <r>  -28.2549    1.0000 </r>
       <r>  -28.2543    1.0000 </r>
       <r>   -4.6975    1.0000 </r>
       <r>   -4.5998    1.0000 </r>
       <r>   -1.8474    1.0000 </r>
       <r>   -1.6791    1.0000 </r>
       <r>   -1.1060    1.0000 </r>
       <r>   -1.0015    1.0000 </r>
       <r>   -0.2828    1.0000 </r>
       <r>    0.0299    1.0000 </r>
       <r>    1.6673    1.0000 </r>
       <r>    1.8564    1.0000 </r>
       <r>    2.1534    1.0000 </r>
       <r>    2.2888    1.0000 </r>
       <r>    2.5843    1.0000 </r>
       <r>    2.6452    1.0000 </r>
       <r>    2.9480    1.0000 </r>
       <r>    3.0400    1.0000 </r>
       <r>    3.2547    1.0000 </r>
       <r>    3.3030    1.0000 </r>
       <r>    3.5114    1.0000 </r>
       <r>    3.8016    1.0000 </r>
       <r>    3.9305    1.0000 </r>
       <r>    4.3219    1.0000 </r>
       <r>    4.4841    1.0000 </r>
       <r>    4.7630    1.0000 </r>
       <r>    4.8488    1.0000 </r>
       <r>    4.8972    1.0000 </r>
       <r>    5.3999    1.0000 </r>
       <r>    5.6562    1.0000 </r>
       <r>    6.0602    1.0000 </r>
       <r>    6.4254    1.0000 </r>
       <r>    6.5854    1.0000 </r>
       <r>    7.0179    1.0000 </r>
       <r>    7.1827    1.0000 </r>
       <r>    7.3479    0.9967 </r>
       <r>    7.5965    0.0000 </r>
       <r>    7.6783    0.0000 </r>
       <r>    8.0140    0.0000 </r>
       <r>    8.1403    0.0000 </r>
       <r>    8.2803    0.0000 </r>
       <r>    8.4337    0.0000 </r>
       <r>    8.4614    0.0000 </r>
       <r>    8.6959    0.0000 </r>
       <r>    8.9014    0.0000 </r>
       <r>    8.9862    0.0000 </r>
       <r>    9.0597    0.0000 </r>
       <r>    9.2527    0.0000 </r>
       <r>    9.4254    0.0000 </r>
       <r>    9.5623    0.0000 </r>
      </set>
      <set comment="kpoint 8">
       <r>  -55.9587    1.0000 </r>
       <r>  -55.9235    1.0000 </r>
       <r>  -55.3860    1.0000 </r>
       <r>  -55.3822    1.0000 </r>
       <r>  -55.3568    1.0000 </r>
       <r>  -55.3242    1.0000 </r>
       <r>  -30.1764    1.0000 </r>
       <r>  -29.9756    1.0000 </r>
       <r>  -29.9550    1.0000 </r>
       <r>  -29.6542    1.0000 </r>
       <r>  -29.3160    1.0000 </r>
       <r>  -29.2932    1.0000 </r>
       <r>  -29.0615    1.0000 </r>
       <r>  -28.9881    1.0000 </r>
       <r>  -28.9587    1.0000 </r>
       <r>  -28.9351    1.0000 </r>
       <r>  -28.7912    1.0000 </r>
       <r>  -28.7856    1.0000 </r>
       <r>  -28.7680    1.0000 </r>
       <r>  -28.7576    1.0000 </r>
       <r>  -28.7473    1.0000 </r>
       <r>  -28.4052    1.0000 </r>
       <r>  -28.4021    1.0000 </r>
       <r>  -28.1578    1.0000 </r>
       <r>   -5.0666    1.0000 </r>
       <r>   -4.2025    1.0000 </r>
       <r>   -1.7707    1.0000 </r>
       <r>   -1.7078    1.0000 </r>
       <r>   -1.2657    1.0000 </r>
       <r>   -0.8005    1.0000 </r>
       <r>   -0.4634    1.0000 </r>
       <r>    0.3843    1.0000 </r>
       <r>    1.5172    1.0000 </r>
       <r>    1.8107    1.0000 </r>
       <r>    2.0119    1.0000 </r>
       <r>    2.1217    1.0000 </r>
       <r>    2.2259    1.0000 </r>
       <r>    2.5892    1.0000 </r>
       <r>    2.8738    1.0000 </r>
       <r>    3.0332    1.0000 </r>
       <r>    3.3209    1.0000 </r>
       <r>    3.3710    1.0000 </r>
       <r>    3.7379    1.0000 </r>
       <r>    3.9323    1.0000 </r>
       <r>    4.0204    1.0000 </r>
       <r>    4.5098    1.0000 </r>
       <r>    4.6172    1.0000 </r>
       <r>    4.7616    1.0000 </r>
       <r>    5.0651    1.0000 </r>
       <r>    5.1904    1.0000 </r>
       <r>    5.3858    1.0000 </r>
       <r>    5.6887    1.0000 </r>
       <r>    5.8279    1.0000 </r>
       <r>    6.5451    1.0000 </r>
       <r>    6.7092    1.0000 </r>
       <r>    6.9834    1.0000 </r>
       <r>    7.1739    1.0000 </r>
       <r>    7.2070    1.0000 </r>
       <r>    7.3813    0.6399 </r>
       <r>    7.7719    0.0000 </r>
       <r>    7.9862    0.0000 </r>
       <r>    8.1500    0.0000 </r>
       <r>    8.2474    0.0000 </r>
       <r>    8.3894    0.0000 </r>
       <r>    8.4659    0.0000 </r>
       <r>    8.5516    0.0000 </r>
       <r>    8.6627    0.0000 </r>
       <r>    8.8840    0.0000 </r>
       <r>    8.9977    0.0000 </r>
       <r>    9.2090    0.0000 </r>
       <r>    9.3051    0.0000 </r>
       <r>    9.4277    0.0000 </r>
      </set>
      <set comment="kpoint 9">
       <r>  -55.9707    1.0000 </r>
       <r>  -55.9095    1.0000 </r>
       <r>  -55.3862    1.0000 </r>
       <r>  -55.3809    1.0000 </r>
       <r>  -55.3710    1.0000 </r>
       <r>  -55.3130    1.0000 </r>
       <r>  -30.2092    1.0000 </r>
       <r>  -30.1039    1.0000 </r>
       <r>  -29.7923    1.0000 </r>
       <r>  -29.5699    1.0000 </r>
       <r>  -29.3252    1.0000 </r>
       <r>  -29.2829    1.0000 </r>
       <r>  -29.0900    1.0000 </r>
       <r>  -28.9732    1.0000 </r>
       <r>  -28.9671    1.0000 </r>
       <r>  -28.9272    1.0000 </r>
       <r>  -28.8329    1.0000 </r>
       <r>  -28.7909    1.0000 </r>
       <r>  -28.7837    1.0000 </r>
       <r>  -28.7779    1.0000 </r>
       <r>  -28.7405    1.0000 </r>
       <r>  -28.5814    1.0000 </r>
       <r>  -28.2551    1.0000 </r>
       <r>  -28.1244    1.0000 </r>
       <r>   -5.3079    1.0000 </r>
       <r>   -3.8981    1.0000 </r>
       <r>   -1.6939    1.0000 </r>
       <r>   -1.6670    1.0000 </r>
       <r>   -1.4048    1.0000 </r>
       <r>   -0.7733    1.0000 </r>
       <r>   -0.4159    1.0000 </r>
       <r>    0.6377    1.0000 </r>
       <r>    1.2339    1.0000 </r>
       <r>    1.5754    1.0000 </r>
       <r>    1.8381    1.0000 </r>
       <r>    1.9310    1.0000 </r>
       <r>    1.9997    1.0000 </r>
       <r>    2.5274    1.0000 </r>
       <r>    3.1202    1.0000 </r>
       <r>    3.1856    1.0000 </r>
       <r>    3.3228    1.0000 </r>
       <r>    3.5430    1.0000 </r>
       <r>    3.6276    1.0000 </r>
       <r>    4.0125    1.0000 </r>
       <r>    4.0685    1.0000 </r>
       <r>    4.6688    1.0000 </r>
       <r>    4.9758    1.0000 </r>
       <r>    5.0378    1.0000 </r>
       <r>    5.2922    1.0000 </r>
       <r>    5.4616    1.0000 </r>
       <r>    5.5576    1.0000 </r>
       <r>    5.7377    1.0000 </r>
       <r>    6.1188    1.0000 </r>
       <r>    6.4835    1.0000 </r>
       <r>    6.5077    1.0000 </r>
       <r>    6.7112    1.0000 </r>
       <r>    6.8774    1.0000 </r>
       <r>    7.0020    1.0000 </r>
       <r>    7.2484    1.0000 </r>
       <r>    7.5598    0.0000 </r>
       <r>    7.9355    0.0000 </r>
       <r>    7.9785    0.0000 </r>
       <r>    8.0168    0.0000 </r>
       <r>    8.0435    0.0000 </r>
       <r>    8.2324    0.0000 </r>
       <r>    8.5075    0.0000 </r>
       <r>    8.5885    0.0000 </r>
       <r>    8.8814    0.0000 </r>
       <r>    8.9818    0.0000 </r>
       <r>    9.1354    0.0000 </r>
       <r>    9.4002    0.0000 </r>
       <r>    9.6625    0.0000 </r>
      </set>
      <set comment="kpoint 10">
       <r>  -55.9514    1.0000 </r>
       <r>  -55.9312    1.0000 </r>
       <r>  -55.3872    1.0000 </r>
       <r>  -55.3850    1.0000 </r>
       <r>  -55.3479    1.0000 </r>
       <r>  -55.3287    1.0000 </r>
       <r>  -30.1999    1.0000 </r>
       <r>  -30.0838    1.0000 </r>
       <r>  -29.8217    1.0000 </r>
       <r>  -29.5932    1.0000 </r>
       <r>  -29.3139    1.0000 </r>
       <r>  -29.2953    1.0000 </r>
       <r>  -29.0330    1.0000 </r>
       <r>  -28.9807    1.0000 </r>
       <r>  -28.9626    1.0000 </r>
       <r>  -28.9285    1.0000 </r>
       <r>  -28.8606    1.0000 </r>
       <r>  -28.7927    1.0000 </r>
       <r>  -28.7901    1.0000 </r>
       <r>  -28.7605    1.0000 </r>
       <r>  -28.7488    1.0000 </r>
       <r>  -28.5858    1.0000 </r>
       <r>  -28.2546    1.0000 </r>
       <r>  -28.1233    1.0000 </r>
       <r>   -4.7590    1.0000 </r>
       <r>   -4.4336    1.0000 </r>
       <r>   -2.1264    1.0000 </r>
       <r>   -1.7192    1.0000 </r>
       <r>   -1.0513    1.0000 </r>
       <r>   -0.9433    1.0000 </r>
       <r>   -0.2332    1.0000 </r>
       <r>   -0.0567    1.0000 </r>
       <r>    1.6374    1.0000 </r>
       <r>    2.0141    1.0000 </r>
       <r>    2.0386    1.0000 </r>
       <r>    2.2380    1.0000 </r>
       <r>    2.6283    1.0000 </r>
       <r>    2.9585    1.0000 </r>
       <r>    3.0030    1.0000 </r>
       <r>    3.2080    1.0000 </r>
       <r>    3.2686    1.0000 </r>
       <r>    3.3628    1.0000 </r>
       <r>    3.4046    1.0000 </r>
       <r>    3.8250    1.0000 </r>
       <r>    3.9780    1.0000 </r>
       <r>    4.1359    1.0000 </r>
       <r>    4.3587    1.0000 </r>
       <r>    4.4880    1.0000 </r>
       <r>    4.7063    1.0000 </r>
       <r>    4.7328    1.0000 </r>
       <r>    5.6557    1.0000 </r>
       <r>    5.7713    1.0000 </r>
       <r>    6.2741    1.0000 </r>
       <r>    6.4797    1.0000 </r>
       <r>    6.7709    1.0000 </r>
       <r>    6.9664    1.0000 </r>
       <r>    7.2783    1.0000 </r>
       <r>    7.4447    0.0000 </r>
       <r>    7.6000    0.0000 </r>
       <r>    7.8329    0.0000 </r>
       <r>    7.9462    0.0000 </r>
       <r>    8.0313    0.0000 </r>
       <r>    8.0372    0.0000 </r>
       <r>    8.2753    0.0000 </r>
       <r>    8.3326    0.0000 </r>
       <r>    8.6283    0.0000 </r>
       <r>    8.6996    0.0000 </r>
       <r>    8.8877    0.0000 </r>
       <r>    9.1650    0.0000 </r>
       <r>    9.3428    0.0000 </r>
       <r>    9.6041    0.0000 </r>
       <r>    9.9335    0.0000 </r>
      </set>
      <set comment="kpoint 11">
       <r>  -55.9415    1.0000 </r>
       <r>  -55.9413    1.0000 </r>
       <r>  -55.3876    1.0000 </r>
       <r>  -55.3866    1.0000 </r>
       <r>  -55.3377    1.0000 </r>
       <r>  -55.3367    1.0000 </r>
       <r>  -30.1683    1.0000 </r>
       <r>  -30.1680    1.0000 </r>
       <r>  -29.6708    1.0000 </r>
       <r>  -29.6707    1.0000 </r>
       <r>  -29.3069    1.0000 </r>
       <r>  -29.3023    1.0000 </r>
       <r>  -28.9959    1.0000 </r>
       <r>  -28.9948    1.0000 </r>
       <r>  -28.9591    1.0000 </r>
       <r>  -28.9579    1.0000 </r>
       <r>  -28.7936    1.0000 </r>
       <r>  -28.7920    1.0000 </r>
       <r>  -28.7644    1.0000 </r>
       <r>  -28.7637    1.0000 </r>
       <r>  -28.7534    1.0000 </r>
       <r>  -28.7530    1.0000 </r>
       <r>  -28.1574    1.0000 </r>
       <r>  -28.1569    1.0000 </r>
       <r>   -4.6606    1.0000 </r>
       <r>   -4.5033    1.0000 </r>
       <r>   -2.1900    1.0000 </r>
       <r>   -1.7948    1.0000 </r>
       <r>   -1.0223    1.0000 </r>
       <r>   -0.8726    1.0000 </r>
       <r>   -0.4619    1.0000 </r>
       <r>    0.2221    1.0000 </r>
       <r>    1.5548    1.0000 </r>
       <r>    2.0366    1.0000 </r>
       <r>    2.3706    1.0000 </r>
       <r>    2.4261    1.0000 </r>
       <r>    2.5700    1.0000 </r>
       <r>    2.7945    1.0000 </r>
       <r>    2.8474    1.0000 </r>
       <r>    3.0292    1.0000 </r>
       <r>    3.2672    1.0000 </r>
       <r>    3.3830    1.0000 </r>
       <r>    3.4746    1.0000 </r>
       <r>    3.5108    1.0000 </r>
       <r>    3.9703    1.0000 </r>
       <r>    4.1349    1.0000 </r>
       <r>    4.4280    1.0000 </r>
       <r>    4.4972    1.0000 </r>
       <r>    4.5176    1.0000 </r>
       <r>    4.9995    1.0000 </r>
       <r>    5.7604    1.0000 </r>
       <r>    5.8452    1.0000 </r>
       <r>    6.1868    1.0000 </r>
       <r>    6.3936    1.0000 </r>
       <r>    7.0434    1.0000 </r>
       <r>    7.2951    1.0000 </r>
       <r>    7.4359    0.0002 </r>
       <r>    7.5027    0.0000 </r>
       <r>    7.5571    0.0000 </r>
       <r>    7.6340    0.0000 </r>
       <r>    7.7677    0.0000 </r>
       <r>    8.0371    0.0000 </r>
       <r>    8.1440    0.0000 </r>
       <r>    8.2447    0.0000 </r>
       <r>    8.3294    0.0000 </r>
       <r>    8.6585    0.0000 </r>
       <r>    8.8258    0.0000 </r>
       <r>    9.0271    0.0000 </r>
       <r>    9.1980    0.0000 </r>
       <r>    9.2988    0.0000 </r>
       <r>    9.3982    0.0000 </r>
       <r>   10.1174    0.0000 </r>
      </set>
      <set comment="kpoint 12">
       <r>  -55.9515    1.0000 </r>
       <r>  -55.9310    1.0000 </r>
       <r>  -55.3881    1.0000 </r>
       <r>  -55.3844    1.0000 </r>
       <r>  -55.3469    1.0000 </r>
       <r>  -55.3294    1.0000 </r>
       <r>  -30.2001    1.0000 </r>
       <r>  -30.0836    1.0000 </r>
       <r>  -29.8216    1.0000 </r>
       <r>  -29.5933    1.0000 </r>
       <r>  -29.3098    1.0000 </r>
       <r>  -29.2993    1.0000 </r>
       <r>  -29.0325    1.0000 </r>
       <r>  -28.9807    1.0000 </r>
       <r>  -28.9632    1.0000 </r>
       <r>  -28.9279    1.0000 </r>
       <r>  -28.8615    1.0000 </r>
       <r>  -28.7942    1.0000 </r>
       <r>  -28.7889    1.0000 </r>
       <r>  -28.7599    1.0000 </r>
       <r>  -28.7490    1.0000 </r>
       <r>  -28.5853    1.0000 </r>
       <r>  -28.2541    1.0000 </r>
       <r>  -28.1238    1.0000 </r>
       <r>   -4.9029    1.0000 </r>
       <r>   -4.2993    1.0000 </r>
       <r>   -2.0275    1.0000 </r>
       <r>   -1.8006    1.0000 </r>
       <r>   -1.1292    1.0000 </r>
       <r>   -0.7471    1.0000 </r>
       <r>   -0.5687    1.0000 </r>
       <r>    0.3990    1.0000 </r>
       <r>    1.6553    1.0000 </r>
       <r>    1.9011    1.0000 </r>
       <r>    2.0991    1.0000 </r>
       <r>    2.3681    1.0000 </r>
       <r>    2.4233    1.0000 </r>
       <r>    2.6348    1.0000 </r>
       <r>    2.8105    1.0000 </r>
       <r>    3.0209    1.0000 </r>
       <r>    3.0554    1.0000 </r>
       <r>    3.3215    1.0000 </r>
       <r>    3.6107    1.0000 </r>
       <r>    3.9494    1.0000 </r>
       <r>    4.1003    1.0000 </r>
       <r>    4.2821    1.0000 </r>
       <r>    4.3177    1.0000 </r>
       <r>    4.7175    1.0000 </r>
       <r>    4.7232    1.0000 </r>
       <r>    5.1651    1.0000 </r>
       <r>    5.6380    1.0000 </r>
       <r>    5.6542    1.0000 </r>
       <r>    6.2230    1.0000 </r>
       <r>    6.2878    1.0000 </r>
       <r>    7.0093    1.0000 </r>
       <r>    7.1910    1.0000 </r>
       <r>    7.2659    1.0000 </r>
       <r>    7.4301    0.0010 </r>
       <r>    7.4358    0.0002 </r>
       <r>    7.7299    0.0000 </r>
       <r>    8.0207    0.0000 </r>
       <r>    8.0549    0.0000 </r>
       <r>    8.2027    0.0000 </r>
       <r>    8.3315    0.0000 </r>
       <r>    8.5298    0.0000 </r>
       <r>    8.6044    0.0000 </r>
       <r>    8.6628    0.0000 </r>
       <r>    8.8760    0.0000 </r>
       <r>    9.1724    0.0000 </r>
       <r>    9.4293    0.0000 </r>
       <r>    9.4839    0.0000 </r>
       <r>    9.6341    0.0000 </r>
      </set>
      <set comment="kpoint 13">
       <r>  -55.9414    1.0000 </r>
       <r>  -55.9412    1.0000 </r>
       <r>  -55.3890    1.0000 </r>
       <r>  -55.3879    1.0000 </r>
       <r>  -55.3365    1.0000 </r>
       <r>  -55.3354    1.0000 </r>
       <r>  -30.1955    1.0000 </r>
       <r>  -30.1952    1.0000 </r>
       <r>  -29.6045    1.0000 </r>
       <r>  -29.6043    1.0000 </r>
       <r>  -29.3071    1.0000 </r>
       <r>  -29.3018    1.0000 </r>
       <r>  -28.9854    1.0000 </r>
       <r>  -28.9854    1.0000 </r>
       <r>  -28.9292    1.0000 </r>
       <r>  -28.9287    1.0000 </r>
       <r>  -28.8770    1.0000 </r>
       <r>  -28.8760    1.0000 </r>
       <r>  -28.7955    1.0000 </r>
       <r>  -28.7938    1.0000 </r>
       <r>  -28.7517    1.0000 </r>
       <r>  -28.7514    1.0000 </r>
       <r>  -28.1236    1.0000 </r>
       <r>  -28.1231    1.0000 </r>
       <r>   -4.6329    1.0000 </r>
       <r>   -4.4594    1.0000 </r>
       <r>   -2.3391    1.0000 </r>
       <r>   -1.8440    1.0000 </r>
       <r>   -0.9907    1.0000 </r>
       <r>   -0.7374    1.0000 </r>
       <r>   -0.6343    1.0000 </r>
       <r>    0.3194    1.0000 </r>
       <r>    1.4803    1.0000 </r>
       <r>    2.1284    1.0000 </r>
       <r>    2.3055    1.0000 </r>
       <r>    2.5695    1.0000 </r>
       <r>    2.7115    1.0000 </r>
       <r>    2.7267    1.0000 </r>
       <r>    2.8586    1.0000 </r>
       <r>    3.0944    1.0000 </r>
       <r>    3.3828    1.0000 </r>
       <r>    3.4073    1.0000 </r>
       <r>    3.4388    1.0000 </r>
       <r>    3.6142    1.0000 </r>
       <r>    3.6655    1.0000 </r>
       <r>    4.1124    1.0000 </r>
       <r>    4.2379    1.0000 </r>
       <r>    4.3770    1.0000 </r>
       <r>    4.4391    1.0000 </r>
       <r>    5.0311    1.0000 </r>
       <r>    5.6320    1.0000 </r>
       <r>    6.1866    1.0000 </r>
       <r>    6.4325    1.0000 </r>
       <r>    6.6716    1.0000 </r>
       <r>    7.1837    1.0000 </r>
       <r>    7.2817    1.0000 </r>
       <r>    7.4723    0.0000 </r>
       <r>    7.4925    0.0000 </r>
       <r>    7.4943    0.0000 </r>
       <r>    7.6238    0.0000 </r>
       <r>    7.6524    0.0000 </r>
       <r>    7.9050    0.0000 </r>
       <r>    7.9825    0.0000 </r>
       <r>    8.0274    0.0000 </r>
       <r>    8.4462    0.0000 </r>
       <r>    8.7005    0.0000 </r>
       <r>    8.9084    0.0000 </r>
       <r>    8.9688    0.0000 </r>
       <r>    9.0161    0.0000 </r>
       <r>    9.2805    0.0000 </r>
       <r>    9.5775    0.0000 </r>
       <r>    9.8115    0.0000 </r>
      </set>
      <set comment="kpoint 14">
       <r>  -55.9730    1.0000 </r>
       <r>  -55.9068    1.0000 </r>
       <r>  -55.3849    1.0000 </r>
       <r>  -55.3808    1.0000 </r>
       <r>  -55.3751    1.0000 </r>
       <r>  -55.3107    1.0000 </r>
       <r>  -30.2102    1.0000 </r>
       <r>  -30.1325    1.0000 </r>
       <r>  -29.7446    1.0000 </r>
       <r>  -29.5668    1.0000 </r>
       <r>  -29.3271    1.0000 </r>
       <r>  -29.2808    1.0000 </r>
       <r>  -29.0955    1.0000 </r>
       <r>  -28.9728    1.0000 </r>
       <r>  -28.9683    1.0000 </r>
       <r>  -28.9278    1.0000 </r>
       <r>  -28.8286    1.0000 </r>
       <r>  -28.7894    1.0000 </r>
       <r>  -28.7836    1.0000 </r>
       <r>  -28.7813    1.0000 </r>
       <r>  -28.7391    1.0000 </r>
       <r>  -28.6334    1.0000 </r>
       <r>  -28.2218    1.0000 </r>
       <r>  -28.1239    1.0000 </r>
       <r>   -5.3506    1.0000 </r>
       <r>   -3.8370    1.0000 </r>
       <r>   -1.6784    1.0000 </r>
       <r>   -1.6456    1.0000 </r>
       <r>   -1.4452    1.0000 </r>
       <r>   -0.7771    1.0000 </r>
       <r>   -0.3943    1.0000 </r>
       <r>    0.6805    1.0000 </r>
       <r>    1.1575    1.0000 </r>
       <r>    1.5170    1.0000 </r>
       <r>    1.7806    1.0000 </r>
       <r>    1.8618    1.0000 </r>
       <r>    2.0349    1.0000 </r>
       <r>    2.5509    1.0000 </r>
       <r>    3.1506    1.0000 </r>
       <r>    3.2192    1.0000 </r>
       <r>    3.3558    1.0000 </r>
       <r>    3.5756    1.0000 </r>
       <r>    3.6319    1.0000 </r>
       <r>    3.9497    1.0000 </r>
       <r>    4.0501    1.0000 </r>
       <r>    4.7737    1.0000 </r>
       <r>    5.0462    1.0000 </r>
       <r>    5.0912    1.0000 </r>
       <r>    5.3837    1.0000 </r>
       <r>    5.5186    1.0000 </r>
       <r>    5.6312    1.0000 </r>
       <r>    5.7658    1.0000 </r>
       <r>    6.1299    1.0000 </r>
       <r>    6.4022    1.0000 </r>
       <r>    6.5678    1.0000 </r>
       <r>    6.6419    1.0000 </r>
       <r>    6.8654    1.0000 </r>
       <r>    6.9042    1.0000 </r>
       <r>    7.2084    1.0000 </r>
       <r>    7.4567    0.0000 </r>
       <r>    7.8130    0.0000 </r>
       <r>    7.8518    0.0000 </r>
       <r>    7.9217    0.0000 </r>
       <r>    8.0147    0.0000 </r>
       <r>    8.1636    0.0000 </r>
       <r>    8.5000    0.0000 </r>
       <r>    8.6174    0.0000 </r>
       <r>    8.9015    0.0000 </r>
       <r>    9.0695    0.0000 </r>
       <r>    9.0860    0.0000 </r>
       <r>    9.5224    0.0000 </r>
       <r>    9.7217    0.0000 </r>
      </set>
      <set comment="kpoint 15">
       <r>  -55.9616    1.0000 </r>
       <r>  -55.9203    1.0000 </r>
       <r>  -55.3849    1.0000 </r>
       <r>  -55.3820    1.0000 </r>
       <r>  -55.3612    1.0000 </r>
       <r>  -55.3213    1.0000 </r>
       <r>  -30.1776    1.0000 </r>
       <r>  -30.0158    1.0000 </r>
       <r>  -29.9115    1.0000 </r>
       <r>  -29.6511    1.0000 </r>
       <r>  -29.3183    1.0000 </r>
       <r>  -29.2907    1.0000 </r>
       <r>  -29.0692    1.0000 </r>
       <r>  -28.9861    1.0000 </r>
       <r>  -28.9590    1.0000 </r>
       <r>  -28.9332    1.0000 </r>
       <r>  -28.7898    1.0000 </r>
       <r>  -28.7854    1.0000 </r>
       <r>  -28.7715    1.0000 </r>
       <r>  -28.7555    1.0000 </r>
       <r>  -28.7455    1.0000 </r>
       <r>  -28.4530    1.0000 </r>
       <r>  -28.3578    1.0000 </r>
       <r>  -28.1574    1.0000 </r>
       <r>   -5.1248    1.0000 </r>
       <r>   -4.1425    1.0000 </r>
       <r>   -1.7316    1.0000 </r>
       <r>   -1.6842    1.0000 </r>
       <r>   -1.3078    1.0000 </r>
       <r>   -0.7890    1.0000 </r>
       <r>   -0.4622    1.0000 </r>
       <r>    0.4199    1.0000 </r>
       <r>    1.4432    1.0000 </r>
       <r>    1.7725    1.0000 </r>
       <r>    1.9915    1.0000 </r>
       <r>    2.0659    1.0000 </r>
       <r>    2.1635    1.0000 </r>
       <r>    2.5603    1.0000 </r>
       <r>    2.9161    1.0000 </r>
       <r>    3.0724    1.0000 </r>
       <r>    3.3796    1.0000 </r>
       <r>    3.3954    1.0000 </r>
       <r>    3.7355    1.0000 </r>
       <r>    3.9672    1.0000 </r>
       <r>    4.0227    1.0000 </r>
       <r>    4.5153    1.0000 </r>
       <r>    4.6774    1.0000 </r>
       <r>    4.8402    1.0000 </r>
       <r>    5.1383    1.0000 </r>
       <r>    5.2270    1.0000 </r>
       <r>    5.3612    1.0000 </r>
       <r>    5.6991    1.0000 </r>
       <r>    5.8425    1.0000 </r>
       <r>    6.5017    1.0000 </r>
       <r>    6.7068    1.0000 </r>
       <r>    6.9366    1.0000 </r>
       <r>    7.1175    1.0000 </r>
       <r>    7.1595    1.0000 </r>
       <r>    7.3584    0.9758 </r>
       <r>    7.7427    0.0000 </r>
       <r>    7.9174    0.0000 </r>
       <r>    8.1376    0.0000 </r>
[...]
       <r>    8.0961    0.0000 </r>
       <r>    8.1229    0.0000 </r>
       <r>    8.2127    0.0000 </r>
       <r>    8.3919    0.0000 </r>
       <r>    8.6438    0.0000 </r>
       <r>    8.8622    0.0000 </r>
       <r>    8.9083    0.0000 </r>
       <r>    9.0359    0.0000 </r>
       <r>    9.3071    0.0000 </r>
       <r>    9.4698    0.0000 </r>
       <r>    9.7584    0.0000 </r>
      </set>
      <set comment="kpoint 76">
       <r>  -55.9598    1.0000 </r>
       <r>  -55.9222    1.0000 </r>
       <r>  -55.3864    1.0000 </r>
       <r>  -55.3828    1.0000 </r>
       <r>  -55.3579    1.0000 </r>
       <r>  -55.3222    1.0000 </r>
       <r>  -30.2038    1.0000 </r>
       <r>  -29.9747    1.0000 </r>
       <r>  -29.9561    1.0000 </r>
       <r>  -29.5835    1.0000 </r>
       <r>  -29.3178    1.0000 </r>
       <r>  -29.2912    1.0000 </r>
       <r>  -29.0612    1.0000 </r>
       <r>  -28.9769    1.0000 </r>
       <r>  -28.9628    1.0000 </r>
       <r>  -28.9280    1.0000 </r>
       <r>  -28.8477    1.0000 </r>
       <r>  -28.7918    1.0000 </r>
       <r>  -28.7865    1.0000 </r>
       <r>  -28.7683    1.0000 </r>
       <r>  -28.7456    1.0000 </r>
       <r>  -28.4293    1.0000 </r>
       <r>  -28.3798    1.0000 </r>
       <r>  -28.1235    1.0000 </r>
       <r>   -5.0421    1.0000 </r>
       <r>   -4.1928    1.0000 </r>
       <r>   -1.8451    1.0000 </r>
       <r>   -1.7406    1.0000 </r>
       <r>   -1.2226    1.0000 </r>
       <r>   -0.7045    1.0000 </r>
       <r>   -0.5603    1.0000 </r>
       <r>    0.2043    1.0000 </r>
       <r>    1.6177    1.0000 </r>
       <r>    1.8308    1.0000 </r>
       <r>    1.9720    1.0000 </r>
       <r>    2.0842    1.0000 </r>
       <r>    2.2956    1.0000 </r>
       <r>    2.7678    1.0000 </r>
       <r>    3.0077    1.0000 </r>
       <r>    3.1343    1.0000 </r>
       <r>    3.3381    1.0000 </r>
       <r>    3.4093    1.0000 </r>
       <r>    3.6114    1.0000 </r>
       <r>    3.9522    1.0000 </r>
       <r>    4.1962    1.0000 </r>
       <r>    4.2585    1.0000 </r>
       <r>    4.6186    1.0000 </r>
       <r>    4.6785    1.0000 </r>
       <r>    4.8780    1.0000 </r>
       <r>    4.9606    1.0000 </r>
       <r>    5.4558    1.0000 </r>
       <r>    5.8597    1.0000 </r>
       <r>    6.2946    1.0000 </r>
       <r>    6.4270    1.0000 </r>
       <r>    6.5018    1.0000 </r>
       <r>    7.0235    1.0000 </r>
       <r>    7.1727    1.0000 </r>
       <r>    7.2509    1.0000 </r>
       <r>    7.3039    1.0000 </r>
       <r>    7.4877    0.0000 </r>
       <r>    7.7839    0.0000 </r>
       <r>    8.0673    0.0000 </r>
       <r>    8.3357    0.0000 </r>
       <r>    8.3394    0.0000 </r>
       <r>    8.4018    0.0000 </r>
       <r>    8.5365    0.0000 </r>
       <r>    8.7143    0.0000 </r>
       <r>    8.8187    0.0000 </r>
       <r>    9.0103    0.0000 </r>
       <r>    9.2399    0.0000 </r>
       <r>    9.4816    0.0000 </r>
       <r>    9.8900    0.0000 </r>
      </set>
     </set>
    </set>
   </array>
  </eigenvalues>
  <separator name="orbital magnetization" >
   <v name="MAGDIPOLOUT">      0.00000000      0.00000000      0.00000000</v>
  </separator>
  <dos>
   <i name="efermi">      7.38634302 </i>
   <total>
    <array>
     <dimension dim="1">gridpoints</dimension>
     <dimension dim="2">spin</dimension>
     <field>energy</field>
     <field>total</field>
     <field>integrated</field>
     <set>
      <set comment="spin 1">
       <r>   -59.2986     0.0000     0.0000 </r>
       <r>   -59.0552     0.0000     0.0000 </r>
       <r>   -58.8119     0.0000     0.0000 </r>
       <r>   -58.5685     0.0000     0.0000 </r>
       <r>   -58.3251     0.0000     0.0000 </r>
       <r>   -58.0817     0.0000     0.0000 </r>
       <r>   -57.8384     0.0000     0.0000 </r>
       <r>   -57.5950     0.0000     0.0000 </r>
       <r>   -57.3516     0.0000     0.0000 </r>
       <r>   -57.1082     0.0000     0.0000 </r>
       <r>   -56.8649     0.0000     0.0000 </r>
       <r>   -56.6215     0.0000     0.0000 </r>
       <r>   -56.3781     0.0000     0.0000 </r>
       <r>   -56.1347     0.0000     0.0000 </r>
       <r>   -55.8914    16.0678     3.9105 </r>
       <r>   -55.6480     0.0000     4.0000 </r>
       <r>   -55.4046     1.3178     4.3207 </r>
       <r>   -55.1613     2.7067    12.0000 </r>
       <r>   -54.9179     0.0000    12.0000 </r>
       <r>   -54.6745     0.0000    12.0000 </r>
       <r>   -54.4311     0.0000    12.0000 </r>
       <r>   -54.1878     0.0000    12.0000 </r>
       <r>   -53.9444     0.0000    12.0000 </r>
       <r>   -53.7010     0.0000    12.0000 </r>
       <r>   -53.4576     0.0000    12.0000 </r>
       <r>   -53.2143     0.0000    12.0000 </r>
       <r>   -52.9709     0.0000    12.0000 </r>
       <r>   -52.7275     0.0000    12.0000 </r>
       <r>   -52.4841     0.0000    12.0000 </r>
       <r>   -52.2408     0.0000    12.0000 </r>
       <r>   -51.9974     0.0000    12.0000 </r>
       <r>   -51.7540     0.0000    12.0000 </r>
       <r>   -51.5106     0.0000    12.0000 </r>
       <r>   -51.2673     0.0000    12.0000 </r>
       <r>   -51.0239     0.0000    12.0000 </r>
       <r>   -50.7805     0.0000    12.0000 </r>
       <r>   -50.5371     0.0000    12.0000 </r>
       <r>   -50.2938     0.0000    12.0000 </r>
       <r>   -50.0504     0.0000    12.0000 </r>
       <r>   -49.8070     0.0000    12.0000 </r>
       <r>   -49.5636     0.0000    12.0000 </r>
       <r>   -49.3203     0.0000    12.0000 </r>
       <r>   -49.0769     0.0000    12.0000 </r>
       <r>   -48.8335     0.0000    12.0000 </r>
       <r>   -48.5902     0.0000    12.0000 </r>
       <r>   -48.3468     0.0000    12.0000 </r>
       <r>   -48.1034     0.0000    12.0000 </r>
       <r>   -47.8600     0.0000    12.0000 </r>
       <r>   -47.6167     0.0000    12.0000 </r>
       <r>   -47.3733     0.0000    12.0000 </r>
       <r>   -47.1299     0.0000    12.0000 </r>
       <r>   -46.8865     0.0000    12.0000 </r>
       <r>   -46.6432     0.0000    12.0000 </r>
       <r>   -46.3998     0.0000    12.0000 </r>
       <r>   -46.1564     0.0000    12.0000 </r>
       <r>   -45.9130     0.0000    12.0000 </r>
       <r>   -45.6697     0.0000    12.0000 </r>
       <r>   -45.4263     0.0000    12.0000 </r>
       <r>   -45.1829     0.0000    12.0000 </r>
       <r>   -44.9395     0.0000    12.0000 </r>
       <r>   -44.6962     0.0000    12.0000 </r>
       <r>   -44.4528     0.0000    12.0000 </r>
       <r>   -44.2094     0.0000    12.0000 </r>
       <r>   -43.9660     0.0000    12.0000 </r>
       <r>   -43.7227     0.0000    12.0000 </r>
       <r>   -43.4793     0.0000    12.0000 </r>
       <r>   -43.2359     0.0000    12.0000 </r>
       <r>   -42.9925     0.0000    12.0000 </r>
       <r>   -42.7492     0.0000    12.0000 </r>
       <r>   -42.5058     0.0000    12.0000 </r>
       <r>   -42.2624     0.0000    12.0000 </r>
       <r>   -42.0191     0.0000    12.0000 </r>
       <r>   -41.7757     0.0000    12.0000 </r>
       <r>   -41.5323     0.0000    12.0000 </r>
       <r>   -41.2889     0.0000    12.0000 </r>
       <r>   -41.0456     0.0000    12.0000 </r>
       <r>   -40.8022     0.0000    12.0000 </r>
       <r>   -40.5588     0.0000    12.0000 </r>
       <r>   -40.3154     0.0000    12.0000 </r>
       <r>   -40.0721     0.0000    12.0000 </r>
       <r>   -39.8287     0.0000    12.0000 </r>
       <r>   -39.5853     0.0000    12.0000 </r>
       <r>   -39.3419     0.0000    12.0000 </r>
       <r>   -39.0986     0.0000    12.0000 </r>
       <r>   -38.8552     0.0000    12.0000 </r>
       <r>   -38.6118     0.0000    12.0000 </r>
       <r>   -38.3684     0.0000    12.0000 </r>
       <r>   -38.1251     0.0000    12.0000 </r>
       <r>   -37.8817     0.0000    12.0000 </r>
       <r>   -37.6383     0.0000    12.0000 </r>
       <r>   -37.3949     0.0000    12.0000 </r>
       <r>   -37.1516     0.0000    12.0000 </r>
       <r>   -36.9082     0.0000    12.0000 </r>
       <r>   -36.6648     0.0000    12.0000 </r>
       <r>   -36.4214     0.0000    12.0000 </r>
       <r>   -36.1781     0.0000    12.0000 </r>
       <r>   -35.9347     0.0000    12.0000 </r>
       <r>   -35.6913     0.0000    12.0000 </r>
       <r>   -35.4479     0.0000    12.0000 </r>
       <r>   -35.2046     0.0000    12.0000 </r>
       <r>   -34.9612     0.0000    12.0000 </r>
       <r>   -34.7178     0.0000    12.0000 </r>
       <r>   -34.4745     0.0000    12.0000 </r>
       <r>   -34.2311     0.0000    12.0000 </r>
       <r>   -33.9877     0.0000    12.0000 </r>
       <r>   -33.7443     0.0000    12.0000 </r>
       <r>   -33.5010     0.0000    12.0000 </r>
       <r>   -33.2576     0.0000    12.0000 </r>
       <r>   -33.0142     0.0000    12.0000 </r>
       <r>   -32.7708     0.0000    12.0000 </r>
       <r>   -32.5275     0.0000    12.0000 </r>
       <r>   -32.2841     0.0000    12.0000 </r>
       <r>   -32.0407     0.0000    12.0000 </r>
       <r>   -31.7973     0.0000    12.0000 </r>
       <r>   -31.5540     0.0000    12.0000 </r>
       <r>   -31.3106     0.0000    12.0000 </r>
       <r>   -31.0672     0.0000    12.0000 </r>
       <r>   -30.8238     0.0000    12.0000 </r>
       <r>   -30.5805     0.0000    12.0000 </r>
       <r>   -30.3371     0.0000    12.0000 </r>
       <r>   -30.0937    10.9579    14.6669 </r>
       <r>   -29.8503     5.6205    16.8282 </r>
       <r>   -29.6070     6.1831    19.3619 </r>
       <r>   -29.3636     0.0249    20.0061 </r>
       <r>   -29.1202     1.6844    24.0369 </r>
       <r>   -28.8768    27.6087    32.0605 </r>
       <r>   -28.6335    37.0907    42.1539 </r>
       <r>   -28.3901     4.6545    44.2756 </r>
       <r>   -28.1467     9.2774    47.0198 </r>
       <r>   -27.9034     0.0000    48.0000 </r>
       <r>   -27.6600     0.0000    48.0000 </r>
       <r>   -27.4166     0.0000    48.0000 </r>
       <r>   -27.1732     0.0000    48.0000 </r>
       <r>   -26.9299     0.0000    48.0000 </r>
       <r>   -26.6865     0.0000    48.0000 </r>
       <r>   -26.4431     0.0000    48.0000 </r>
       <r>   -26.1997     0.0000    48.0000 </r>
       <r>   -25.9564     0.0000    48.0000 </r>
       <r>   -25.7130     0.0000    48.0000 </r>
       <r>   -25.4696     0.0000    48.0000 </r>
       <r>   -25.2262     0.0000    48.0000 </r>
       <r>   -24.9829     0.0000    48.0000 </r>
       <r>   -24.7395     0.0000    48.0000 </r>
       <r>   -24.4961     0.0000    48.0000 </r>
       <r>   -24.2527     0.0000    48.0000 </r>
       <r>   -24.0094     0.0000    48.0000 </r>
       <r>   -23.7660     0.0000    48.0000 </r>
       <r>   -23.5226     0.0000    48.0000 </r>
       <r>   -23.2792     0.0000    48.0000 </r>
       <r>   -23.0359     0.0000    48.0000 </r>
       <r>   -22.7925     0.0000    48.0000 </r>
       <r>   -22.5491     0.0000    48.0000 </r>
       <r>   -22.3057     0.0000    48.0000 </r>
       <r>   -22.0624     0.0000    48.0000 </r>
       <r>   -21.8190     0.0000    48.0000 </r>
       <r>   -21.5756     0.0000    48.0000 </r>
       <r>   -21.3322     0.0000    48.0000 </r>
       <r>   -21.0889     0.0000    48.0000 </r>
       <r>   -20.8455     0.0000    48.0000 </r>
       <r>   -20.6021     0.0000    48.0000 </r>
       <r>   -20.3588     0.0000    48.0000 </r>
       <r>   -20.1154     0.0000    48.0000 </r>
       <r>   -19.8720     0.0000    48.0000 </r>
       <r>   -19.6286     0.0000    48.0000 </r>
       <r>   -19.3853     0.0000    48.0000 </r>
       <r>   -19.1419     0.0000    48.0000 </r>
       <r>   -18.8985     0.0000    48.0000 </r>
       <r>   -18.6551     0.0000    48.0000 </r>
       <r>   -18.4118     0.0000    48.0000 </r>
       <r>   -18.1684     0.0000    48.0000 </r>
       <r>   -17.9250     0.0000    48.0000 </r>
       <r>   -17.6816     0.0000    48.0000 </r>
       <r>   -17.4383     0.0000    48.0000 </r>
       <r>   -17.1949     0.0000    48.0000 </r>
       <r>   -16.9515     0.0000    48.0000 </r>
       <r>   -16.7081     0.0000    48.0000 </r>
       <r>   -16.4648     0.0000    48.0000 </r>
       <r>   -16.2214     0.0000    48.0000 </r>
       <r>   -15.9780     0.0000    48.0000 </r>
       <r>   -15.7346     0.0000    48.0000 </r>
       <r>   -15.4913     0.0000    48.0000 </r>
       <r>   -15.2479     0.0000    48.0000 </r>
       <r>   -15.0045     0.0000    48.0000 </r>
       <r>   -14.7611     0.0000    48.0000 </r>
       <r>   -14.5178     0.0000    48.0000 </r>
       <r>   -14.2744     0.0000    48.0000 </r>
       <r>   -14.0310     0.0000    48.0000 </r>
       <r>   -13.7877     0.0000    48.0000 </r>
       <r>   -13.5443     0.0000    48.0000 </r>
       <r>   -13.3009     0.0000    48.0000 </r>
       <r>   -13.0575     0.0000    48.0000 </r>
       <r>   -12.8142     0.0000    48.0000 </r>
       <r>   -12.5708     0.0000    48.0000 </r>
       <r>   -12.3274     0.0000    48.0000 </r>
       <r>   -12.0840     0.0000    48.0000 </r>
       <r>   -11.8407     0.0000    48.0000 </r>
       <r>   -11.5973     0.0000    48.0000 </r>
       <r>   -11.3539     0.0000    48.0000 </r>
       <r>   -11.1105     0.0000    48.0000 </r>
       <r>   -10.8672     0.0000    48.0000 </r>
       <r>   -10.6238     0.0000    48.0000 </r>
       <r>   -10.3804     0.0000    48.0000 </r>
       <r>   -10.1370     0.0000    48.0000 </r>
       <r>    -9.8937     0.0000    48.0000 </r>
       <r>    -9.6503     0.0000    48.0000 </r>
       <r>    -9.4069     0.0000    48.0000 </r>
       <r>    -9.1635     0.0000    48.0000 </r>
       <r>    -8.9202     0.0000    48.0000 </r>
       <r>    -8.6768     0.0000    48.0000 </r>
       <r>    -8.4334     0.0000    48.0000 </r>
       <r>    -8.1900     0.0000    48.0000 </r>
       <r>    -7.9467     0.0000    48.0000 </r>
       <r>    -7.7033     0.0000    48.0000 </r>
       <r>    -7.4599     0.0000    48.0000 </r>
       <r>    -7.2165     0.0000    48.0000 </r>
       <r>    -6.9732     0.0000    48.0000 </r>
       <r>    -6.7298     0.0000    48.0000 </r>
       <r>    -6.4864     0.0000    48.0000 </r>
       <r>    -6.2431     0.0000    48.0000 </r>
       <r>    -5.9997     0.0000    48.0000 </r>
       <r>    -5.7563     0.0000    48.0000 </r>
       <r>    -5.5129     0.0001    48.0000 </r>
       <r>    -5.2696     0.7837    48.1987 </r>
       <r>    -5.0262     1.7500    48.7831 </r>
       <r>    -4.7828     2.1733    49.4416 </r>
       <r>    -4.5394     2.0562    50.1592 </r>
       <r>    -4.2961     1.5030    51.0880 </r>
       <r>    -4.0527     1.8856    51.6573 </r>
       <r>    -3.8093     0.9143    51.8971 </r>
       <r>    -3.5659     0.0978    52.0000 </r>
       <r>    -3.3226     0.0000    52.0000 </r>
       <r>    -3.0792     0.0000    52.0000 </r>
       <r>    -2.8358     0.0000    52.0000 </r>
       <r>    -2.5924     0.0000    52.0000 </r>
       <r>    -2.3491     0.0078    52.0019 </r>
       <r>    -2.1057     0.8006    52.2504 </r>
       <r>    -1.8623     2.4048    53.0535 </r>
       <r>    -1.6189     6.6882    55.2150 </r>
       <r>    -1.3756     1.4726    56.3663 </r>
       <r>    -1.1322     3.2123    57.4723 </r>
       <r>    -0.8888     4.4456    59.1375 </r>
       <r>    -0.6454     1.9837    59.9749 </r>
       <r>    -0.4021     2.3471    60.6903 </r>
       <r>    -0.1587     2.5467    61.5563 </r>
       <r>     0.0847     2.9364    62.5083 </r>
       <r>     0.3280     2.2629    63.3444 </r>
       <r>     0.5714     0.7750    63.8315 </r>
       <r>     0.8148     0.2610    63.9921 </r>
       <r>     1.0582     0.6454    64.1571 </r>
       <r>     1.3015     1.3433    64.5730 </r>
       <r>     1.5449     3.3289    65.5721 </r>
       <r>     1.7883     5.0912    67.3105 </r>
       <r>     2.0317     6.1894    69.7682 </r>
       <r>     2.2750     4.7200    71.7916 </r>
       <r>     2.5184     3.7441    73.1811 </r>
       <r>     2.7618     5.0166    74.9908 </r>
       <r>     3.0052     8.1129    77.4030 </r>
       <r>     3.2485     6.2787    79.9011 </r>
       <r>     3.4919     8.9529    83.2741 </r>
       <r>     3.7353     8.3487    86.4604 </r>
       <r>     3.9787     6.0809    88.3450 </r>
       <r>     4.2220     4.3107    90.3507 </r>
       <r>     4.4654     5.6946    92.0843 </r>
       <r>     4.7088     7.6088    94.8994 </r>
       <r>     4.9522     6.7704    97.4573 </r>
       <r>     5.1955     4.8909    99.2618 </r>
       <r>     5.4389     3.7066   100.7592 </r>
       <r>     5.6823     3.7718   102.1878 </r>
       <r>     5.9257     6.4519   104.4194 </r>
       <r>     6.1690     3.1948   105.5870 </r>
       <r>     6.4124     5.2912   107.5258 </r>
       <r>     6.6558     5.0249   109.5324 </r>
       <r>     6.8991     5.9430   111.6051 </r>
       <r>     7.1425     4.6251   113.3875 </r>
       <r>     7.3859     6.8251   115.9944 </r>
       <r>     7.6293     6.6821   118.6739 </r>
       <r>     7.8726     5.9664   121.1902 </r>
       <r>     8.1160    10.4095   124.1366 </r>
       <r>     8.3594     9.8610   127.8443 </r>
       <r>     8.6028     7.9090   130.7264 </r>
       <r>     8.8461     7.8095   133.6070 </r>
       <r>     9.0895     7.4037   136.4685 </r>
       <r>     9.3329     8.3817   139.3256 </r>
       <r>     9.5763     6.2630   141.7703 </r>
       <r>     9.8196     3.2248   142.8721 </r>
       <r>    10.0630     1.8545   143.4989 </r>
       <r>    10.3064     0.7336   143.9087 </r>
       <r>    10.5498     0.1304   144.0000 </r>
       <r>    10.7931     0.0000   144.0000 </r>
       <r>    11.0365     0.0000   144.0000 </r>
       <r>    11.2799     0.0000   144.0000 </r>
       <r>    11.5233     0.0000   144.0000 </r>
       <r>    11.7666     0.0000   144.0000 </r>
       <r>    12.0100     0.0000   144.0000 </r>
       <r>    12.2534     0.0000   144.0000 </r>
       <r>    12.4968     0.0000   144.0000 </r>
       <r>    12.7401     0.0000   144.0000 </r>
       <r>    12.9835     0.0000   144.0000 </r>
       <r>    13.2269     0.0000   144.0000 </r>
       <r>    13.4703     0.0000   144.0000 </r>
       <r>    13.7136     0.0000   144.0000 </r>
      </set>
     </set>
    </array>
   </total>
  </dos>
 </calculation>
 <structure name="finalpos" >
  <crystal>
   <varray name="basis" >
    <v>       5.92498233       0.00000000      -3.48381611 </v>
    <v>      -1.93895105       5.59873954      -3.48381611 </v>
    <v>       0.00000000       0.00000000       6.87331000 </v>
   </varray>
   <i name="volume">    228.00441473 </i>
   <varray name="rec_basis" >
    <v>       0.16877687       0.05845067       0.00000000 </v>
    <v>       0.00000000       0.17861163       0.00000000 </v>
    <v>       0.08554650       0.12015775       0.14549031 </v>
   </varray>
  </crystal>
  <varray name="positions" >
   <v>       0.30580000       0.80580000       0.30034000 </v>
   <v>       0.69420000       0.19420000       0.69966000 </v>
   <v>       0.80580000       0.50547000       0.50000000 </v>
   <v>       0.19420000       0.49453000       0.50000000 </v>
   <v>       0.50547000       0.00547000       0.69966000 </v>
   <v>       0.49453000       0.99453000       0.30034000 </v>
   <v>       0.00547000       0.30580000       0.50000000 </v>
   <v>       0.99453000       0.69420000       0.50000000 </v>
   <v>       0.18209000       0.68209000       0.86418000 </v>
   <v>       0.00000000       0.00000000       0.00000000 </v>
   <v>       0.81791000       0.31791000       0.13582000 </v>
   <v>       0.68209000       0.81791000       0.50000000 </v>
   <v>       0.31791000       0.18209000       0.50000000 </v>
   <v>       0.50000000       0.50000000       0.00000000 </v>
   <v>       0.25000000       0.25000000       0.00000000 </v>
   <v>       0.75000000       0.75000000       0.00000000 </v>
  </varray>
 </structure>
</modeling>
