 vasp.6.2.0 18Jan21 (build Jan 05 2022 15:41:44) complex                        
  
 executed on             LinuxIFC date 2025.05.07  16:39:46
 running on   24 total cores
 distrk:  each k-point on   12 cores,    2 groups
 distr:  one band on NCORE=   2 cores,    6 groups


--------------------------------------------------------------------------------------------------------


 INCAR:
   SYSTEM = routine with relax: pwdword
   ICHARG = 2
   NPAR = 6
   KPAR = 2
   NCORE = 2
   ADDGRID = T
   PREC = Acc
   ENCUT = 600
   METAGGA = R2SCAN
   LASPH = .TRUE.
   LMIXTAU = .FALSE.
   ALGO = A
   EDIFF = 1E-9
   NELM = 100
   NELMIN = 6
   IALGO = 38
   LREAL = F
   NSW = 0
   ISIF = -1
   ISMEAR = 0
   SIGMA = 0.02
   SYMPREC = 1E-4

 POTCAR:    PAW_PBE B 06Sep2000                   
 POTCAR:    PAW_PBE Mo_sv 02Feb2006               
 POTCAR:    PAW_PBE Si 05Jan2001                  
 -----------------------------------------------------------------------------
|                                                                             |
|           W    W    AA    RRRRR   N    N  II  N    N   GGGG   !!!           |
|           W    W   A  A   R    R  NN   N  II  NN   N  G    G  !!!           |
|           W    W  A    A  R    R  N N  N  II  N N  N  G       !!!           |
|           W WW W  AAAAAA  RRRRR   N  N N  II  N  N N  G  GGG   !            |
|           WW  WW  A    A  R   R   N   NN  II  N   NN  G    G                |
|           W    W  A    A  R    R  N    N  II  N    N   GGGG   !!!           |
|                                                                             |
|     For optimal performance we recommend to set                             |
|       NCORE = 2 up to number-of-cores-per-socket                            |
|     NCORE specifies how many cores store one orbital (NPAR=cpu/NCORE).      |
|     This setting can greatly improve the performance of VASP for DFT.       |
|     The default, NCORE=1 might be grossly inefficient on modern             |
|     multi-core architectures or massively parallel machines. Do your        |
|     own testing! More info at https://www.vasp.at/wiki/index.php/NCORE      |
|     Unfortunately you need to use the default for GW and RPA                |
|     calculations (for HF NCORE is supported but not extensively tested      |
|     yet).                                                                   |
|                                                                             |
 -----------------------------------------------------------------------------

 POTCAR:    PAW_PBE B 06Sep2000                   
   VRHFIN =B: s2p1                                                                                  
   LEXCH  = PE                                                                                      
   EATOM  =    71.1703 eV,    5.2309 Ry                                                             
                                                                                                    
   TITEL  = PAW_PBE B 06Sep2000                                                                     
   LULTRA =        F    use ultrasoft PP ?                                                          
   IUNSCR =        1    unscreen: 0-lin 1-nonlin 2-no                                               
   RPACOR =    1.200    partial core radius                                                         
   POMASS =   10.811; ZVAL   =    3.000    mass and valenz                                          
   RCORE  =    1.700    outmost cutoff radius                                                       
   RWIGS  =    1.710; RWIGS  =    0.905    wigner-seitz radius (au A)                               
   ENMAX  =  318.614; ENMIN  =  238.960 eV                                                          
   ICORE  =        2    local potential                                                             
   LCOR   =        T    correct aug charges                                                         
   LPAW   =        T    paw PP                                                                      
   EAUG   =  535.514                                                                                
   DEXC   =    0.000                                                                                
   RMAX   =    1.732    core radius for proj-oper                                                   
   RAUG   =    1.300    factor for augmentation sphere                                              
   RDEP   =    1.757    radius for radial grids                                                     
   RDEPT  =    1.436    core radius for aug-charge                                                  
                                                                                                    
   Atomic configuration                                                                             
    4 entries                                                                                       
     n  l   j            E        occ.                                                              
     1  0  0.50      -180.5896   2.0000                                                             
     2  0  0.50        -9.4431   2.0000                                                             
     2  1  0.50        -3.6068   1.0000                                                             
     3  2  1.50        -4.0817   0.0000                                                             
   Description                                                                                      
     l       E           TYP  RCUT    TYP  RCUT                                                     
     0     -9.4430752     23  1.500                                                                 
     0      0.8675899     23  1.500                                                                 
     1     -3.6067955     23  1.700                                                                 
     1      6.1086146     23  1.700                                                                 
     2     -4.0817478      7  1.700                                                                 
  local pseudopotential read in
  partial core-charges read in
  partial kinetic energy density read in
  atomic valenz-charges read in
  non local Contribution for L=           0  read in
    real space projection operators read in
  non local Contribution for L=           0  read in
    real space projection operators read in
  non local Contribution for L=           1  read in
    real space projection operators read in
  non local Contribution for L=           1  read in
    real space projection operators read in
    PAW grid and wavefunctions read in
 
   number of l-projection  operators is LMAX  =           4
   number of lm-projection operators is LMMAX =           8
 
 POTCAR:    PAW_PBE Mo_sv 02Feb2006               
   VRHFIN =Mo: 4p5s4d                                                                               
   LEXCH  = PE                                                                                      
   EATOM  =  1862.2866 eV,  136.8742 Ry                                                             
                                                                                                    
   TITEL  = PAW_PBE Mo_sv 02Feb2006                                                                 
   LULTRA =        F    use ultrasoft PP ?                                                          
   IUNSCR =        1    unscreen: 0-lin 1-nonlin 2-no                                               
   RPACOR =    2.200    partial core radius                                                         
   POMASS =   95.940; ZVAL   =   14.000    mass and valenz                                          
   RCORE  =    2.500    outmost cutoff radius                                                       
   RWIGS  =    2.750; RWIGS  =    1.455    wigner-seitz radius (au A)                               
   ENMAX  =  242.676; ENMIN  =  182.007 eV                                                          
   ICORE  =        3    local potential                                                             
   LCOR   =        T    correct aug charges                                                         
   LPAW   =        T    paw PP                                                                      
   EAUG   =  446.014                                                                                
   DEXC   =    0.000                                                                                
   RMAX   =    2.563    core radius for proj-oper                                                   
   RAUG   =    1.300    factor for augmentation sphere                                              
   RDEP   =    2.641    radius for radial grids                                                     
   RDEPT  =    2.031    core radius for aug-charge                                                  
                                                                                                    
   Atomic configuration                                                                             
   11 entries                                                                                       
     n  l   j            E        occ.                                                              
     1  0  0.50    -19819.0341   2.0000                                                             
     2  0  0.50     -2799.0127   2.0000                                                             
     2  1  1.50     -2502.0276   6.0000                                                             
     3  0  0.50      -476.4449   2.0000                                                             
     3  1  1.50      -379.1496   6.0000                                                             
     3  2  2.50      -220.9367  10.0000                                                             
     4  0  0.50       -64.3378   2.0000                                                             
     5  0  0.50        -4.0862   1.0000                                                             
     4  1  1.50       -38.4773   6.0000                                                             
     4  2  2.50        -3.7535   5.0000                                                             
     4  3  2.50        -1.3606   0.0000                                                             
   Description                                                                                      
     l       E           TYP  RCUT    TYP  RCUT                                                     
     0    -64.3377829     23  2.100                                                                 
     0     -4.0861640     23  2.400                                                                 
     1    -38.4772993     23  2.100                                                                 
     1     13.6058260     23  2.100                                                                 
     2     -3.7534941     23  2.400                                                                 
     2     -5.1140767     23  2.400                                                                 
     3     -4.0817478     23  2.500                                                                 
  local pseudopotential read in
  partial core-charges read in
  partial kinetic energy density read in
  atomic valenz-charges read in
  non local Contribution for L=           0  read in
    real space projection operators read in
  non local Contribution for L=           0  read in
    real space projection operators read in
  non local Contribution for L=           1  read in
    real space projection operators read in
  non local Contribution for L=           1  read in
    real space projection operators read in
  non local Contribution for L=           2  read in
    real space projection operators read in
  non local Contribution for L=           2  read in
    real space projection operators read in
    PAW grid and wavefunctions read in
 
   number of l-projection  operators is LMAX  =           6
   number of lm-projection operators is LMMAX =          18
 
 POTCAR:    PAW_PBE Si 05Jan2001                  
   VRHFIN =Si: s2p2                                                                                 
   LEXCH  = PE                                                                                      
   EATOM  =   103.0669 eV,    7.5752 Ry                                                             
                                                                                                    
   TITEL  = PAW_PBE Si 05Jan2001                                                                    
   LULTRA =        F    use ultrasoft PP ?                                                          
   IUNSCR =        1    unscreen: 0-lin 1-nonlin 2-no                                               
   RPACOR =    1.500    partial core radius                                                         
   POMASS =   28.085; ZVAL   =    4.000    mass and valenz                                          
   RCORE  =    1.900    outmost cutoff radius                                                       
   RWIGS  =    2.480; RWIGS  =    1.312    wigner-seitz radius (au A)                               
   ENMAX  =  245.345; ENMIN  =  184.009 eV                                                          
   ICORE  =        2    local potential                                                             
   LCOR   =        T    correct aug charges                                                         
   LPAW   =        T    paw PP                                                                      
   EAUG   =  322.069                                                                                
   DEXC   =    0.000                                                                                
   RMAX   =    1.950    core radius for proj-oper                                                   
   RAUG   =    1.300    factor for augmentation sphere                                              
   RDEP   =    1.993    radius for radial grids                                                     
   RDEPT  =    1.837    core radius for aug-charge                                                  
                                                                                                    
   Atomic configuration                                                                             
    6 entries                                                                                       
     n  l   j            E        occ.                                                              
     1  0  0.50     -1785.8828   2.0000                                                             
     2  0  0.50      -139.4969   2.0000                                                             
     2  1  1.50       -95.5546   6.0000                                                             
     3  0  0.50       -10.8127   2.0000                                                             
     3  1  0.50        -4.0811   2.0000                                                             
     3  2  1.50        -4.0817   0.0000                                                             
   Description                                                                                      
     l       E           TYP  RCUT    TYP  RCUT                                                     
     0    -10.8127223     23  1.900                                                                 
     0     -7.6451159     23  1.900                                                                 
     1     -4.0811372     23  1.900                                                                 
     1      2.4879257     23  1.900                                                                 
     2     -4.0817478      7  1.900                                                                 
  local pseudopotential read in
  partial core-charges read in
  partial kinetic energy density read in
  atomic valenz-charges read in
  non local Contribution for L=           0  read in
    real space projection operators read in
  non local Contribution for L=           0  read in
    real space projection operators read in
  non local Contribution for L=           1  read in
    real space projection operators read in
  non local Contribution for L=           1  read in
    real space projection operators read in
    PAW grid and wavefunctions read in
 
   number of l-projection  operators is LMAX  =           4
   number of lm-projection operators is LMMAX =           8
 
  PAW_PBE B 06Sep2000                   :
 energy of atom  1       EATOM=  -71.1703
 kinetic energy error for atom=    0.0007 (will be added to EATOM!!)
  PAW_PBE Mo_sv 02Feb2006               :
 energy of atom  2       EATOM=-1862.2866
 kinetic energy error for atom=    0.0041 (will be added to EATOM!!)
  PAW_PBE Si 05Jan2001                  :
 energy of atom  3       EATOM= -103.0669
 kinetic energy error for atom=    0.0003 (will be added to EATOM!!)
 
 
 POSCAR: EA92
  positions in direct lattice
  No initial velocities read in

 METAGGA = R2SCA    LMAXTAU =  6    LMIXTAU =  F

 exchange correlation table for  LEXCH =        8
   RHO(1)=    0.500       N(1)  =     2000
   RHO(2)=  100.500       N(2)  =     4000
 


--------------------------------------------------------------------------------------------------------


 ion  position               nearest neighbor table
   1  0.000  0.500  0.500-   3 1.95   5 1.95   7 2.01   8 2.01
   2  0.500  0.000  0.500-   7 1.95   8 1.95   5 2.01   3 2.01
   3  0.246  0.746  0.992-  16 1.87  11 1.87   1 1.95   2 2.01   8 2.80   7 2.80   8 2.80   7 2.80

   4  0.250  0.250  0.000-  13 2.50  10 2.50   9 2.50  14 2.50  16 2.50  15 2.50  12 2.50  11 2.50

   5  0.754  0.254  0.008-  15 1.87  12 1.87   1 1.95   2 2.01   7 2.80   8 2.80   8 2.80   7 2.80

   6  0.750  0.750  0.000-   9 2.50  14 2.50  13 2.50  10 2.50  16 2.50  15 2.50  12 2.50  11 2.50

   7  0.746  0.754  0.500-  10 1.87  13 1.87   2 1.95   1 2.01   5 2.80   3 2.80   5 2.80   3 2.80

   8  0.254  0.246  0.500-   9 1.87  14 1.87   2 1.95   1 2.01   5 2.80   3 2.80   3 2.80   5 2.80

   9  0.113  0.112  0.500-   8 1.87   6 2.50   4 2.50  15 2.80  11 2.80  11 2.80  15 2.80  10 3.07

  10  0.887  0.888  0.500-   7 1.87   4 2.50   6 2.50  12 2.80  16 2.80  16 2.80  12 2.80   9 3.07

  11  0.112  0.612  0.999-   3 1.87   4 2.50   6 2.50   9 2.80  13 2.80  13 2.80   9 2.80  12 3.07

  12  0.888  0.388  0.001-   5 1.87   4 2.50   6 2.50  10 2.80  14 2.80  10 2.80  14 2.80  11 3.07

  13  0.612  0.613  0.500-   7 1.87   4 2.50   6 2.50  15 2.80  11 2.80  11 2.80  15 2.80  14 3.07

  14  0.388  0.387  0.500-   8 1.87   6 2.50   4 2.50  12 2.80  16 2.80  16 2.80  12 2.80  13 3.07

  15  0.613  0.113  0.001-   5 1.87   4 2.50   6 2.50   9 2.80  13 2.80  13 2.80   9 2.80  16 3.07

  16  0.387  0.887  0.999-   3 1.87   4 2.50   6 2.50  14 2.80  10 2.80  14 2.80  10 2.80  15 3.07

 
  LATTYP: Found a body centered tetragonal cell.
 ALAT       =     5.5927361136
 C/A-ratio  =     2.4302531265
  
  Lattice vectors:
  
 A1 = (   5.2270885881,   0.0000000000,  -5.8737695505)
 A2 = (  -0.7569725286,   5.1719868231,  -5.8737695505)
 A3 = (   0.0000000000,   0.0000000000,   7.8628000000)


Analysis of symmetry for initial positions (statically):
=====================================================================
 Subroutine PRICEL returns:
 Original cell was already a primitive cell.
 

 Routine SETGRP: Setting up the symmetry group for a 
 body centered tetragonal supercell.


 Subroutine GETGRP returns: Found 16 space group operations
 (whereof  8 operations were pure point group operations)
 out of a pool of 16 trial point group operations.


The static configuration has the point symmetry C_4h.
 The point group associated with its full space group is D_4h.


Analysis of symmetry for dynamics (positions and initial velocities):
=====================================================================
 Subroutine PRICEL returns:
 Original cell was already a primitive cell.
 

 Routine SETGRP: Setting up the symmetry group for a 
 body centered tetragonal supercell.


 Subroutine GETGRP returns: Found 16 space group operations
 (whereof  8 operations were pure point group operations)
 out of a pool of 16 trial point group operations.


The dynamic configuration has the point symmetry C_4h.
 The point group associated with its full space group is D_4h.


 Subroutine INISYM returns: Found 16 space group operations
 (whereof  8 operations are pure point group operations),
 and found     1 'primitive' translations


----------------------------------------------------------------------------------------

                                     Primitive cell                                     

  volume of cell :     212.5663

  direct lattice vectors                    reciprocal lattice vectors
     5.227088588  0.000000000 -5.873769550     0.191311087  0.028000311  0.000000000
    -0.756972529  5.171986823 -5.873769550     0.000000000  0.193349294  0.000000000
     0.000000000  0.000000000  7.862800000     0.142915658  0.165355416  0.127181157

  length of vectors
     7.862800000  7.862800000  7.862800000     0.193349294  0.193349294  0.252868238

  position of ions in fractional coordinates (direct lattice)
     0.000000000  0.500000000  0.500000000
     0.500000000  0.000000000  0.500000000
     0.245990000  0.745990000  0.991980000
     0.250000000  0.250000000  0.000000000
     0.754010000  0.254010000  0.008020000
     0.750000000  0.750000000  0.000000000
     0.745990000  0.754010000  0.500000000
     0.254010000  0.245990000  0.500000000
     0.113370000  0.112150000  0.500000000
     0.886630000  0.887850000  0.500000000
     0.112150000  0.612150000  0.998780000
     0.887850000  0.387850000  0.001220000
     0.612150000  0.613370000  0.500000000
     0.387850000  0.386630000  0.500000000
     0.613370000  0.113370000  0.001220000
     0.386630000  0.886630000  0.998780000

  ion indices of the primitive-cell ions
   primitive index   ion index
                 1           1
                 2           2
                 3           3
                 4           4
                 5           5
                 6           6
                 7           7
                 8           8
                 9           9
                10          10
                11          11
                12          12
                13          13
                14          14
                15          15
                16          16

----------------------------------------------------------------------------------------

 
 
 KPOINTS: EA                                      

Automatic generation of k-mesh.
 Grid dimensions read from file:
 generate k-points for:    7    7    9

 Generating k-lattice:

  Cartesian coordinates                     Fractional coordinates (reciprocal lattice)
     0.027330155  0.004000044  0.000000000     0.142857143 -0.000000000  0.000000000
     0.000000000  0.027621328  0.000000000     0.000000000  0.142857143  0.000000000
     0.015879518  0.018372824  0.014131240    -0.000000000  0.000000000  0.111111111

  Length of vectors
     0.027621328  0.027621328  0.028096471

  Shift w.r.t. Gamma in fractional coordinates (k-lattice)
     0.000000000  0.000000000  0.000000000

 -----------------------------------------------------------------------------
|                                                                             |
|           W    W    AA    RRRRR   N    N  II  N    N   GGGG   !!!           |
|           W    W   A  A   R    R  NN   N  II  NN   N  G    G  !!!           |
|           W    W  A    A  R    R  N N  N  II  N N  N  G       !!!           |
|           W WW W  AAAAAA  RRRRR   N  N N  II  N  N N  G  GGG   !            |
|           WW  WW  A    A  R   R   N   NN  II  N   NN  G    G                |
|           W    W  A    A  R    R  N    N  II  N    N   GGGG   !!!           |
|                                                                             |
|     Your reciprocal lattice and k-lattice belong to different lattice       |
|     classes:                                                                |
|                                                                             |
|        The reciprocal lattice is body-centered tetragonal,                  |
|        whereas your k-lattice is base-centered monoclinic.                  |
|                                                                             |
|     Results are often still useful ...                                      |
|                                                                             |
 -----------------------------------------------------------------------------

 WARNING: IBZKPT: internal override: KBLOWUP is changed to .FALSE.
      ... skipping the blow-up phase ...

 
 Subroutine IBZKPT returns following result:
 ===========================================
 
 Found    128 irreducible k-points:
 
 Following reciprocal coordinates:
            Coordinates               Weight
  0.000000  0.000000  0.000000      1.000000
  0.142857  0.000000  0.000000      4.000000
  0.285714  0.000000  0.000000      4.000000
  0.428571 -0.000000  0.000000      4.000000
  0.142857  0.142857  0.000000      2.000000
  0.285714  0.142857  0.000000      4.000000
  0.428571  0.142857  0.000000      4.000000
 -0.428571  0.142857  0.000000      4.000000
 -0.285714  0.142857  0.000000      4.000000
 -0.142857  0.142857  0.000000      2.000000
  0.285714  0.285714  0.000000      2.000000
  0.428571  0.285714  0.000000      4.000000
 -0.428571  0.285714  0.000000      4.000000
 -0.285714  0.285714  0.000000      2.000000
  0.428571  0.428571  0.000000      2.000000
 -0.428571  0.428571  0.000000      2.000000
  0.000000 -0.000000  0.111111      2.000000
  0.142857 -0.000000  0.111111      4.000000
  0.285714  0.000000  0.111111      4.000000
  0.428571 -0.000000  0.111111      4.000000
 -0.428571 -0.000000  0.111111      4.000000
 -0.285714 -0.000000  0.111111      4.000000
 -0.142857 -0.000000  0.111111      4.000000
  0.142857  0.142857  0.111111      2.000000
  0.285714  0.142857  0.111111      4.000000
  0.428571  0.142857  0.111111      4.000000
 -0.428571  0.142857  0.111111      4.000000
 -0.285714  0.142857  0.111111      4.000000
 -0.142857  0.142857  0.111111      4.000000
  0.285714  0.285714  0.111111      2.000000
  0.428571  0.285714  0.111111      4.000000
 -0.428571  0.285714  0.111111      4.000000
 -0.285714  0.285714  0.111111      4.000000
 -0.142857  0.285714  0.111111      4.000000
  0.428571  0.428571  0.111111      2.000000
 -0.428571  0.428571  0.111111      4.000000
 -0.285714  0.428571  0.111111      4.000000
 -0.142857  0.428571  0.111111      4.000000
 -0.428571 -0.428571  0.111111      2.000000
 -0.285714 -0.428571  0.111111      4.000000
 -0.142857 -0.428571  0.111111      4.000000
 -0.285714 -0.285714  0.111111      2.000000
 -0.142857 -0.285714  0.111111      4.000000
 -0.142857 -0.142857  0.111111      2.000000
  0.000000  0.000000  0.222222      2.000000
  0.142857  0.000000  0.222222      4.000000
  0.285714  0.000000  0.222222      4.000000
  0.428571  0.000000  0.222222      4.000000
 -0.428571  0.000000  0.222222      4.000000
 -0.285714  0.000000  0.222222      4.000000
 -0.142857  0.000000  0.222222      4.000000
  0.142857  0.142857  0.222222      2.000000
  0.285714  0.142857  0.222222      4.000000
  0.428571  0.142857  0.222222      4.000000
 -0.428571  0.142857  0.222222      4.000000
 -0.285714  0.142857  0.222222      4.000000
 -0.142857  0.142857  0.222222      4.000000
  0.285714  0.285714  0.222222      2.000000
  0.428571  0.285714  0.222222      4.000000
 -0.428571  0.285714  0.222222      4.000000
 -0.285714  0.285714  0.222222      4.000000
 -0.142857  0.285714  0.222222      4.000000
  0.428571  0.428571  0.222222      2.000000
 -0.428571  0.428571  0.222222      4.000000
 -0.285714  0.428571  0.222222      4.000000
 -0.142857  0.428571  0.222222      4.000000
 -0.428571 -0.428571  0.222222      2.000000
 -0.285714 -0.428571  0.222222      4.000000
 -0.142857 -0.428571  0.222222      4.000000
 -0.285714 -0.285714  0.222222      2.000000
 -0.142857 -0.285714  0.222222      4.000000
 -0.142857 -0.142857  0.222222      2.000000
 -0.000000 -0.000000  0.333333      2.000000
  0.142857 -0.000000  0.333333      4.000000
  0.285714  0.000000  0.333333      4.000000
  0.428571 -0.000000  0.333333      4.000000
 -0.428571 -0.000000  0.333333      4.000000
 -0.285714  0.000000  0.333333      4.000000
 -0.142857  0.000000  0.333333      4.000000
  0.142857  0.142857  0.333333      2.000000
  0.285714  0.142857  0.333333      4.000000
  0.428571  0.142857  0.333333      4.000000
 -0.428571  0.142857  0.333333      4.000000
 -0.285714  0.142857  0.333333      4.000000
 -0.142857  0.142857  0.333333      4.000000
  0.285714  0.285714  0.333333      2.000000
  0.428571  0.285714  0.333333      4.000000
 -0.428571  0.285714  0.333333      4.000000
 -0.285714  0.285714  0.333333      4.000000
 -0.142857  0.285714  0.333333      4.000000
  0.428571  0.428571  0.333333      2.000000
 -0.428571  0.428571  0.333333      4.000000
 -0.285714  0.428571  0.333333      4.000000
 -0.142857  0.428571  0.333333      4.000000
 -0.428571 -0.428571  0.333333      2.000000
 -0.285714 -0.428571  0.333333      4.000000
 -0.142857 -0.428571  0.333333      4.000000
 -0.285714 -0.285714  0.333333      2.000000
 -0.142857 -0.285714  0.333333      4.000000
 -0.142857 -0.142857  0.333333      2.000000
  0.000000  0.000000  0.444444      2.000000
  0.142857  0.000000  0.444444      4.000000
  0.285714  0.000000  0.444444      4.000000
  0.428571  0.000000  0.444444      4.000000
 -0.428571  0.000000  0.444444      4.000000
 -0.285714  0.000000  0.444444      4.000000
 -0.142857  0.000000  0.444444      4.000000
  0.142857  0.142857  0.444444      2.000000
  0.285714  0.142857  0.444444      4.000000
  0.428571  0.142857  0.444444      4.000000
 -0.428571  0.142857  0.444444      4.000000
 -0.285714  0.142857  0.444444      4.000000
 -0.142857  0.142857  0.444444      4.000000
  0.285714  0.285714  0.444444      2.000000
  0.428571  0.285714  0.444444      4.000000
 -0.428571  0.285714  0.444444      4.000000
 -0.285714  0.285714  0.444444      4.000000
 -0.142857  0.285714  0.444444      4.000000
  0.428571  0.428571  0.444444      2.000000
 -0.428571  0.428571  0.444444      4.000000
 -0.285714  0.428571  0.444444      4.000000
 -0.142857  0.428571  0.444444      4.000000
 -0.428571 -0.428571  0.444444      2.000000
 -0.285714 -0.428571  0.444444      4.000000
 -0.142857 -0.428571  0.444444      4.000000
 -0.285714 -0.285714  0.444444      2.000000
 -0.142857 -0.285714  0.444444      4.000000
 -0.142857 -0.142857  0.444444      2.000000
 
 Following cartesian coordinates:
            Coordinates               Weight
  0.000000  0.000000  0.000000      1.000000
  0.027330  0.004000  0.000000      4.000000
  0.054660  0.008000  0.000000      4.000000
  0.081990  0.012000  0.000000      4.000000
  0.027330  0.031621  0.000000      2.000000
  0.054660  0.035621  0.000000      4.000000
  0.081990  0.039621  0.000000      4.000000
 -0.081990  0.015621  0.000000      4.000000
 -0.054660  0.019621  0.000000      4.000000
 -0.027330  0.023621  0.000000      2.000000
  0.054660  0.063243  0.000000      2.000000
  0.081990  0.067243  0.000000      4.000000
 -0.081990  0.043243  0.000000      4.000000
 -0.054660  0.047243  0.000000      2.000000
  0.081990  0.094864  0.000000      2.000000
 -0.081990  0.070864  0.000000      2.000000
  0.015880  0.018373  0.014131      2.000000
  0.043210  0.022373  0.014131      4.000000
  0.070540  0.026373  0.014131      4.000000
  0.097870  0.030373  0.014131      4.000000
 -0.066111  0.006373  0.014131      4.000000
 -0.038781  0.010373  0.014131      4.000000
 -0.011451  0.014373  0.014131      4.000000
  0.043210  0.049994  0.014131      2.000000
  0.070540  0.053994  0.014131      4.000000
  0.097870  0.057994  0.014131      4.000000
 -0.066111  0.033994  0.014131      4.000000
 -0.038781  0.037994  0.014131      4.000000
 -0.011451  0.041994  0.014131      4.000000
  0.070540  0.081616  0.014131      2.000000
  0.097870  0.085616  0.014131      4.000000
 -0.066111  0.061615  0.014131      4.000000
 -0.038781  0.065615  0.014131      4.000000
 -0.011451  0.069615  0.014131      4.000000
  0.097870  0.113237  0.014131      2.000000
 -0.066111  0.089237  0.014131      4.000000
 -0.038781  0.093237  0.014131      4.000000
 -0.011451  0.097237  0.014131      4.000000
 -0.066111 -0.076491  0.014131      2.000000
 -0.038781 -0.072491  0.014131      4.000000
 -0.011451 -0.068491  0.014131      4.000000
 -0.038781 -0.044870  0.014131      2.000000
 -0.011451 -0.040870  0.014131      4.000000
 -0.011451 -0.013249  0.014131      2.000000
  0.031759  0.036746  0.028262      2.000000
  0.059089  0.040746  0.028262      4.000000
  0.086419  0.044746  0.028262      4.000000
  0.113750  0.048746  0.028262      4.000000
 -0.050231  0.024746  0.028262      4.000000
 -0.022901  0.028746  0.028262      4.000000
  0.004429  0.032746  0.028262      4.000000
  0.059089  0.068367  0.028262      2.000000
  0.086419  0.072367  0.028262      4.000000
  0.113750  0.076367  0.028262      4.000000
 -0.050231  0.052367  0.028262      4.000000
 -0.022901  0.056367  0.028262      4.000000
  0.004429  0.060367  0.028262      4.000000
  0.086419  0.099988  0.028262      2.000000
  0.113750  0.103988  0.028262      4.000000
 -0.050231  0.079988  0.028262      4.000000
 -0.022901  0.083988  0.028262      4.000000
  0.004429  0.087988  0.028262      4.000000
  0.113750  0.131610  0.028262      2.000000
 -0.050231  0.107609  0.028262      4.000000
 -0.022901  0.111610  0.028262      4.000000
  0.004429  0.115610  0.028262      4.000000
 -0.050231 -0.058118  0.028262      2.000000
 -0.022901 -0.054118  0.028262      4.000000
  0.004429 -0.050118  0.028262      4.000000
 -0.022901 -0.026497  0.028262      2.000000
  0.004429 -0.022497  0.028262      4.000000
  0.004429  0.005124  0.028262      2.000000
  0.047639  0.055118  0.042394      2.000000
  0.074969  0.059119  0.042394      4.000000
  0.102299  0.063119  0.042394      4.000000
  0.129629  0.067119  0.042394      4.000000
 -0.034352  0.043118  0.042394      4.000000
 -0.007022  0.047118  0.042394      4.000000
  0.020308  0.051118  0.042394      4.000000
  0.074969  0.086740  0.042394      2.000000
  0.102299  0.090740  0.042394      4.000000
  0.129629  0.094740  0.042394      4.000000
 -0.034352  0.070740  0.042394      4.000000
 -0.007022  0.074740  0.042394      4.000000
  0.020308  0.078740  0.042394      4.000000
  0.102299  0.118361  0.042394      2.000000
  0.129629  0.122361  0.042394      4.000000
 -0.034352  0.098361  0.042394      4.000000
 -0.007022  0.102361  0.042394      4.000000
  0.020308  0.106361  0.042394      4.000000
  0.129629  0.149983  0.042394      2.000000
 -0.034352  0.125982  0.042394      4.000000
 -0.007022  0.129982  0.042394      4.000000
  0.020308  0.133982  0.042394      4.000000
 -0.034352 -0.039746  0.042394      2.000000
 -0.007022 -0.035746  0.042394      4.000000
  0.020308 -0.031746  0.042394      4.000000
 -0.007022 -0.008124  0.042394      2.000000
  0.020308 -0.004124  0.042394      4.000000
  0.020308  0.023497  0.042394      2.000000
  0.063518  0.073491  0.056525      2.000000
  0.090848  0.077491  0.056525      4.000000
  0.118178  0.081491  0.056525      4.000000
  0.145509  0.085491  0.056525      4.000000
 -0.018472  0.061491  0.056525      4.000000
  0.008858  0.065491  0.056525      4.000000
  0.036188  0.069491  0.056525      4.000000
  0.090848  0.105113  0.056525      2.000000
  0.118178  0.109113  0.056525      4.000000
  0.145509  0.113113  0.056525      4.000000
 -0.018472  0.089112  0.056525      4.000000
  0.008858  0.093113  0.056525      4.000000
  0.036188  0.097113  0.056525      4.000000
  0.118178  0.136734  0.056525      2.000000
  0.145509  0.140734  0.056525      4.000000
 -0.018472  0.116734  0.056525      4.000000
  0.008858  0.120734  0.056525      4.000000
  0.036188  0.124734  0.056525      4.000000
  0.145509  0.168355  0.056525      2.000000
 -0.018472  0.144355  0.056525      4.000000
  0.008858  0.148355  0.056525      4.000000
  0.036188  0.152355  0.056525      4.000000
 -0.018472 -0.021373  0.056525      2.000000
  0.008858 -0.017373  0.056525      4.000000
  0.036188 -0.013373  0.056525      4.000000
  0.008858  0.010249  0.056525      2.000000
  0.036188  0.014249  0.056525      4.000000
  0.036188  0.041870  0.056525      2.000000
 


--------------------------------------------------------------------------------------------------------




 Dimension of arrays:
   k-points           NKPTS =    128   k-points in BZ     NKDIM =    128   number of bands    NBANDS=     78
   number of dos      NEDOS =    301   number of ions     NIONS =     16
   non local maximal  LDIM  =      6   non local SUM 2l+1 LMDIM =     18
   total plane-waves  NPLWV = 262144
   max r-space proj   IRMAX =      1   max aug-charges    IRDMAX= 431599
   dimension x,y,z NGX =    64 NGY =   64 NGZ =   64
   dimension x,y,z NGXF=   128 NGYF=  128 NGZF=  128
   support grid    NGXF=   256 NGYF=  256 NGZF=  256
   ions per type =               2   6   8
   NGX,Y,Z   is equivalent  to a cutoff of  13.53, 13.53, 13.53 a.u.
   NGXF,Y,Z  is equivalent  to a cutoff of  27.06, 27.06, 27.06 a.u.

 SYSTEM =  routine with relax: pwdword             
 POSCAR =  EA92                                    

 Startparameter for this run:
   NWRITE =      2    write-flag & timer
   PREC   = acc       normal or accurate (medium, high low for compatibility)
   ISTART =      0    job   : 0-new  1-cont  2-samecut
   ICHARG =      2    charge: 1-file 2-atom 10-const
   ISPIN  =      1    spin polarized calculation?
   LNONCOLLINEAR =      F non collinear calculations
   LSORBIT =      F    spin-orbit coupling
   INIWAV =      1    electr: 0-lowe 1-rand  2-diag
   LASPH  =      T    aspherical Exc in radial PAW
   METAGGA=      F    non-selfconsistent MetaGGA calc.

 Electronic Relaxation 1
   ENCUT  =  600.0 eV  44.10 Ry    6.64 a.u.  15.70 15.70 15.70*2*pi/ulx,y,z
   ENINI  =  600.0     initial cutoff
   ENAUG  =  535.5 eV  augmentation charge cutoff
   NELM   =    100;   NELMIN=  6; NELMDL= -5     # of ELM steps 
   EDIFF  = 0.1E-08   stopping-criterion for ELM
   LREAL  =      F    real-space projection
   NLSPLINE    = F    spline interpolate recip. space projectors
   LCOMPAT=      F    compatible to vasp.4.4
   GGA_COMPAT  = T    GGA compatible to vasp.4.4-vasp.4.6
   LMAXPAW     = -100 max onsite density
   LMAXMIX     =    2 max onsite mixed and CHGCAR
   VOSKOWN=      0    Vosko Wilk Nusair interpolation
   ROPT   =    0.00000   0.00000   0.00000
 Ionic relaxation
   EDIFFG = 0.1E-07   stopping-criterion for IOM
   NSW    =      0    number of steps for IOM
   NBLOCK =      1;   KBLOCK =      1    inner block; outer block 
   IBRION =     -1    ionic relax: 0-MD 1-quasi-New 2-CG
   NFREE  =      0    steps in history (QN), initial steepest desc. (CG)
   ISIF   =     -1    stress and relaxation
   IWAVPR =     10    prediction:  0-non 1-charg 2-wave 3-comb
   ISYM   =      2    0-nonsym 1-usesym 2-fastsym
   LCORR  =      T    Harris-Foulkes like correction to forces

   POTIM  = 0.5000    time-step for ionic-motion
   TEIN   =    0.0    initial temperature
   TEBEG  =    0.0;   TEEND  =   0.0 temperature during run
   SMASS  =  -3.00    Nose mass-parameter (am)
   estimated Nose-frequenzy (Omega)   =  0.10E-29 period in steps = 0.13E+47 mass=  -0.141E-26a.u.
   SCALEE = 1.0000    scale energy and forces
   NPACO  =    256;   APACO  = 16.0  distance and # of slots for P.C.
   PSTRESS=    0.0 pullay stress

  Mass of Ions in am
   POMASS =  10.81 95.94 28.09
  Ionic Valenz
   ZVAL   =   3.00 14.00  4.00
  Atomic Wigner-Seitz radii
   RWIGS  =  -1.00 -1.00 -1.00
  virtual crystal weights 
   VCA    =   1.00  1.00  1.00
   NELECT =     122.0000    total number of electrons
   NUPDOWN=      -1.0000    fix difference up-down

 DOS related values:
   EMIN   =  10.00;   EMAX   =-10.00  energy-range for DOS
   EFERMI =   0.00
   ISMEAR =     0;   SIGMA  =   0.02  broadening in eV -4-tet -1-fermi 0-gaus

 Electronic relaxation 2 (details)
   IALGO  =     58    algorithm
   LDIAG  =      T    sub-space diagonalisation (order eigenvalues)
   LSUBROT=      F    optimize rotation matrix (better conditioning)
   TURBO    =      0    0=normal 1=particle mesh
   IRESTART =      0    0=no restart 2=restart with 2 vectors
   NREBOOT  =      0    no. of reboots
   NMIN     =      0    reboot dimension
   EREF     =   0.00    reference energy to select bands
   IMIX   =      4    mixing-type and parameters
     AMIX     =   0.40;   BMIX     =  1.00
     AMIX_MAG =   1.60;   BMIX_MAG =  1.00
     AMIN     =   0.10
     WC   =   100.;   INIMIX=   1;  MIXPRE=   1;  MAXMIX= -45

 Intra band minimization:
   WEIMIN = 0.0000     energy-eigenvalue tresh-hold
   EBREAK =  0.32E-11  absolut break condition
   DEPER  =   0.30     relativ break condition  

   TIME   =   0.40     timestep for ELM

  volume/ion in A,a.u.               =      13.29        89.65
  Fermi-wavevector in a.u.,A,eV,Ry     =   1.360494  2.570961 25.183618  1.850944
  Thomas-Fermi vector in A             =   2.487151
 
 Write flags
   LWAVE        =      T    write WAVECAR
   LDOWNSAMPLE  =      F    k-point downsampling of WAVECAR
   LCHARG       =      T    write CHGCAR
   LVTOT        =      F    write LOCPOT, total local potential
   LVHAR        =      F    write LOCPOT, Hartree potential only
   LELF         =      F    write electronic localiz. function (ELF)
   LORBIT       =      0    0 simple, 1 ext, 2 COOP (PROOUT), +10 PAW based schemes


 Dipole corrections
   LMONO  =      F    monopole corrections only (constant potential shift)
   LDIPOL =      F    correct potential (dipole corrections)
   IDIPOL =      0    1-x, 2-y, 3-z, 4-all directions 
   EPSILON=  1.0000000 bulk dielectric constant

 Exchange correlation treatment:
   GGA     =    --    GGA type
   LEXCH   =     8    internal setting for exchange type
   VOSKOWN=      0    Vosko Wilk Nusair interpolation
   LHFCALC =     F    Hartree Fock is set to
   LHFONE  =     F    Hartree Fock one center treatment
   AEXX    =    0.0000 exact exchange contribution

 Linear response parameters
   LEPSILON=     F    determine dielectric tensor
   LRPA    =     F    only Hartree local field effects (RPA)
   LNABLA  =     F    use nabla operator in PAW spheres
   LVEL    =     F    velocity operator in full k-point grid
   LINTERFAST=   F  fast interpolation
   KINTER  =     0    interpolate to denser k-point grid
   CSHIFT  =0.1000    complex shift for real part using Kramers Kronig
   OMEGAMAX=  -1.0    maximum frequency
   DEG_THRESHOLD= 0.2000000E-02 threshold for treating states as degnerate
   RTIME   =   -0.100 relaxation time in fs
  (WPLASMAI=    0.000 imaginary part of plasma frequency in eV, 0.658/RTIME)
   DFIELD  = 0.0000000 0.0000000 0.0000000 field for delta impulse in time
 
 Orbital magnetization related:
   ORBITALMAG=     F  switch on orbital magnetization
   LCHIMAG   =     F  perturbation theory with respect to B field
   DQ        =  0.001000  dq finite difference perturbation B field
   LLRAUG    =     F  two centre corrections for induced B field



--------------------------------------------------------------------------------------------------------


 Static calculation
 charge density and potential will be updated during run
 non-spin polarized calculation
 Conjugate gradient for all bands (Freysoldt, et al. PRB 79, 241103 (2009))
 preconditioned conjugated gradient                                        
 perform sub-space diagonalisation
    before iterative eigenvector-optimisation
 modified Broyden-mixing scheme, WC =      100.0
 initial mixing is a Kerker type mixing with AMIX =  0.4000 and BMIX =      1.0000
 Hartree-type preconditioning will be used
 using additional bands           17
 reciprocal scheme for non local part
 use partial core corrections
 no Harris-corrections to forces 
 use gradient corrections 
 use of overlap-Matrix (Vanderbilt PP)
 Gauss-broadening in eV      SIGMA  =   0.02


--------------------------------------------------------------------------------------------------------


  energy-cutoff  :      600.00
  volume of cell :      212.57
      direct lattice vectors                 reciprocal lattice vectors
     5.227088588  0.000000000 -5.873769550     0.191311087  0.028000311  0.000000000
    -0.756972529  5.171986823 -5.873769550     0.000000000  0.193349294  0.000000000
     0.000000000  0.000000000  7.862800000     0.142915658  0.165355416  0.127181157

  length of vectors
     7.862800000  7.862800000  7.862800000     0.193349294  0.193349294  0.252868238


 
 k-points in units of 2pi/SCALE and weight: EA                                      
   0.00000000  0.00000000  0.00000000       0.002
   0.02733016  0.00400004  0.00000000       0.009
   0.05466031  0.00800009  0.00000000       0.009
   0.08199047  0.01200013  0.00000000       0.009
   0.02733016  0.03162137  0.00000000       0.005
   0.05466031  0.03562142  0.00000000       0.009
   0.08199047  0.03962146  0.00000000       0.009
  -0.08199047  0.01562119  0.00000000       0.009
  -0.05466031  0.01962124  0.00000000       0.009
  -0.02733016  0.02362128  0.00000000       0.005
   0.05466031  0.06324274  0.00000000       0.005
   0.08199047  0.06724279  0.00000000       0.009
  -0.08199047  0.04324252  0.00000000       0.009
  -0.05466031  0.04724257  0.00000000       0.005
   0.08199047  0.09486412  0.00000000       0.005
  -0.08199047  0.07086385  0.00000000       0.005
   0.01587952  0.01837282  0.01413124       0.005
   0.04320967  0.02237287  0.01413124       0.009
   0.07053983  0.02637291  0.01413124       0.009
   0.09786998  0.03037296  0.01413124       0.009
  -0.06611095  0.00637269  0.01413124       0.009
  -0.03878079  0.01037274  0.01413124       0.009
  -0.01145064  0.01437278  0.01413124       0.009
   0.04320967  0.04999420  0.01413124       0.005
   0.07053983  0.05399424  0.01413124       0.009
   0.09786998  0.05799428  0.01413124       0.009
  -0.06611095  0.03399402  0.01413124       0.009
  -0.03878079  0.03799406  0.01413124       0.009
  -0.01145064  0.04199411  0.01413124       0.009
   0.07053983  0.08161557  0.01413124       0.005
   0.09786998  0.08561561  0.01413124       0.009
  -0.06611095  0.06161535  0.01413124       0.009
  -0.03878079  0.06561539  0.01413124       0.009
  -0.01145064  0.06961544  0.01413124       0.009
   0.09786998  0.11323694  0.01413124       0.005
  -0.06611095  0.08923667  0.01413124       0.009
  -0.03878079  0.09323672  0.01413124       0.009
  -0.01145064  0.09723676  0.01413124       0.009
  -0.06611095 -0.07649129  0.01413124       0.005
  -0.03878079 -0.07249125  0.01413124       0.009
  -0.01145064 -0.06849120  0.01413124       0.009
  -0.03878079 -0.04486992  0.01413124       0.005
  -0.01145064 -0.04086988  0.01413124       0.009
  -0.01145064 -0.01324855  0.01413124       0.005
   0.03175904  0.03674565  0.02826248       0.005
   0.05908919  0.04074569  0.02826248       0.009
   0.08641935  0.04474574  0.02826248       0.009
   0.11374950  0.04874578  0.02826248       0.009
  -0.05023143  0.02474551  0.02826248       0.009
  -0.02290128  0.02874556  0.02826248       0.009
   0.00442888  0.03274560  0.02826248       0.009
   0.05908919  0.06836702  0.02826248       0.005
   0.08641935  0.07236706  0.02826248       0.009
   0.11374950  0.07636711  0.02826248       0.009
  -0.05023143  0.05236684  0.02826248       0.009
  -0.02290128  0.05636689  0.02826248       0.009
   0.00442888  0.06036693  0.02826248       0.009
   0.08641935  0.09998839  0.02826248       0.005
   0.11374950  0.10398844  0.02826248       0.009
  -0.05023143  0.07998817  0.02826248       0.009
  -0.02290128  0.08398821  0.02826248       0.009
   0.00442888  0.08798826  0.02826248       0.009
   0.11374950  0.13160976  0.02826248       0.005
  -0.05023143  0.10760950  0.02826248       0.009
  -0.02290128  0.11160954  0.02826248       0.009
   0.00442888  0.11560959  0.02826248       0.009
  -0.05023143 -0.05811847  0.02826248       0.005
  -0.02290128 -0.05411842  0.02826248       0.009
   0.00442888 -0.05011838  0.02826248       0.009
  -0.02290128 -0.02649710  0.02826248       0.005
   0.00442888 -0.02249705  0.02826248       0.009
   0.00442888  0.00512428  0.02826248       0.005
   0.04763855  0.05511847  0.04239372       0.005
   0.07496871  0.05911852  0.04239372       0.009
   0.10229886  0.06311856  0.04239372       0.009
   0.12962902  0.06711861  0.04239372       0.009
  -0.03435191  0.04311834  0.04239372       0.009
  -0.00702176  0.04711838  0.04239372       0.009
   0.02030840  0.05111843  0.04239372       0.009
   0.07496871  0.08673984  0.04239372       0.005
   0.10229886  0.09073989  0.04239372       0.009
   0.12962902  0.09473993  0.04239372       0.009
  -0.03435191  0.07073967  0.04239372       0.009
  -0.00702176  0.07473971  0.04239372       0.009
   0.02030840  0.07873976  0.04239372       0.009
   0.10229886  0.11836122  0.04239372       0.005
   0.12962902  0.12236126  0.04239372       0.009
  -0.03435191  0.09836099  0.04239372       0.009
  -0.00702176  0.10236104  0.04239372       0.009
   0.02030840  0.10636108  0.04239372       0.009
   0.12962902  0.14998259  0.04239372       0.005
  -0.03435191  0.12598232  0.04239372       0.009
  -0.00702176  0.12998237  0.04239372       0.009
   0.02030840  0.13398241  0.04239372       0.009
  -0.03435191 -0.03974564  0.04239372       0.005
  -0.00702176 -0.03574560  0.04239372       0.009
   0.02030840 -0.03174556  0.04239372       0.009
  -0.00702176 -0.00812427  0.04239372       0.005
   0.02030840 -0.00412423  0.04239372       0.009
   0.02030840  0.02349710  0.04239372       0.005
   0.06351807  0.07349130  0.05652496       0.005
   0.09084823  0.07749134  0.05652496       0.009
   0.11817838  0.08149138  0.05652496       0.009
   0.14550854  0.08549143  0.05652496       0.009
  -0.01847240  0.06149116  0.05652496       0.009
   0.00885776  0.06549121  0.05652496       0.009
   0.03618792  0.06949125  0.05652496       0.009
   0.09084823  0.10511267  0.05652496       0.005
   0.11817838  0.10911271  0.05652496       0.009
   0.14550854  0.11311276  0.05652496       0.009
  -0.01847240  0.08911249  0.05652496       0.009
   0.00885776  0.09311254  0.05652496       0.009
   0.03618792  0.09711258  0.05652496       0.009
   0.11817838  0.13673404  0.05652496       0.005
   0.14550854  0.14073408  0.05652496       0.009
  -0.01847240  0.11673382  0.05652496       0.009
   0.00885776  0.12073386  0.05652496       0.009
   0.03618792  0.12473391  0.05652496       0.009
   0.14550854  0.16835541  0.05652496       0.005
  -0.01847240  0.14435515  0.05652496       0.009
   0.00885776  0.14835519  0.05652496       0.009
   0.03618792  0.15235523  0.05652496       0.009
  -0.01847240 -0.02137282  0.05652496       0.005
   0.00885776 -0.01737278  0.05652496       0.009
   0.03618792 -0.01337273  0.05652496       0.009
   0.00885776  0.01024855  0.05652496       0.005
   0.03618792  0.01424860  0.05652496       0.009
   0.03618792  0.04186992  0.05652496       0.005
 
 k-points in reciprocal lattice and weights: EA                                      
   0.00000000  0.00000000  0.00000000       0.002
   0.14285714  0.00000000  0.00000000       0.009
   0.28571429  0.00000000  0.00000000       0.009
   0.42857143 -0.00000000  0.00000000       0.009
   0.14285714  0.14285714  0.00000000       0.005
   0.28571429  0.14285714  0.00000000       0.009
   0.42857143  0.14285714  0.00000000       0.009
  -0.42857143  0.14285714  0.00000000       0.009
  -0.28571429  0.14285714  0.00000000       0.009
  -0.14285714  0.14285714  0.00000000       0.005
   0.28571429  0.28571429  0.00000000       0.005
   0.42857143  0.28571429  0.00000000       0.009
  -0.42857143  0.28571429  0.00000000       0.009
  -0.28571429  0.28571429  0.00000000       0.005
   0.42857143  0.42857143  0.00000000       0.005
  -0.42857143  0.42857143  0.00000000       0.005
   0.00000000 -0.00000000  0.11111111       0.005
   0.14285714 -0.00000000  0.11111111       0.009
   0.28571429  0.00000000  0.11111111       0.009
   0.42857143 -0.00000000  0.11111111       0.009
  -0.42857143 -0.00000000  0.11111111       0.009
  -0.28571429 -0.00000000  0.11111111       0.009
  -0.14285714 -0.00000000  0.11111111       0.009
   0.14285714  0.14285714  0.11111111       0.005
   0.28571429  0.14285714  0.11111111       0.009
   0.42857143  0.14285714  0.11111111       0.009
  -0.42857143  0.14285714  0.11111111       0.009
  -0.28571429  0.14285714  0.11111111       0.009
  -0.14285714  0.14285714  0.11111111       0.009
   0.28571429  0.28571429  0.11111111       0.005
   0.42857143  0.28571429  0.11111111       0.009
  -0.42857143  0.28571429  0.11111111       0.009
  -0.28571429  0.28571429  0.11111111       0.009
  -0.14285714  0.28571429  0.11111111       0.009
   0.42857143  0.42857143  0.11111111       0.005
  -0.42857143  0.42857143  0.11111111       0.009
  -0.28571429  0.42857143  0.11111111       0.009
  -0.14285714  0.42857143  0.11111111       0.009
  -0.42857143 -0.42857143  0.11111111       0.005
  -0.28571429 -0.42857143  0.11111111       0.009
  -0.14285714 -0.42857143  0.11111111       0.009
  -0.28571429 -0.28571429  0.11111111       0.005
  -0.14285714 -0.28571429  0.11111111       0.009
  -0.14285714 -0.14285714  0.11111111       0.005
   0.00000000  0.00000000  0.22222222       0.005
   0.14285714  0.00000000  0.22222222       0.009
   0.28571429  0.00000000  0.22222222       0.009
   0.42857143  0.00000000  0.22222222       0.009
  -0.42857143  0.00000000  0.22222222       0.009
  -0.28571429  0.00000000  0.22222222       0.009
  -0.14285714  0.00000000  0.22222222       0.009
   0.14285714  0.14285714  0.22222222       0.005
   0.28571429  0.14285714  0.22222222       0.009
   0.42857143  0.14285714  0.22222222       0.009
  -0.42857143  0.14285714  0.22222222       0.009
  -0.28571429  0.14285714  0.22222222       0.009
  -0.14285714  0.14285714  0.22222222       0.009
   0.28571429  0.28571429  0.22222222       0.005
   0.42857143  0.28571429  0.22222222       0.009
  -0.42857143  0.28571429  0.22222222       0.009
  -0.28571429  0.28571429  0.22222222       0.009
  -0.14285714  0.28571429  0.22222222       0.009
   0.42857143  0.42857143  0.22222222       0.005
  -0.42857143  0.42857143  0.22222222       0.009
  -0.28571429  0.42857143  0.22222222       0.009
  -0.14285714  0.42857143  0.22222222       0.009
  -0.42857143 -0.42857143  0.22222222       0.005
  -0.28571429 -0.42857143  0.22222222       0.009
  -0.14285714 -0.42857143  0.22222222       0.009
  -0.28571429 -0.28571429  0.22222222       0.005
  -0.14285714 -0.28571429  0.22222222       0.009
  -0.14285714 -0.14285714  0.22222222       0.005
  -0.00000000 -0.00000000  0.33333333       0.005
   0.14285714 -0.00000000  0.33333333       0.009
   0.28571429  0.00000000  0.33333333       0.009
   0.42857143 -0.00000000  0.33333333       0.009
  -0.42857143 -0.00000000  0.33333333       0.009
  -0.28571429  0.00000000  0.33333333       0.009
  -0.14285714  0.00000000  0.33333333       0.009
   0.14285714  0.14285714  0.33333333       0.005
   0.28571429  0.14285714  0.33333333       0.009
   0.42857143  0.14285714  0.33333333       0.009
  -0.42857143  0.14285714  0.33333333       0.009
  -0.28571429  0.14285714  0.33333333       0.009
  -0.14285714  0.14285714  0.33333333       0.009
   0.28571429  0.28571429  0.33333333       0.005
   0.42857143  0.28571429  0.33333333       0.009
  -0.42857143  0.28571429  0.33333333       0.009
  -0.28571429  0.28571429  0.33333333       0.009
  -0.14285714  0.28571429  0.33333333       0.009
   0.42857143  0.42857143  0.33333333       0.005
  -0.42857143  0.42857143  0.33333333       0.009
  -0.28571429  0.42857143  0.33333333       0.009
  -0.14285714  0.42857143  0.33333333       0.009
  -0.42857143 -0.42857143  0.33333333       0.005
  -0.28571429 -0.42857143  0.33333333       0.009
  -0.14285714 -0.42857143  0.33333333       0.009
  -0.28571429 -0.28571429  0.33333333       0.005
  -0.14285714 -0.28571429  0.33333333       0.009
  -0.14285714 -0.14285714  0.33333333       0.005
   0.00000000  0.00000000  0.44444444       0.005
   0.14285714  0.00000000  0.44444444       0.009
   0.28571429  0.00000000  0.44444444       0.009
   0.42857143  0.00000000  0.44444444       0.009
  -0.42857143  0.00000000  0.44444444       0.009
  -0.28571429  0.00000000  0.44444444       0.009
  -0.14285714  0.00000000  0.44444444       0.009
   0.14285714  0.14285714  0.44444444       0.005
   0.28571429  0.14285714  0.44444444       0.009
   0.42857143  0.14285714  0.44444444       0.009
  -0.42857143  0.14285714  0.44444444       0.009
  -0.28571429  0.14285714  0.44444444       0.009
  -0.14285714  0.14285714  0.44444444       0.009
   0.28571429  0.28571429  0.44444444       0.005
   0.42857143  0.28571429  0.44444444       0.009
  -0.42857143  0.28571429  0.44444444       0.009
  -0.28571429  0.28571429  0.44444444       0.009
  -0.14285714  0.28571429  0.44444444       0.009
   0.42857143  0.42857143  0.44444444       0.005
  -0.42857143  0.42857143  0.44444444       0.009
  -0.28571429  0.42857143  0.44444444       0.009
  -0.14285714  0.42857143  0.44444444       0.009
  -0.42857143 -0.42857143  0.44444444       0.005
  -0.28571429 -0.42857143  0.44444444       0.009
  -0.14285714 -0.42857143  0.44444444       0.009
  -0.28571429 -0.28571429  0.44444444       0.005
  -0.14285714 -0.28571429  0.44444444       0.009
  -0.14285714 -0.14285714  0.44444444       0.005
 
 position of ions in fractional coordinates (direct lattice) 
   0.00000000  0.50000000  0.50000000
   0.50000000  0.00000000  0.50000000
   0.24599000  0.74599000  0.99198000
   0.25000000  0.25000000  0.00000000
   0.75401000  0.25401000  0.00802000
   0.75000000  0.75000000  0.00000000
   0.74599000  0.75401000  0.50000000
   0.25401000  0.24599000  0.50000000
   0.11337000  0.11215000  0.50000000
   0.88663000  0.88785000  0.50000000
   0.11215000  0.61215000  0.99878000
   0.88785000  0.38785000  0.00122000
   0.61215000  0.61337000  0.50000000
   0.38785000  0.38663000  0.50000000
   0.61337000  0.11337000  0.00122000
   0.38663000  0.88663000  0.99878000
 
 position of ions in cartesian coordinates  (Angst):
  -0.37848626  2.58599341  0.99451522
   2.61354429  0.00000000  0.99451522
   0.72111759  3.85825045  1.97307843
   1.11752901  1.29299671 -2.93688478
   3.74899847  1.31373637 -5.85781753
   3.35258704  3.87899012 -8.81065433
   3.32859096  3.89972978 -4.87925433
   1.14152510  1.27225704  0.99451522
   0.50770056  0.58003832  2.60674749
   3.96241550  4.59194850 -6.49148659
   0.12283725  3.16603173  3.59883610
   4.34727881  2.00595509 -7.48357520
   2.73545804  3.17234156 -3.26702206
   1.73465802  1.99964527 -0.61771704
   3.12032135  0.58634815 -4.25911067
   1.34979471  4.58563868  0.37437157
 


--------------------------------------------------------------------------------------------------------


 k-point   1 :   0.0000 0.0000 0.0000  plane waves:    7099
 k-point   2 :   0.1429 0.0000 0.0000  plane waves:    7088
 k-point   3 :   0.2857 0.0000 0.0000  plane waves:    7086
 k-point   4 :   0.4286-0.0000 0.0000  plane waves:    7112
 k-point   5 :   0.1429 0.1429 0.0000  plane waves:    7068
 k-point   6 :   0.2857 0.1429 0.0000  plane waves:    7093
 k-point   7 :   0.4286 0.1429 0.0000  plane waves:    7089
 k-point   8 :  -0.4286 0.1429 0.0000  plane waves:    7108
 k-point   9 :  -0.2857 0.1429 0.0000  plane waves:    7098
 k-point  10 :  -0.1429 0.1429 0.0000  plane waves:    7090
 k-point  11 :   0.2857 0.2857 0.0000  plane waves:    7094
 k-point  12 :   0.4286 0.2857 0.0000  plane waves:    7100
 k-point  13 :  -0.4286 0.2857 0.0000  plane waves:    7093
 k-point  14 :  -0.2857 0.2857 0.0000  plane waves:    7072
 k-point  15 :   0.4286 0.4286 0.0000  plane waves:    7101
 k-point  16 :  -0.4286 0.4286 0.0000  plane waves:    7102
 k-point  17 :   0.0000-0.0000 0.1111  plane waves:    7104
 k-point  18 :   0.1429-0.0000 0.1111  plane waves:    7097
 k-point  19 :   0.2857 0.0000 0.1111  plane waves:    7101
 k-point  20 :   0.4286-0.0000 0.1111  plane waves:    7094
 k-point  21 :  -0.4286-0.0000 0.1111  plane waves:    7090
 k-point  22 :  -0.2857-0.0000 0.1111  plane waves:    7078
 k-point  23 :  -0.1429-0.0000 0.1111  plane waves:    7097
 k-point  24 :   0.1429 0.1429 0.1111  plane waves:    7092
 k-point  25 :   0.2857 0.1429 0.1111  plane waves:    7093
 k-point  26 :   0.4286 0.1429 0.1111  plane waves:    7100
 k-point  27 :  -0.4286 0.1429 0.1111  plane waves:    7099
 k-point  28 :  -0.2857 0.1429 0.1111  plane waves:    7096
 k-point  29 :  -0.1429 0.1429 0.1111  plane waves:    7097
 k-point  30 :   0.2857 0.2857 0.1111  plane waves:    7101
 k-point  31 :   0.4286 0.2857 0.1111  plane waves:    7101
 k-point  32 :  -0.4286 0.2857 0.1111  plane waves:    7097
 k-point  33 :  -0.2857 0.2857 0.1111  plane waves:    7085
 k-point  34 :  -0.1429 0.2857 0.1111  plane waves:    7099
 k-point  35 :   0.4286 0.4286 0.1111  plane waves:    7113
 k-point  36 :  -0.4286 0.4286 0.1111  plane waves:    7095
 k-point  37 :  -0.2857 0.4286 0.1111  plane waves:    7091
 k-point  38 :  -0.1429 0.4286 0.1111  plane waves:    7101
 k-point  39 :  -0.4286-0.4286 0.1111  plane waves:    7090
 k-point  40 :  -0.2857-0.4286 0.1111  plane waves:    7092
 k-point  41 :  -0.1429-0.4286 0.1111  plane waves:    7099
 k-point  42 :  -0.2857-0.2857 0.1111  plane waves:    7076
 k-point  43 :  -0.1429-0.2857 0.1111  plane waves:    7084
 k-point  44 :  -0.1429-0.1429 0.1111  plane waves:    7087
 k-point  45 :   0.0000 0.0000 0.2222  plane waves:    7096
 k-point  46 :   0.1429 0.0000 0.2222  plane waves:    7095
 k-point  47 :   0.2857 0.0000 0.2222  plane waves:    7092
 k-point  48 :   0.4286 0.0000 0.2222  plane waves:    7095
 k-point  49 :  -0.4286 0.0000 0.2222  plane waves:    7096
 k-point  50 :  -0.2857 0.0000 0.2222  plane waves:    7086
 k-point  51 :  -0.1429 0.0000 0.2222  plane waves:    7094
 k-point  52 :   0.1429 0.1429 0.2222  plane waves:    7108
 k-point  53 :   0.2857 0.1429 0.2222  plane waves:    7103
 k-point  54 :   0.4286 0.1429 0.2222  plane waves:    7106
 k-point  55 :  -0.4286 0.1429 0.2222  plane waves:    7105
 k-point  56 :  -0.2857 0.1429 0.2222  plane waves:    7102
 k-point  57 :  -0.1429 0.1429 0.2222  plane waves:    7098
 k-point  58 :   0.2857 0.2857 0.2222  plane waves:    7102
 k-point  59 :   0.4286 0.2857 0.2222  plane waves:    7099
 k-point  60 :  -0.4286 0.2857 0.2222  plane waves:    7094
 k-point  61 :  -0.2857 0.2857 0.2222  plane waves:    7087
 k-point  62 :  -0.1429 0.2857 0.2222  plane waves:    7089
 k-point  63 :   0.4286 0.4286 0.2222  plane waves:    7089
 k-point  64 :  -0.4286 0.4286 0.2222  plane waves:    7088
 k-point  65 :  -0.2857 0.4286 0.2222  plane waves:    7093
 k-point  66 :  -0.1429 0.4286 0.2222  plane waves:    7102
 k-point  67 :  -0.4286-0.4286 0.2222  plane waves:    7104
 k-point  68 :  -0.2857-0.4286 0.2222  plane waves:    7083
 k-point  69 :  -0.1429-0.4286 0.2222  plane waves:    7094
 k-point  70 :  -0.2857-0.2857 0.2222  plane waves:    7078
 k-point  71 :  -0.1429-0.2857 0.2222  plane waves:    7093
 k-point  72 :  -0.1429-0.1429 0.2222  plane waves:    7082
 k-point  73 :  -0.0000-0.0000 0.3333  plane waves:    7086
 k-point  74 :   0.1429-0.0000 0.3333  plane waves:    7100
 k-point  75 :   0.2857 0.0000 0.3333  plane waves:    7094
 k-point  76 :   0.4286-0.0000 0.3333  plane waves:    7095
 k-point  77 :  -0.4286-0.0000 0.3333  plane waves:    7098
 k-point  78 :  -0.2857 0.0000 0.3333  plane waves:    7097
 k-point  79 :  -0.1429 0.0000 0.3333  plane waves:    7091
 k-point  80 :   0.1429 0.1429 0.3333  plane waves:    7114
 k-point  81 :   0.2857 0.1429 0.3333  plane waves:    7096
 k-point  82 :   0.4286 0.1429 0.3333  plane waves:    7093
 k-point  83 :  -0.4286 0.1429 0.3333  plane waves:    7096
 k-point  84 :  -0.2857 0.1429 0.3333  plane waves:    7093
 k-point  85 :  -0.1429 0.1429 0.3333  plane waves:    7093
 k-point  86 :   0.2857 0.2857 0.3333  plane waves:    7095
 k-point  87 :   0.4286 0.2857 0.3333  plane waves:    7094
 k-point  88 :  -0.4286 0.2857 0.3333  plane waves:    7085
 k-point  89 :  -0.2857 0.2857 0.3333  plane waves:    7085
 k-point  90 :  -0.1429 0.2857 0.3333  plane waves:    7081
 k-point  91 :   0.4286 0.4286 0.3333  plane waves:    7105
 k-point  92 :  -0.4286 0.4286 0.3333  plane waves:    7097
 k-point  93 :  -0.2857 0.4286 0.3333  plane waves:    7082
 k-point  94 :  -0.1429 0.4286 0.3333  plane waves:    7089
 k-point  95 :  -0.4286-0.4286 0.3333  plane waves:    7083
 k-point  96 :  -0.2857-0.4286 0.3333  plane waves:    7072
 k-point  97 :  -0.1429-0.4286 0.3333  plane waves:    7094
 k-point  98 :  -0.2857-0.2857 0.3333  plane waves:    7079
 k-point  99 :  -0.1429-0.2857 0.3333  plane waves:    7086
 k-point 100 :  -0.1429-0.1429 0.3333  plane waves:    7094
 k-point 101 :   0.0000 0.0000 0.4444  plane waves:    7110
 k-point 102 :   0.1429 0.0000 0.4444  plane waves:    7101
 k-point 103 :   0.2857 0.0000 0.4444  plane waves:    7096
 k-point 104 :   0.4286 0.0000 0.4444  plane waves:    7095
 k-point 105 :  -0.4286 0.0000 0.4444  plane waves:    7115
 k-point 106 :  -0.2857 0.0000 0.4444  plane waves:    7104
 k-point 107 :  -0.1429 0.0000 0.4444  plane waves:    7093
 k-point 108 :   0.1429 0.1429 0.4444  plane waves:    7097
 k-point 109 :   0.2857 0.1429 0.4444  plane waves:    7100
 k-point 110 :   0.4286 0.1429 0.4444  plane waves:    7098
 k-point 111 :  -0.4286 0.1429 0.4444  plane waves:    7101
 k-point 112 :  -0.2857 0.1429 0.4444  plane waves:    7081
 k-point 113 :  -0.1429 0.1429 0.4444  plane waves:    7090
 k-point 114 :   0.2857 0.2857 0.4444  plane waves:    7091
 k-point 115 :   0.4286 0.2857 0.4444  plane waves:    7094
 k-point 116 :  -0.4286 0.2857 0.4444  plane waves:    7093
 k-point 117 :  -0.2857 0.2857 0.4444  plane waves:    7107
 k-point 118 :  -0.1429 0.2857 0.4444  plane waves:    7096
 k-point 119 :   0.4286 0.4286 0.4444  plane waves:    7093
 k-point 120 :  -0.4286 0.4286 0.4444  plane waves:    7067
 k-point 121 :  -0.2857 0.4286 0.4444  plane waves:    7090
 k-point 122 :  -0.1429 0.4286 0.4444  plane waves:    7094
 k-point 123 :  -0.4286-0.4286 0.4444  plane waves:    7072
 k-point 124 :  -0.2857-0.4286 0.4444  plane waves:    7085
 k-point 125 :  -0.1429-0.4286 0.4444  plane waves:    7096
 k-point 126 :  -0.2857-0.2857 0.4444  plane waves:    7082
 k-point 127 :  -0.1429-0.2857 0.4444  plane waves:    7089
 k-point 128 :  -0.1429-0.1429 0.4444  plane waves:    7107

 maximum and minimum number of plane-waves per node :      3587     3499

 maximum number of plane-waves:      7115
 maximum index in each direction: 
   IXMAX=   16   IYMAX=   16   IZMAX=   15
   IXMIN=  -16   IYMIN=  -16   IZMIN=  -16


 parallel 3D FFT for wavefunctions:
    minimum data exchange during FFTs selected (reduces bandwidth)
 parallel 3D FFT for charge:
    minimum data exchange during FFTs selected (reduces bandwidth)


 total amount of memory used by VASP MPI-rank0   572327. kBytes
=======================================================================

   base      :      30000. kBytes
   nonl-proj :     197654. kBytes
   fftplans  :      30094. kBytes
   grid      :      22603. kBytes
   one-center:        124. kBytes
   wavefun   :     291852. kBytes
 
     INWAV:  cpu time    0.0001: real time    0.0001
 Broyden mixing: mesh for mixing (old mesh)
   NGX = 31   NGY = 31   NGZ = 31
  (NGX  =128   NGY  =128   NGZ  =128)
  gives a total of  29791 points

 initial charge density was supplied:
 charge density of overlapping atoms calculated
 number of electron     122.0000000 magnetization 
 keeping initial charge density in first step


--------------------------------------------------------------------------------------------------------


 Maximum index for augmentation-charges        35103 (set IRDMAX)


--------------------------------------------------------------------------------------------------------


 First call to EWALD:  gamma=   0.297
 Maximum number of real-space cells 3x 3x 4
 Maximum number of reciprocal cells 3x 3x 3

    FEWALD:  cpu time    0.2044: real time    0.2058


--------------------------------------- Iteration      1(   1)  ---------------------------------------


    POTLOK:  cpu time    0.3985: real time    0.4022
    SETDIJ:  cpu time    0.8752: real time    0.8825
    TRIAL :  cpu time   99.2052: real time  100.2003
    CORREC:  cpu time    0.0029: real time    0.0029
    --------------------------------------------
      LOOP:  cpu time  100.6649: real time  101.6774

 eigenvalue-minimisations  : 20916
 total energy-change (2. order) : 0.1183244E+04  (-0.8074201E+04)
 number of electron     122.0000000 magnetization 
 augmentation part      122.0000000 magnetization 

 Free energy of the ion-electron system (eV)
  ---------------------------------------------------
  alpha Z        PSCENC =       518.26014275
  Ewald energy   TEWEN  =     -8998.59809847
  -Hartree energ DENC   =     -3385.95462295
  -exchange      EXHF   =         0.00000000
  -V(xc)+E(xc)   XCENC  =       451.33556858
  PAW double counting   =      9666.54758295    -9560.21215315
  entropy T*S    EENTRO =        -0.00100235
  eigenvalues    EBANDS =       351.29950986
  atomic energy  EATOM  =     12140.56680252
  ---------------------------------------------------
  free energy    TOTEN  =      1183.24372974 eV

  energy without entropy =     1183.24473209  energy(sigma->0) =     1183.24423091


--------------------------------------------------------------------------------------------------------




--------------------------------------- Iteration      1(   2)  ---------------------------------------


    TRIAL :  cpu time  109.7273: real time  110.8139
    CORREC:  cpu time    0.0025: real time    0.0025
    --------------------------------------------
      LOOP:  cpu time  109.7330: real time  110.8201

 eigenvalue-minimisations  : 22314
 total energy-change (2. order) :-0.1374801E+04  (-0.1325787E+04)
 number of electron     122.0000000 magnetization 
 augmentation part      122.0000000 magnetization 

 Free energy of the ion-electron system (eV)
  ---------------------------------------------------
  alpha Z        PSCENC =       518.26014275
  Ewald energy   TEWEN  =     -8998.59809847
  -Hartree energ DENC   =     -3385.95462295
  -exchange      EXHF   =         0.00000000
  -V(xc)+E(xc)   XCENC  =       451.33556858
  PAW double counting   =      9666.54758295    -9560.21215315
  entropy T*S    EENTRO =        -0.00151587
  eigenvalues    EBANDS =     -1023.50074301
  atomic energy  EATOM  =     12140.56680252
  ---------------------------------------------------
  free energy    TOTEN  =      -191.55703665 eV

  energy without entropy =     -191.55552078  energy(sigma->0) =     -191.55627871


--------------------------------------------------------------------------------------------------------




--------------------------------------- Iteration      1(   3)  ---------------------------------------


    TRIAL :  cpu time  116.3640: real time  117.5136
    CORREC:  cpu time    0.0027: real time    0.0027
    --------------------------------------------
      LOOP:  cpu time  116.3678: real time  117.5194

 eigenvalue-minimisations  : 25560
 total energy-change (2. order) :-0.5784238E+02  (-0.5548180E+02)
 number of electron     122.0000000 magnetization 
 augmentation part      122.0000000 magnetization 

 Free energy of the ion-electron system (eV)
  ---------------------------------------------------
  alpha Z        PSCENC =       518.26014275
  Ewald energy   TEWEN  =     -8998.59809847
  -Hartree energ DENC   =     -3385.95462295
  -exchange      EXHF   =         0.00000000
  -V(xc)+E(xc)   XCENC  =       451.33556858
  PAW double counting   =      9666.54758295    -9560.21215315
  entropy T*S    EENTRO =        -0.00180471
  eigenvalues    EBANDS =     -1081.34283378
  atomic energy  EATOM  =     12140.56680252
  ---------------------------------------------------
  free energy    TOTEN  =      -249.39941626 eV

  energy without entropy =     -249.39761155  energy(sigma->0) =     -249.39851390


--------------------------------------------------------------------------------------------------------




--------------------------------------- Iteration      1(   4)  ---------------------------------------


    TRIAL :  cpu time  111.0585: real time  112.1793
    CORREC:  cpu time    0.0027: real time    0.0028
    --------------------------------------------
      LOOP:  cpu time  111.0619: real time  112.1848

 eigenvalue-minimisations  : 23580
 total energy-change (2. order) :-0.1137441E+01  (-0.1126110E+01)
 number of electron     122.0000000 magnetization 
 augmentation part      122.0000000 magnetization 

 Free energy of the ion-electron system (eV)
  ---------------------------------------------------
  alpha Z        PSCENC =       518.26014275
  Ewald energy   TEWEN  =     -8998.59809847
  -Hartree energ DENC   =     -3385.95462295
  -exchange      EXHF   =         0.00000000
  -V(xc)+E(xc)   XCENC  =       451.33556858
  PAW double counting   =      9666.54758295    -9560.21215315
  entropy T*S    EENTRO =        -0.00185511
  eigenvalues    EBANDS =     -1082.48022430
  atomic energy  EATOM  =     12140.56680252
  ---------------------------------------------------
  free energy    TOTEN  =      -250.53685718 eV

  energy without entropy =     -250.53500207  energy(sigma->0) =     -250.53592962


--------------------------------------------------------------------------------------------------------




--------------------------------------- Iteration      1(   5)  ---------------------------------------


    TRIAL :  cpu time  112.9054: real time  114.0133
    CORREC:  cpu time    0.0027: real time    0.0027
    CHARGE:  cpu time    6.9359: real time    7.0091
    --------------------------------------------
      LOOP:  cpu time  119.8454: real time  121.0279

 eigenvalue-minimisations  : 24354
 total energy-change (2. order) :-0.2296749E-01  (-0.2292940E-01)
 number of electron     122.0000000 magnetization 
 augmentation part       12.4559512 magnetization 

 Free energy of the ion-electron system (eV)
  ---------------------------------------------------
  alpha Z        PSCENC =       518.26014275
  Ewald energy   TEWEN  =     -8998.59809847
  -Hartree energ DENC   =     -3385.95462295
  -exchange      EXHF   =         0.00000000
  -V(xc)+E(xc)   XCENC  =       451.33556858
  PAW double counting   =      9666.54758295    -9560.21215315
  entropy T*S    EENTRO =        -0.00184959
  eigenvalues    EBANDS =     -1082.50319731
  atomic energy  EATOM  =     12140.56680252
  ---------------------------------------------------
  free energy    TOTEN  =      -250.55982467 eV

  energy without entropy =     -250.55797508  energy(sigma->0) =     -250.55889987


--------------------------------------------------------------------------------------------------------




--------------------------------------- Iteration      1(   6)  ---------------------------------------


    POTLOK:  cpu time    0.3403: real time    0.3426
    SETDIJ:  cpu time    0.8476: real time    0.8555
    TRIAL :  cpu time   89.8823: real time   90.8408
    CORREC:  cpu time   33.1099: real time   33.4098
    CHARGE:  cpu time    8.1835: real time    8.2535
    --------------------------------------------
      LOOP:  cpu time  132.3781: real time  133.7177

 eigenvalue-minimisations  :     0
 total energy-change (2. order) : 0.1289871E+03  (-0.6524858E+02)
 number of electron     122.0000000 magnetization 
 augmentation part       12.7952729 magnetization 

 Free energy of the ion-electron system (eV)
  ---------------------------------------------------
  alpha Z        PSCENC =       518.26014275
  Ewald energy   TEWEN  =     -8998.59809847
  -Hartree energ DENC   =     -3729.91941049
  -exchange      EXHF   =         0.00000000
  -V(xc)+E(xc)   XCENC  =       469.98350101
  PAW double counting   =     22852.70324497   -22767.82035498
  entropy T*S    EENTRO =        -0.00153384
  eigenvalues    EBANDS =      -606.74668428
  atomic energy  EATOM  =     12140.56680252
  ---------------------------------------------------
  free energy    TOTEN  =      -121.57270656 eV

  energy without entropy =     -121.57117271  energy(sigma->0) =     -121.57193964


--------------------------------------------------------------------------------------------------------




--------------------------------------- Iteration      1(   7)  ---------------------------------------


    POTLOK:  cpu time    0.2949: real time    0.2970
    SETDIJ:  cpu time    0.8238: real time    0.8312
    TRIAL :  cpu time  104.0405: real time  104.9660
    CORREC:  cpu time   28.9101: real time   29.1704
    CHARGE:  cpu time    7.3889: real time    7.4618
    --------------------------------------------
      LOOP:  cpu time  141.4593: real time  142.7288

 eigenvalue-minimisations  :     0
 total energy-change (2. order) :-0.7459984E+02  (-0.3313916E+01)
 number of electron     122.0000001 magnetization 
 augmentation part       13.1013838 magnetization 

 Free energy of the ion-electron system (eV)
  ---------------------------------------------------
  alpha Z        PSCENC =       518.26014275
  Ewald energy   TEWEN  =     -8998.59809847
  -Hartree energ DENC   =     -3382.91028567
  -exchange      EXHF   =         0.00000000
  -V(xc)+E(xc)   XCENC  =       469.20680990
  PAW double counting   =     22632.65267902   -22546.28150901
  entropy T*S    EENTRO =        -0.00122229
  eigenvalues    EBANDS =     -1029.06755849
  atomic energy  EATOM  =     12140.56680252
  ---------------------------------------------------
  free energy    TOTEN  =      -196.17255130 eV

  energy without entropy =     -196.17132901  energy(sigma->0) =     -196.17194015


--------------------------------------------------------------------------------------------------------




--------------------------------------- Iteration      1(   8)  ---------------------------------------


    POTLOK:  cpu time    0.3068: real time    0.3089
    SETDIJ:  cpu time    1.3197: real time    1.3299
    TRIAL :  cpu time  105.7427: real time  106.7509
    CORREC:  cpu time   29.5661: real time   29.8300
    CHARGE:  cpu time    7.8527: real time    7.9246
    --------------------------------------------
      LOOP:  cpu time  144.7917: real time  146.1484

 eigenvalue-minimisations  :     0
 total energy-change (2. order) :-0.3311743E+01  (-0.7591848E+00)
 number of electron     122.0000001 magnetization 
 augmentation part       13.1937082 magnetization 

 Free energy of the ion-electron system (eV)
  ---------------------------------------------------
  alpha Z        PSCENC =       518.26014275
  Ewald energy   TEWEN  =     -8998.59809847
  -Hartree energ DENC   =     -3409.81130550
  -exchange      EXHF   =         0.00000000
  -V(xc)+E(xc)   XCENC  =       470.22376664
  PAW double counting   =     21968.28144368   -21878.36689715
  entropy T*S    EENTRO =        -0.00118411
  eigenvalues    EBANDS =     -1010.03892676
  atomic energy  EATOM  =     12140.56680252
  ---------------------------------------------------
  free energy    TOTEN  =      -199.48429458 eV

  energy without entropy =     -199.48311047  energy(sigma->0) =     -199.48370252


--------------------------------------------------------------------------------------------------------




--------------------------------------- Iteration      1(   9)  ---------------------------------------


    POTLOK:  cpu time    0.2944: real time    0.2965
    SETDIJ:  cpu time    0.8603: real time    0.8680
    TRIAL :  cpu time  105.9215: real time  106.8343
    CORREC:  cpu time   28.9846: real time   29.2514
    CHARGE:  cpu time    8.4279: real time    8.5050
    --------------------------------------------
      LOOP:  cpu time  144.4897: real time  145.7571

 eigenvalue-minimisations  :     0
 total energy-change (2. order) :-0.7597211E+00  (-0.2550690E+00)
 number of electron     122.0000001 magnetization 
 augmentation part       13.1980048 magnetization 

 Free energy of the ion-electron system (eV)
  ---------------------------------------------------
  alpha Z        PSCENC =       518.26014275
  Ewald energy   TEWEN  =     -8998.59809847
  -Hartree energ DENC   =     -3398.66004665
  -exchange      EXHF   =         0.00000000
  -V(xc)+E(xc)   XCENC  =       470.38642414
  PAW double counting   =     21829.62183362   -21737.98162423
  entropy T*S    EENTRO =        -0.00092520
  eigenvalues    EBANDS =     -1023.83826522
  atomic energy  EATOM  =     12140.56680252
  ---------------------------------------------------
  free energy    TOTEN  =      -200.24401565 eV

  energy without entropy =     -200.24309044  energy(sigma->0) =     -200.24355305


--------------------------------------------------------------------------------------------------------




--------------------------------------- Iteration      1(  10)  ---------------------------------------


    POTLOK:  cpu time    0.2909: real time    0.2931
    SETDIJ:  cpu time    0.8495: real time    0.8572
    TRIAL :  cpu time  107.0492: real time  107.9775
    CORREC:  cpu time   29.9548: real time   30.2267
    CHARGE:  cpu time    7.6305: real time    7.7007
    --------------------------------------------
      LOOP:  cpu time  145.7785: real time  147.0597

 eigenvalue-minimisations  :     0
 total energy-change (2. order) :-0.2550085E+00  (-0.8990074E-01)
 number of electron     122.0000001 magnetization 
 augmentation part       13.1947634 magnetization 

 Free energy of the ion-electron system (eV)
  ---------------------------------------------------
  alpha Z        PSCENC =       518.26014275
  Ewald energy   TEWEN  =     -8998.59809847
  -Hartree energ DENC   =     -3406.42359068
  -exchange      EXHF   =         0.00000000
  -V(xc)+E(xc)   XCENC  =       470.34534388
  PAW double counting   =     21842.60710102   -21750.32261102
  entropy T*S    EENTRO =        -0.00110599
  eigenvalues    EBANDS =     -1016.93318891
  atomic energy  EATOM  =     12140.56680252
  ---------------------------------------------------
  free energy    TOTEN  =      -200.49902411 eV

  energy without entropy =     -200.49791812  energy(sigma->0) =     -200.49847111


--------------------------------------------------------------------------------------------------------




--------------------------------------- Iteration      1(  11)  ---------------------------------------


    POTLOK:  cpu time    0.2838: real time    0.2859
    SETDIJ:  cpu time    2.8920: real time    2.9127
    TRIAL :  cpu time  105.7617: real time  106.6899
    CORREC:  cpu time   29.2142: real time   29.4833
    CHARGE:  cpu time    8.4510: real time    8.5255
    --------------------------------------------
      LOOP:  cpu time  146.6600: real time  147.9559

 eigenvalue-minimisations  :     0
 total energy-change (2. order) :-0.8976929E-01  (-0.3224556E-01)
 number of electron     122.0000002 magnetization 
 augmentation part       13.1990935 magnetization 

 Free energy of the ion-electron system (eV)
  ---------------------------------------------------
  alpha Z        PSCENC =       518.26014275
  Ewald energy   TEWEN  =     -8998.59809847
  -Hartree energ DENC   =     -3399.11800946
  -exchange      EXHF   =         0.00000000
  -V(xc)+E(xc)   XCENC  =       470.26154984
  PAW double counting   =     21910.05652524   -21817.61839157
  entropy T*S    EENTRO =        -0.00132102
  eigenvalues    EBANDS =     -1024.39820826
  atomic energy  EATOM  =     12140.56680252
  ---------------------------------------------------
  free energy    TOTEN  =      -200.58879340 eV

  energy without entropy =     -200.58747238  energy(sigma->0) =     -200.58813289


--------------------------------------------------------------------------------------------------------




--------------------------------------- Iteration      1(  12)  ---------------------------------------


    POTLOK:  cpu time    0.2887: real time    0.2908
    SETDIJ:  cpu time    0.8596: real time    0.8673
    TRIAL :  cpu time  108.1224: real time  109.0409
    CORREC:  cpu time   31.5218: real time   31.7989
    CHARGE:  cpu time    7.5505: real time    7.6155
    --------------------------------------------
      LOOP:  cpu time  148.3486: real time  149.6195

 eigenvalue-minimisations  :     0
 total energy-change (2. order) :-0.3215285E-01  (-0.1560694E-01)
 number of electron     122.0000002 magnetization 
 augmentation part       13.1991557 magnetization 

 Free energy of the ion-electron system (eV)
  ---------------------------------------------------
  alpha Z        PSCENC =       518.26014275
  Ewald energy   TEWEN  =     -8998.59809847
  -Hartree energ DENC   =     -3402.36931810
  -exchange      EXHF   =         0.00000000
  -V(xc)+E(xc)   XCENC  =       470.27289960
  PAW double counting   =     21952.50339113   -21860.05949446
  entropy T*S    EENTRO =        -0.00135900
  eigenvalues    EBANDS =     -1021.19595021
  atomic energy  EATOM  =     12140.56680252
  ---------------------------------------------------
  free energy    TOTEN  =      -200.62094625 eV

  energy without entropy =     -200.61958725  energy(sigma->0) =     -200.62026675


--------------------------------------------------------------------------------------------------------




--------------------------------------- Iteration      1(  13)  ---------------------------------------


    POTLOK:  cpu time    0.2937: real time    0.2963
    SETDIJ:  cpu time    3.1052: real time    3.1256
    TRIAL :  cpu time  106.2090: real time  107.1191
    CORREC:  cpu time   29.1711: real time   29.4382
    CHARGE:  cpu time    8.4225: real time    8.4977
    --------------------------------------------
      LOOP:  cpu time  148.8518: real time  150.1393

 eigenvalue-minimisations  :     0
 total energy-change (2. order) :-0.1559699E-01  (-0.6733982E-02)
 number of electron     122.0000002 magnetization 
 augmentation part       13.1974182 magnetization 

 Free energy of the ion-electron system (eV)
  ---------------------------------------------------
  alpha Z        PSCENC =       518.26014275
  Ewald energy   TEWEN  =     -8998.59809847
  -Hartree energ DENC   =     -3399.27699905
  -exchange      EXHF   =         0.00000000
  -V(xc)+E(xc)   XCENC  =       470.25200766
  PAW double counting   =     21990.18218865   -21897.81633551
  entropy T*S    EENTRO =        -0.00144288
  eigenvalues    EBANDS =     -1024.20489280
  atomic energy  EATOM  =     12140.56680252
  ---------------------------------------------------
  free energy    TOTEN  =      -200.63654324 eV

  energy without entropy =     -200.63510037  energy(sigma->0) =     -200.63582180


--------------------------------------------------------------------------------------------------------




--------------------------------------- Iteration      1(  14)  ---------------------------------------


    POTLOK:  cpu time    0.2683: real time    0.2701
    SETDIJ:  cpu time    1.9063: real time    1.9191
    TRIAL :  cpu time  106.2587: real time  107.1698
    CORREC:  cpu time   30.9068: real time   31.1826
    CHARGE:  cpu time    9.4985: real time    9.5749
    --------------------------------------------
      LOOP:  cpu time  148.8402: real time  150.1187

 eigenvalue-minimisations  :     0
 total energy-change (2. order) :-0.6715574E-02  (-0.2789368E-02)
 number of electron     122.0000002 magnetization 
 augmentation part       13.1966326 magnetization 

 Free energy of the ion-electron system (eV)
  ---------------------------------------------------
  alpha Z        PSCENC =       518.26014275
  Ewald energy   TEWEN  =     -8998.59809847
  -Hartree energ DENC   =     -3400.55443671
  -exchange      EXHF   =         0.00000000
  -V(xc)+E(xc)   XCENC  =       470.23903840
  PAW double counting   =     22009.97349847   -21917.66437523
  entropy T*S    EENTRO =        -0.00146067
  eigenvalues    EBANDS =     -1022.86438767
  atomic energy  EATOM  =     12140.56680252
  ---------------------------------------------------
  free energy    TOTEN  =      -200.64325881 eV

  energy without entropy =     -200.64179815  energy(sigma->0) =     -200.64252848


--------------------------------------------------------------------------------------------------------




--------------------------------------- Iteration      1(  15)  ---------------------------------------


    POTLOK:  cpu time    0.2905: real time    0.2926
    SETDIJ:  cpu time    0.8221: real time    0.8298
    TRIAL :  cpu time  103.8761: real time  104.7771
    CORREC:  cpu time   32.7411: real time   33.0232
    CHARGE:  cpu time    8.1853: real time    8.2615
    --------------------------------------------
      LOOP:  cpu time  145.9177: real time  147.1869

 eigenvalue-minimisations  :     0
 total energy-change (2. order) :-0.2789610E-02  (-0.1161140E-02)
 number of electron     122.0000002 magnetization 
 augmentation part       13.1975095 magnetization 

 Free energy of the ion-electron system (eV)
  ---------------------------------------------------
  alpha Z        PSCENC =       518.26014275
  Ewald energy   TEWEN  =     -8998.59809847
  -Hartree energ DENC   =     -3399.28213438
  -exchange      EXHF   =         0.00000000
  -V(xc)+E(xc)   XCENC  =       470.22481821
  PAW double counting   =     22018.50402776   -21926.21298760
  entropy T*S    EENTRO =        -0.00151363
  eigenvalues    EBANDS =     -1024.10715853
  atomic energy  EATOM  =     12140.56680252
  ---------------------------------------------------
  free energy    TOTEN  =      -200.64604842 eV

  energy without entropy =     -200.64453480  energy(sigma->0) =     -200.64529161


--------------------------------------------------------------------------------------------------------




--------------------------------------- Iteration      1(  16)  ---------------------------------------


    POTLOK:  cpu time    0.2896: real time    0.2917
    SETDIJ:  cpu time    0.8638: real time    0.8714
    TRIAL :  cpu time  107.6654: real time  108.5662
    CORREC:  cpu time   29.4956: real time   29.7498
    CHARGE:  cpu time    7.4808: real time    7.5477
    --------------------------------------------
      LOOP:  cpu time  145.8002: real time  147.0324

 eigenvalue-minimisations  :     0
 total energy-change (2. order) :-0.1160470E-02  (-0.4685591E-03)
 number of electron     122.0000002 magnetization 
 augmentation part       13.1985228 magnetization 

 Free energy of the ion-electron system (eV)
  ---------------------------------------------------
  alpha Z        PSCENC =       518.26014275
  Ewald energy   TEWEN  =     -8998.59809847
  -Hartree energ DENC   =     -3400.02713591
  -exchange      EXHF   =         0.00000000
  -V(xc)+E(xc)   XCENC  =       470.22699525
  PAW double counting   =     22016.52084473   -21924.21640669
  entropy T*S    EENTRO =        -0.00151647
  eigenvalues    EBANDS =     -1023.37883944
  atomic energy  EATOM  =     12140.56680252
  ---------------------------------------------------
  free energy    TOTEN  =      -200.64720890 eV

  energy without entropy =     -200.64569243  energy(sigma->0) =     -200.64645066


--------------------------------------------------------------------------------------------------------




--------------------------------------- Iteration      1(  17)  ---------------------------------------


    POTLOK:  cpu time    0.2740: real time    0.2756
    SETDIJ:  cpu time    3.2678: real time    3.2889
    TRIAL :  cpu time  101.1901: real time  102.0780
    CORREC:  cpu time   33.2951: real time   33.5781
    CHARGE:  cpu time    7.8930: real time    7.9670
    --------------------------------------------
      LOOP:  cpu time  145.9209: real time  147.1896

 eigenvalue-minimisations  :     0
 total energy-change (2. order) :-0.4685108E-03  (-0.2167127E-03)
 number of electron     122.0000002 magnetization 
 augmentation part       13.1992067 magnetization 

 Free energy of the ion-electron system (eV)
  ---------------------------------------------------
  alpha Z        PSCENC =       518.26014275
  Ewald energy   TEWEN  =     -8998.59809847
  -Hartree energ DENC   =     -3399.64752129
  -exchange      EXHF   =         0.00000000
  -V(xc)+E(xc)   XCENC  =       470.23026349
  PAW double counting   =     22012.06399593   -21919.74297886
  entropy T*S    EENTRO =        -0.00153351
  eigenvalues    EBANDS =     -1023.77876701
  atomic energy  EATOM  =     12140.56680252
  ---------------------------------------------------
  free energy    TOTEN  =      -200.64767741 eV

  energy without entropy =     -200.64614390  energy(sigma->0) =     -200.64691065


--------------------------------------------------------------------------------------------------------




--------------------------------------- Iteration      1(  18)  ---------------------------------------


    POTLOK:  cpu time    0.2898: real time    0.2917
    SETDIJ:  cpu time    0.8764: real time    0.8837
