 vasp.6.2.0 18Jan21 (build Jan 05 2022 15:41:44) complex                        
  
 executed on             LinuxIFC date 2025.05.07  15:32:14
 running on   24 total cores
 distrk:  each k-point on   12 cores,    2 groups
 distr:  one band on NCORE=   2 cores,    6 groups


--------------------------------------------------------------------------------------------------------


 INCAR:
   SYSTEM = routine with relax: pwdword
   ICHARG = 2
   NPAR = 6
   KPAR = 2
   NCORE = 2
   ADDGRID = T
   PREC = Acc
   ENCUT = 600
   METAGGA = R2SCAN
   LASPH = .TRUE.
   LMIXTAU = .FALSE.
   ALGO = A
   EDIFF = 1E-9
   NELM = 100
   NELMIN = 6
   IALGO = 38
   LREAL = F
   NSW = 0
   ISIF = -1
   ISMEAR = 0
   SIGMA = 0.02

 POTCAR:    PAW_PBE B 06Sep2000                   
 POTCAR:    PAW_PBE Mo_sv 02Feb2006               
 POTCAR:    PAW_PBE Si 05Jan2001                  
 -----------------------------------------------------------------------------
|                                                                             |
|           W    W    AA    RRRRR   N    N  II  N    N   GGGG   !!!           |
|           W    W   A  A   R    R  NN   N  II  NN   N  G    G  !!!           |
|           W    W  A    A  R    R  N N  N  II  N N  N  G       !!!           |
|           W WW W  AAAAAA  RRRRR   N  N N  II  N  N N  G  GGG   !            |
|           WW  WW  A    A  R   R   N   NN  II  N   NN  G    G                |
|           W    W  A    A  R    R  N    N  II  N    N   GGGG   !!!           |
|                                                                             |
|     For optimal performance we recommend to set                             |
|       NCORE = 2 up to number-of-cores-per-socket                            |
|     NCORE specifies how many cores store one orbital (NPAR=cpu/NCORE).      |
|     This setting can greatly improve the performance of VASP for DFT.       |
|     The default, NCORE=1 might be grossly inefficient on modern             |
|     multi-core architectures or massively parallel machines. Do your        |
|     own testing! More info at https://www.vasp.at/wiki/index.php/NCORE      |
|     Unfortunately you need to use the default for GW and RPA                |
|     calculations (for HF NCORE is supported but not extensively tested      |
|     yet).                                                                   |
|                                                                             |
 -----------------------------------------------------------------------------

 POTCAR:    PAW_PBE B 06Sep2000                   
   VRHFIN =B: s2p1                                                                                  
   LEXCH  = PE                                                                                      
   EATOM  =    71.1703 eV,    5.2309 Ry                                                             
                                                                                                    
   TITEL  = PAW_PBE B 06Sep2000                                                                     
   LULTRA =        F    use ultrasoft PP ?                                                          
   IUNSCR =        1    unscreen: 0-lin 1-nonlin 2-no                                               
   RPACOR =    1.200    partial core radius                                                         
   POMASS =   10.811; ZVAL   =    3.000    mass and valenz                                          
   RCORE  =    1.700    outmost cutoff radius                                                       
   RWIGS  =    1.710; RWIGS  =    0.905    wigner-seitz radius (au A)                               
   ENMAX  =  318.614; ENMIN  =  238.960 eV                                                          
   ICORE  =        2    local potential                                                             
   LCOR   =        T    correct aug charges                                                         
   LPAW   =        T    paw PP                                                                      
   EAUG   =  535.514                                                                                
   DEXC   =    0.000                                                                                
   RMAX   =    1.732    core radius for proj-oper                                                   
   RAUG   =    1.300    factor for augmentation sphere                                              
   RDEP   =    1.757    radius for radial grids                                                     
   RDEPT  =    1.436    core radius for aug-charge                                                  
                                                                                                    
   Atomic configuration                                                                             
    4 entries                                                                                       
     n  l   j            E        occ.                                                              
     1  0  0.50      -180.5896   2.0000                                                             
     2  0  0.50        -9.4431   2.0000                                                             
     2  1  0.50        -3.6068   1.0000                                                             
     3  2  1.50        -4.0817   0.0000                                                             
   Description                                                                                      
     l       E           TYP  RCUT    TYP  RCUT                                                     
     0     -9.4430752     23  1.500                                                                 
     0      0.8675899     23  1.500                                                                 
     1     -3.6067955     23  1.700                                                                 
     1      6.1086146     23  1.700                                                                 
     2     -4.0817478      7  1.700                                                                 
  local pseudopotential read in
  partial core-charges read in
  partial kinetic energy density read in
  atomic valenz-charges read in
  non local Contribution for L=           0  read in
    real space projection operators read in
  non local Contribution for L=           0  read in
    real space projection operators read in
  non local Contribution for L=           1  read in
    real space projection operators read in
  non local Contribution for L=           1  read in
    real space projection operators read in
    PAW grid and wavefunctions read in
 
   number of l-projection  operators is LMAX  =           4
   number of lm-projection operators is LMMAX =           8
 
 POTCAR:    PAW_PBE Mo_sv 02Feb2006               
   VRHFIN =Mo: 4p5s4d                                                                               
   LEXCH  = PE                                                                                      
   EATOM  =  1862.2866 eV,  136.8742 Ry                                                             
                                                                                                    
   TITEL  = PAW_PBE Mo_sv 02Feb2006                                                                 
   LULTRA =        F    use ultrasoft PP ?                                                          
   IUNSCR =        1    unscreen: 0-lin 1-nonlin 2-no                                               
   RPACOR =    2.200    partial core radius                                                         
   POMASS =   95.940; ZVAL   =   14.000    mass and valenz                                          
   RCORE  =    2.500    outmost cutoff radius                                                       
   RWIGS  =    2.750; RWIGS  =    1.455    wigner-seitz radius (au A)                               
   ENMAX  =  242.676; ENMIN  =  182.007 eV                                                          
   ICORE  =        3    local potential                                                             
   LCOR   =        T    correct aug charges                                                         
   LPAW   =        T    paw PP                                                                      
   EAUG   =  446.014                                                                                
   DEXC   =    0.000                                                                                
   RMAX   =    2.563    core radius for proj-oper                                                   
   RAUG   =    1.300    factor for augmentation sphere                                              
   RDEP   =    2.641    radius for radial grids                                                     
   RDEPT  =    2.031    core radius for aug-charge                                                  
                                                                                                    
   Atomic configuration                                                                             
   11 entries                                                                                       
     n  l   j            E        occ.                                                              
     1  0  0.50    -19819.0341   2.0000                                                             
     2  0  0.50     -2799.0127   2.0000                                                             
     2  1  1.50     -2502.0276   6.0000                                                             
     3  0  0.50      -476.4449   2.0000                                                             
     3  1  1.50      -379.1496   6.0000                                                             
     3  2  2.50      -220.9367  10.0000                                                             
     4  0  0.50       -64.3378   2.0000                                                             
     5  0  0.50        -4.0862   1.0000                                                             
     4  1  1.50       -38.4773   6.0000                                                             
     4  2  2.50        -3.7535   5.0000                                                             
     4  3  2.50        -1.3606   0.0000                                                             
   Description                                                                                      
     l       E           TYP  RCUT    TYP  RCUT                                                     
     0    -64.3377829     23  2.100                                                                 
     0     -4.0861640     23  2.400                                                                 
     1    -38.4772993     23  2.100                                                                 
     1     13.6058260     23  2.100                                                                 
     2     -3.7534941     23  2.400                                                                 
     2     -5.1140767     23  2.400                                                                 
     3     -4.0817478     23  2.500                                                                 
  local pseudopotential read in
  partial core-charges read in
  partial kinetic energy density read in
  atomic valenz-charges read in
  non local Contribution for L=           0  read in
    real space projection operators read in
  non local Contribution for L=           0  read in
    real space projection operators read in
  non local Contribution for L=           1  read in
    real space projection operators read in
  non local Contribution for L=           1  read in
    real space projection operators read in
  non local Contribution for L=           2  read in
    real space projection operators read in
  non local Contribution for L=           2  read in
    real space projection operators read in
    PAW grid and wavefunctions read in
 
   number of l-projection  operators is LMAX  =           6
   number of lm-projection operators is LMMAX =          18
 
 POTCAR:    PAW_PBE Si 05Jan2001                  
   VRHFIN =Si: s2p2                                                                                 
   LEXCH  = PE                                                                                      
   EATOM  =   103.0669 eV,    7.5752 Ry                                                             
                                                                                                    
   TITEL  = PAW_PBE Si 05Jan2001                                                                    
   LULTRA =        F    use ultrasoft PP ?                                                          
   IUNSCR =        1    unscreen: 0-lin 1-nonlin 2-no                                               
   RPACOR =    1.500    partial core radius                                                         
   POMASS =   28.085; ZVAL   =    4.000    mass and valenz                                          
   RCORE  =    1.900    outmost cutoff radius                                                       
   RWIGS  =    2.480; RWIGS  =    1.312    wigner-seitz radius (au A)                               
   ENMAX  =  245.345; ENMIN  =  184.009 eV                                                          
   ICORE  =        2    local potential                                                             
   LCOR   =        T    correct aug charges                                                         
   LPAW   =        T    paw PP                                                                      
   EAUG   =  322.069                                                                                
   DEXC   =    0.000                                                                                
   RMAX   =    1.950    core radius for proj-oper                                                   
   RAUG   =    1.300    factor for augmentation sphere                                              
   RDEP   =    1.993    radius for radial grids                                                     
   RDEPT  =    1.837    core radius for aug-charge                                                  
                                                                                                    
   Atomic configuration                                                                             
    6 entries                                                                                       
     n  l   j            E        occ.                                                              
     1  0  0.50     -1785.8828   2.0000                                                             
     2  0  0.50      -139.4969   2.0000                                                             
     2  1  1.50       -95.5546   6.0000                                                             
     3  0  0.50       -10.8127   2.0000                                                             
     3  1  0.50        -4.0811   2.0000                                                             
     3  2  1.50        -4.0817   0.0000                                                             
   Description                                                                                      
     l       E           TYP  RCUT    TYP  RCUT                                                     
     0    -10.8127223     23  1.900                                                                 
     0     -7.6451159     23  1.900                                                                 
     1     -4.0811372     23  1.900                                                                 
     1      2.4879257     23  1.900                                                                 
     2     -4.0817478      7  1.900                                                                 
  local pseudopotential read in
  partial core-charges read in
  partial kinetic energy density read in
  atomic valenz-charges read in
  non local Contribution for L=           0  read in
    real space projection operators read in
  non local Contribution for L=           0  read in
    real space projection operators read in
  non local Contribution for L=           1  read in
    real space projection operators read in
  non local Contribution for L=           1  read in
    real space projection operators read in
    PAW grid and wavefunctions read in
 
   number of l-projection  operators is LMAX  =           4
   number of lm-projection operators is LMMAX =           8
 
  PAW_PBE B 06Sep2000                   :
 energy of atom  1       EATOM=  -71.1703
 kinetic energy error for atom=    0.0007 (will be added to EATOM!!)
  PAW_PBE Mo_sv 02Feb2006               :
 energy of atom  2       EATOM=-1862.2866
 kinetic energy error for atom=    0.0041 (will be added to EATOM!!)
  PAW_PBE Si 05Jan2001                  :
 energy of atom  3       EATOM= -103.0669
 kinetic energy error for atom=    0.0003 (will be added to EATOM!!)
 
 
 POSCAR: EA50
  positions in direct lattice
  No initial velocities read in

 METAGGA = R2SCA    LMAXTAU =  6    LMIXTAU =  F

 exchange correlation table for  LEXCH =        8
   RHO(1)=    0.500       N(1)  =     2000
   RHO(2)=  100.500       N(2)  =     4000
 


--------------------------------------------------------------------------------------------------------


 ion  position               nearest neighbor table
   1  0.114  0.614  0.175-   2 1.62   4 2.08   8 2.08  13 2.22  12 2.35  10 2.35  14 2.46
   2  0.886  0.386  0.825-   1 1.62   3 2.08   7 2.08  14 2.22  12 2.35  10 2.35  13 2.46
   3  0.614  0.439  0.500-   4 1.62   6 2.08   2 2.08  11 2.22  10 2.35  12 2.35   9 2.46
   4  0.386  0.561  0.500-   3 1.62   5 2.08   1 2.08   9 2.22  12 2.35  10 2.35  11 2.46
   5  0.439  0.939  0.825-   6 1.62   4 2.08   8 2.08  14 2.22  12 2.35  10 2.35  13 2.46
   6  0.561  0.061  0.175-   5 1.62   3 2.08   7 2.08  13 2.22  12 2.35  10 2.35  14 2.46
   7  0.939  0.114  0.500-   8 1.62   6 2.08   2 2.08   9 2.22  12 2.35  10 2.35  11 2.46
   8  0.061  0.886  0.500-   7 1.62   5 2.08   1 2.08  11 2.22  10 2.35  12 2.35   9 2.46
   9  0.283  0.217  0.500-   4 2.22   7 2.22  16 2.23  15 2.23   3 2.46   8 2.46  12 3.12  12 3.12
                            10 3.12  10 3.12  14 3.15  13 3.15  14 3.15  13 3.15
  10  0.250  0.250  0.000-  15 2.18  16 2.18   3 2.35   8 2.35   7 2.35   4 2.35   1 2.35   2 2.35
                             5 2.35   6 2.35  14 3.12  13 3.12  11 3.12  11 3.12   9 3.12   9 3.12
  11  0.717  0.783  0.500-   3 2.22   8 2.22  15 2.23  16 2.23   4 2.46   7 2.46  10 3.12  10 3.12
                            12 3.12  12 3.12  14 3.15  13 3.15  14 3.15  13 3.15
  12  0.750  0.750  0.000-  15 2.18  16 2.18   7 2.35   4 2.35   3 2.35   8 2.35   1 2.35   2 2.35
                             5 2.35   6 2.35  14 3.12  13 3.12   9 3.12   9 3.12  11 3.12  11 3.12
  13  0.217  0.717  0.934-   6 2.22   1 2.22  15 2.23  16 2.23   5 2.46   2 2.46  12 3.12  10 3.12
                            10 3.12  12 3.12   9 3.15  11 3.15   9 3.15  11 3.15
  14  0.783  0.283  0.066-   5 2.22   2 2.22  15 2.23  16 2.23   6 2.46   1 2.46  12 3.12  10 3.12
                            12 3.12  10 3.12  11 3.15   9 3.15  11 3.15   9 3.15
  15  0.000  0.000  0.000-  10 2.18  12 2.18   9 2.23  11 2.23  14 2.23  13 2.23
  16  0.500  0.500  0.000-  10 2.18  12 2.18  11 2.23   9 2.23  14 2.23  13 2.23
 
  LATTYP: Found a body centered tetragonal cell.
 ALAT       =     6.2459010037
 C/A-ratio  =     1.3965834620
  
  Lattice vectors:
  
 A1 = (   5.3977909679,   0.0000000000,  -3.0646277224)
 A2 = (  -1.8295167465,   5.0782886691,  -3.0646277224)
 A3 = (   0.0000000000,   0.0000000000,   6.2071000000)


Analysis of symmetry for initial positions (statically):
=====================================================================
 Subroutine PRICEL returns:
 Original cell was already a primitive cell.
 

 Routine SETGRP: Setting up the symmetry group for a 
 body centered tetragonal supercell.


 Subroutine GETGRP returns: Found  4 space group operations
 (whereof  2 operations were pure point group operations)
 out of a pool of 16 trial point group operations.


The static configuration has the point symmetry S_2 .
 The point group associated with its full space group is C_2h.


Analysis of symmetry for dynamics (positions and initial velocities):
=====================================================================
 Subroutine PRICEL returns:
 Original cell was already a primitive cell.
 

 Routine SETGRP: Setting up the symmetry group for a 
 body centered tetragonal supercell.


 Subroutine GETGRP returns: Found  4 space group operations
 (whereof  2 operations were pure point group operations)
 out of a pool of 16 trial point group operations.


The dynamic configuration has the point symmetry S_2 .
 The point group associated with its full space group is C_2h.


 Subroutine INISYM returns: Found  4 space group operations
 (whereof  2 operations are pure point group operations),
 and found     1 'primitive' translations


----------------------------------------------------------------------------------------

                                     Primitive cell                                     

  volume of cell :     170.1462

  direct lattice vectors                    reciprocal lattice vectors
     5.397790968  0.000000000 -3.064627722     0.185260972  0.066742573  0.000000000
    -1.829516747  5.078288669 -3.064627722     0.000000000  0.196916730  0.000000000
     0.000000000  0.000000000  6.207100000     0.091468787  0.130176348  0.161105830

  length of vectors
     6.207100000  6.207100000  6.207100000     0.196916730  0.196916730  0.226423296

  position of ions in fractional coordinates (direct lattice)
     0.114300000  0.614300000  0.175360000
     0.885700000  0.385700000  0.824640000
     0.614300000  0.438940000  0.500000000
     0.385700000  0.561060000  0.500000000
     0.438940000  0.938940000  0.824640000
     0.561060000  0.061060000  0.175360000
     0.938940000  0.114300000  0.500000000
     0.061060000  0.885700000  0.500000000
     0.282760000  0.217240000  0.500000000
     0.250000000  0.250000000  0.000000000
     0.717240000  0.782760000  0.500000000
     0.750000000  0.750000000  0.000000000
     0.217240000  0.717240000  0.934470000
     0.782760000  0.282760000  0.065530000
     0.000000000  0.000000000  0.000000000
     0.500000000  0.500000000  0.000000000

  ion indices of the primitive-cell ions
   primitive index   ion index
                 1           1
                 2           2
                 3           3
                 4           4
                 5           5
                 6           6
                 7           7
                 8           8
                 9           9
                10          10
                11          11
                12          12
                13          13
                14          14
                15          15
                16          16

----------------------------------------------------------------------------------------

 
 
 KPOINTS: EA                                      

Automatic generation of k-mesh.
 Grid dimensions read from file:
 generate k-points for:    7    7    8

 Generating k-lattice:

  Cartesian coordinates                     Fractional coordinates (reciprocal lattice)
     0.026465853  0.009534653  0.000000000     0.142857143  0.000000000  0.000000000
     0.000000000  0.028130961  0.000000000     0.000000000  0.142857143  0.000000000
     0.011433598  0.016272043  0.020138229     0.000000000  0.000000000  0.125000000

  Length of vectors
     0.028130961  0.028130961  0.028302912

  Shift w.r.t. Gamma in fractional coordinates (k-lattice)
     0.000000000  0.000000000  0.000000000

 -----------------------------------------------------------------------------
|                                                                             |
|           W    W    AA    RRRRR   N    N  II  N    N   GGGG   !!!           |
|           W    W   A  A   R    R  NN   N  II  NN   N  G    G  !!!           |
|           W    W  A    A  R    R  N N  N  II  N N  N  G       !!!           |
|           W WW W  AAAAAA  RRRRR   N  N N  II  N  N N  G  GGG   !            |
|           WW  WW  A    A  R   R   N   NN  II  N   NN  G    G                |
|           W    W  A    A  R    R  N    N  II  N    N   GGGG   !!!           |
|                                                                             |
|     Your reciprocal lattice and k-lattice belong to different lattice       |
|     classes:                                                                |
|                                                                             |
|        The reciprocal lattice is body-centered tetragonal,                  |
|        whereas your k-lattice is base-centered monoclinic.                  |
|                                                                             |
|     Results are often still useful ...                                      |
|                                                                             |
 -----------------------------------------------------------------------------

 WARNING: IBZKPT: internal override: KBLOWUP is changed to .FALSE.
      ... skipping the blow-up phase ...

 
 Subroutine IBZKPT returns following result:
 ===========================================
 
 Found    116 irreducible k-points:
 
 Following reciprocal coordinates:
            Coordinates               Weight
  0.000000  0.000000  0.000000      1.000000
  0.142857  0.000000  0.000000      4.000000
  0.285714  0.000000  0.000000      4.000000
  0.428571  0.000000  0.000000      4.000000
  0.142857  0.142857  0.000000      2.000000
  0.285714  0.142857  0.000000      4.000000
  0.428571  0.142857  0.000000      4.000000
 -0.428571  0.142857  0.000000      4.000000
 -0.285714  0.142857  0.000000      4.000000
 -0.142857  0.142857  0.000000      2.000000
  0.285714  0.285714  0.000000      2.000000
  0.428571  0.285714  0.000000      4.000000
 -0.428571  0.285714  0.000000      4.000000
 -0.285714  0.285714  0.000000      2.000000
  0.428571  0.428571  0.000000      2.000000
 -0.428571  0.428571  0.000000      2.000000
 -0.000000 -0.000000  0.125000      2.000000
  0.142857 -0.000000  0.125000      4.000000
  0.285714 -0.000000  0.125000      4.000000
  0.428571  0.000000  0.125000      4.000000
 -0.428571  0.000000  0.125000      4.000000
 -0.285714  0.000000  0.125000      4.000000
 -0.142857  0.000000  0.125000      4.000000
  0.142857  0.142857  0.125000      2.000000
  0.285714  0.142857  0.125000      4.000000
  0.428571  0.142857  0.125000      4.000000
 -0.428571  0.142857  0.125000      4.000000
 -0.285714  0.142857  0.125000      4.000000
 -0.142857  0.142857  0.125000      4.000000
  0.285714  0.285714  0.125000      2.000000
  0.428571  0.285714  0.125000      4.000000
 -0.428571  0.285714  0.125000      4.000000
 -0.285714  0.285714  0.125000      4.000000
 -0.142857  0.285714  0.125000      4.000000
  0.428571  0.428571  0.125000      2.000000
 -0.428571  0.428571  0.125000      4.000000
 -0.285714  0.428571  0.125000      4.000000
 -0.142857  0.428571  0.125000      4.000000
 -0.428571 -0.428571  0.125000      2.000000
 -0.285714 -0.428571  0.125000      4.000000
 -0.142857 -0.428571  0.125000      4.000000
 -0.285714 -0.285714  0.125000      2.000000
 -0.142857 -0.285714  0.125000      4.000000
 -0.142857 -0.142857  0.125000      2.000000
 -0.000000 -0.000000  0.250000      2.000000
  0.142857 -0.000000  0.250000      4.000000
  0.285714 -0.000000  0.250000      4.000000
  0.428571  0.000000  0.250000      4.000000
 -0.428571 -0.000000  0.250000      4.000000
 -0.285714  0.000000  0.250000      4.000000
 -0.142857  0.000000  0.250000      4.000000
  0.142857  0.142857  0.250000      2.000000
  0.285714  0.142857  0.250000      4.000000
  0.428571  0.142857  0.250000      4.000000
 -0.428571  0.142857  0.250000      4.000000
 -0.285714  0.142857  0.250000      4.000000
 -0.142857  0.142857  0.250000      4.000000
  0.285714  0.285714  0.250000      2.000000
  0.428571  0.285714  0.250000      4.000000
 -0.428571  0.285714  0.250000      4.000000
 -0.285714  0.285714  0.250000      4.000000
 -0.142857  0.285714  0.250000      4.000000
  0.428571  0.428571  0.250000      2.000000
 -0.428571  0.428571  0.250000      4.000000
 -0.285714  0.428571  0.250000      4.000000
 -0.142857  0.428571  0.250000      4.000000
 -0.428571 -0.428571  0.250000      2.000000
 -0.285714 -0.428571  0.250000      4.000000
 -0.142857 -0.428571  0.250000      4.000000
 -0.285714 -0.285714  0.250000      2.000000
 -0.142857 -0.285714  0.250000      4.000000
 -0.142857 -0.142857  0.250000      2.000000
 -0.000000  0.000000  0.375000      2.000000
  0.142857  0.000000  0.375000      4.000000
  0.285714 -0.000000  0.375000      4.000000
  0.428571 -0.000000  0.375000      4.000000
 -0.428571 -0.000000  0.375000      4.000000
 -0.285714 -0.000000  0.375000      4.000000
 -0.142857 -0.000000  0.375000      4.000000
  0.142857  0.142857  0.375000      2.000000
  0.285714  0.142857  0.375000      4.000000
  0.428571  0.142857  0.375000      4.000000
 -0.428571  0.142857  0.375000      4.000000
 -0.285714  0.142857  0.375000      4.000000
 -0.142857  0.142857  0.375000      4.000000
  0.285714  0.285714  0.375000      2.000000
  0.428571  0.285714  0.375000      4.000000
 -0.428571  0.285714  0.375000      4.000000
 -0.285714  0.285714  0.375000      4.000000
 -0.142857  0.285714  0.375000      4.000000
  0.428571  0.428571  0.375000      2.000000
 -0.428571  0.428571  0.375000      4.000000
 -0.285714  0.428571  0.375000      4.000000
 -0.142857  0.428571  0.375000      4.000000
 -0.428571 -0.428571  0.375000      2.000000
 -0.285714 -0.428571  0.375000      4.000000
 -0.142857 -0.428571  0.375000      4.000000
 -0.285714 -0.285714  0.375000      2.000000
 -0.142857 -0.285714  0.375000      4.000000
 -0.142857 -0.142857  0.375000      2.000000
 -0.000000 -0.000000  0.500000      1.000000
  0.142857  0.000000  0.500000      4.000000
  0.285714 -0.000000  0.500000      4.000000
  0.428571  0.000000  0.500000      4.000000
  0.142857  0.142857  0.500000      2.000000
  0.285714  0.142857  0.500000      4.000000
  0.428571  0.142857  0.500000      4.000000
 -0.428571  0.142857  0.500000      4.000000
 -0.285714  0.142857  0.500000      4.000000
 -0.142857  0.142857  0.500000      2.000000
  0.285714  0.285714  0.500000      2.000000
  0.428571  0.285714  0.500000      4.000000
 -0.428571  0.285714  0.500000      4.000000
 -0.285714  0.285714  0.500000      2.000000
  0.428571  0.428571  0.500000      2.000000
 -0.428571  0.428571  0.500000      2.000000
 
 Following cartesian coordinates:
            Coordinates               Weight
  0.000000  0.000000  0.000000      1.000000
  0.026466  0.009535  0.000000      4.000000
  0.052932  0.019069  0.000000      4.000000
  0.079398  0.028604  0.000000      4.000000
  0.026466  0.037666  0.000000      2.000000
  0.052932  0.047200  0.000000      4.000000
  0.079398  0.056735  0.000000      4.000000
 -0.079398 -0.000473  0.000000      4.000000
 -0.052932  0.009062  0.000000      4.000000
 -0.026466  0.018596  0.000000      2.000000
  0.052932  0.075331  0.000000      2.000000
  0.079398  0.084866  0.000000      4.000000
 -0.079398  0.027658  0.000000      4.000000
 -0.052932  0.037193  0.000000      2.000000
  0.079398  0.112997  0.000000      2.000000
 -0.079398  0.055789  0.000000      2.000000
  0.011434  0.016272  0.020138      2.000000
  0.037899  0.025807  0.020138      4.000000
  0.064365  0.035341  0.020138      4.000000
  0.090831  0.044876  0.020138      4.000000
 -0.067964 -0.012332  0.020138      4.000000
 -0.041498 -0.002797  0.020138      4.000000
 -0.015032  0.006737  0.020138      4.000000
  0.037899  0.053938  0.020138      2.000000
  0.064365  0.063472  0.020138      4.000000
  0.090831  0.073007  0.020138      4.000000
 -0.067964  0.015799  0.020138      4.000000
 -0.041498  0.025334  0.020138      4.000000
 -0.015032  0.034868  0.020138      4.000000
  0.064365  0.091603  0.020138      2.000000
  0.090831  0.101138  0.020138      4.000000
 -0.067964  0.043930  0.020138      4.000000
 -0.041498  0.053465  0.020138      4.000000
 -0.015032  0.062999  0.020138      4.000000
  0.090831  0.129269  0.020138      2.000000
 -0.067964  0.072061  0.020138      4.000000
 -0.041498  0.081596  0.020138      4.000000
 -0.015032  0.091130  0.020138      4.000000
 -0.067964 -0.096725  0.020138      2.000000
 -0.041498 -0.087190  0.020138      4.000000
 -0.015032 -0.077655  0.020138      4.000000
 -0.041498 -0.059059  0.020138      2.000000
 -0.015032 -0.049525  0.020138      4.000000
 -0.015032 -0.021394  0.020138      2.000000
  0.022867  0.032544  0.040276      2.000000
  0.049333  0.042079  0.040276      4.000000
  0.075799  0.051613  0.040276      4.000000
  0.102265  0.061148  0.040276      4.000000
 -0.056530  0.003940  0.040276      4.000000
 -0.030065  0.013475  0.040276      4.000000
 -0.003599  0.023009  0.040276      4.000000
  0.049333  0.070210  0.040276      2.000000
  0.075799  0.079744  0.040276      4.000000
  0.102265  0.089279  0.040276      4.000000
 -0.056530  0.032071  0.040276      4.000000
 -0.030065  0.041606  0.040276      4.000000
 -0.003599  0.051140  0.040276      4.000000
  0.075799  0.107875  0.040276      2.000000
  0.102265  0.117410  0.040276      4.000000
 -0.056530  0.060202  0.040276      4.000000
 -0.030065  0.069737  0.040276      4.000000
 -0.003599  0.079271  0.040276      4.000000
  0.102265  0.145541  0.040276      2.000000
 -0.056530  0.088333  0.040276      4.000000
 -0.030065  0.097868  0.040276      4.000000
 -0.003599  0.107402  0.040276      4.000000
 -0.056530 -0.080453  0.040276      2.000000
 -0.030065 -0.070918  0.040276      4.000000
 -0.003599 -0.061383  0.040276      4.000000
 -0.030065 -0.042787  0.040276      2.000000
 -0.003599 -0.033252  0.040276      4.000000
 -0.003599 -0.005122  0.040276      2.000000
  0.034301  0.048816  0.060415      2.000000
  0.060767  0.058351  0.060415      4.000000
  0.087233  0.067885  0.060415      4.000000
  0.113698  0.077420  0.060415      4.000000
 -0.045097  0.020212  0.060415      4.000000
 -0.018631  0.029747  0.060415      4.000000
  0.007835  0.039281  0.060415      4.000000
  0.060767  0.086482  0.060415      2.000000
  0.087233  0.096016  0.060415      4.000000
  0.113698  0.105551  0.060415      4.000000
 -0.045097  0.048343  0.060415      4.000000
 -0.018631  0.057878  0.060415      4.000000
  0.007835  0.067412  0.060415      4.000000
  0.087233  0.124147  0.060415      2.000000
  0.113698  0.133682  0.060415      4.000000
 -0.045097  0.076474  0.060415      4.000000
 -0.018631  0.086009  0.060415      4.000000
  0.007835  0.095543  0.060415      4.000000
  0.113698  0.161813  0.060415      2.000000
 -0.045097  0.104605  0.060415      4.000000
 -0.018631  0.114140  0.060415      4.000000
  0.007835  0.123674  0.060415      4.000000
 -0.045097 -0.064181  0.060415      2.000000
 -0.018631 -0.054646  0.060415      4.000000
  0.007835 -0.045111  0.060415      4.000000
 -0.018631 -0.026515  0.060415      2.000000
  0.007835 -0.016980  0.060415      4.000000
  0.007835  0.011151  0.060415      2.000000
  0.045734  0.065088  0.080553      1.000000
  0.072200  0.074623  0.080553      4.000000
  0.098666  0.084157  0.080553      4.000000
  0.125132  0.093692  0.080553      4.000000
  0.072200  0.102754  0.080553      2.000000
  0.098666  0.112288  0.080553      4.000000
  0.125132  0.121823  0.080553      4.000000
 -0.033663  0.064615  0.080553      4.000000
 -0.007197  0.074150  0.080553      4.000000
  0.019269  0.083684  0.080553      2.000000
  0.098666  0.140419  0.080553      2.000000
  0.125132  0.149954  0.080553      4.000000
 -0.033663  0.092746  0.080553      4.000000
 -0.007197  0.102281  0.080553      2.000000
  0.125132  0.178085  0.080553      2.000000
 -0.033663  0.120877  0.080553      2.000000
 


--------------------------------------------------------------------------------------------------------




 Dimension of arrays:
   k-points           NKPTS =    116   k-points in BZ     NKDIM =    116   number of bands    NBANDS=     72
   number of dos      NEDOS =    301   number of ions     NIONS =     16
   non local maximal  LDIM  =      6   non local SUM 2l+1 LMDIM =     18
   total plane-waves  NPLWV = 125000
   max r-space proj   IRMAX =      1   max aug-charges    IRDMAX= 257193
   dimension x,y,z NGX =    50 NGY =   50 NGZ =   50
   dimension x,y,z NGXF=   100 NGYF=  100 NGZF=  100
   support grid    NGXF=   200 NGYF=  200 NGZF=  200
   ions per type =               8   6   2
   NGX,Y,Z   is equivalent  to a cutoff of  13.39, 13.39, 13.39 a.u.
   NGXF,Y,Z  is equivalent  to a cutoff of  26.78, 26.78, 26.78 a.u.

 SYSTEM =  routine with relax: pwdword             
 POSCAR =  EA50                                    

 Startparameter for this run:
   NWRITE =      2    write-flag & timer
   PREC   = acc       normal or accurate (medium, high low for compatibility)
   ISTART =      0    job   : 0-new  1-cont  2-samecut
   ICHARG =      2    charge: 1-file 2-atom 10-const
   ISPIN  =      1    spin polarized calculation?
   LNONCOLLINEAR =      F non collinear calculations
   LSORBIT =      F    spin-orbit coupling
   INIWAV =      1    electr: 0-lowe 1-rand  2-diag
   LASPH  =      T    aspherical Exc in radial PAW
   METAGGA=      F    non-selfconsistent MetaGGA calc.

 Electronic Relaxation 1
   ENCUT  =  600.0 eV  44.10 Ry    6.64 a.u.  12.40 12.40 12.40*2*pi/ulx,y,z
   ENINI  =  600.0     initial cutoff
   ENAUG  =  535.5 eV  augmentation charge cutoff
   NELM   =    100;   NELMIN=  6; NELMDL= -5     # of ELM steps 
   EDIFF  = 0.1E-08   stopping-criterion for ELM
   LREAL  =      F    real-space projection
   NLSPLINE    = F    spline interpolate recip. space projectors
   LCOMPAT=      F    compatible to vasp.4.4
   GGA_COMPAT  = T    GGA compatible to vasp.4.4-vasp.4.6
   LMAXPAW     = -100 max onsite density
   LMAXMIX     =    2 max onsite mixed and CHGCAR
   VOSKOWN=      0    Vosko Wilk Nusair interpolation
   ROPT   =    0.00000   0.00000   0.00000
 Ionic relaxation
   EDIFFG = 0.1E-07   stopping-criterion for IOM
   NSW    =      0    number of steps for IOM
   NBLOCK =      1;   KBLOCK =      1    inner block; outer block 
   IBRION =     -1    ionic relax: 0-MD 1-quasi-New 2-CG
   NFREE  =      0    steps in history (QN), initial steepest desc. (CG)
   ISIF   =     -1    stress and relaxation
   IWAVPR =     10    prediction:  0-non 1-charg 2-wave 3-comb
   ISYM   =      2    0-nonsym 1-usesym 2-fastsym
   LCORR  =      T    Harris-Foulkes like correction to forces

   POTIM  = 0.5000    time-step for ionic-motion
   TEIN   =    0.0    initial temperature
   TEBEG  =    0.0;   TEEND  =   0.0 temperature during run
   SMASS  =  -3.00    Nose mass-parameter (am)
   estimated Nose-frequenzy (Omega)   =  0.10E-29 period in steps = 0.13E+47 mass=  -0.880E-27a.u.
   SCALEE = 1.0000    scale energy and forces
   NPACO  =    256;   APACO  = 16.0  distance and # of slots for P.C.
   PSTRESS=    0.0 pullay stress

  Mass of Ions in am
   POMASS =  10.81 95.94 28.09
  Ionic Valenz
   ZVAL   =   3.00 14.00  4.00
  Atomic Wigner-Seitz radii
   RWIGS  =  -1.00 -1.00 -1.00
  virtual crystal weights 
   VCA    =   1.00  1.00  1.00
   NELECT =     116.0000    total number of electrons
   NUPDOWN=      -1.0000    fix difference up-down

 DOS related values:
   EMIN   =  10.00;   EMAX   =-10.00  energy-range for DOS
   EFERMI =   0.00
   ISMEAR =     0;   SIGMA  =   0.02  broadening in eV -4-tet -1-fermi 0-gaus

 Electronic relaxation 2 (details)
   IALGO  =     58    algorithm
   LDIAG  =      T    sub-space diagonalisation (order eigenvalues)
   LSUBROT=      F    optimize rotation matrix (better conditioning)
   TURBO    =      0    0=normal 1=particle mesh
   IRESTART =      0    0=no restart 2=restart with 2 vectors
   NREBOOT  =      0    no. of reboots
   NMIN     =      0    reboot dimension
   EREF     =   0.00    reference energy to select bands
   IMIX   =      4    mixing-type and parameters
     AMIX     =   0.40;   BMIX     =  1.00
     AMIX_MAG =   1.60;   BMIX_MAG =  1.00
     AMIN     =   0.10
     WC   =   100.;   INIMIX=   1;  MIXPRE=   1;  MAXMIX= -45

 Intra band minimization:
   WEIMIN = 0.0000     energy-eigenvalue tresh-hold
   EBREAK =  0.35E-11  absolut break condition
   DEPER  =   0.30     relativ break condition  

   TIME   =   0.40     timestep for ELM

  volume/ion in A,a.u.               =      10.63        71.76
  Fermi-wavevector in a.u.,A,eV,Ry     =   1.440854  2.722820 28.246530  2.076061
  Thomas-Fermi vector in A             =   2.559552
 
 Write flags
   LWAVE        =      T    write WAVECAR
   LDOWNSAMPLE  =      F    k-point downsampling of WAVECAR
   LCHARG       =      T    write CHGCAR
   LVTOT        =      F    write LOCPOT, total local potential
   LVHAR        =      F    write LOCPOT, Hartree potential only
   LELF         =      F    write electronic localiz. function (ELF)
   LORBIT       =      0    0 simple, 1 ext, 2 COOP (PROOUT), +10 PAW based schemes


 Dipole corrections
   LMONO  =      F    monopole corrections only (constant potential shift)
   LDIPOL =      F    correct potential (dipole corrections)
   IDIPOL =      0    1-x, 2-y, 3-z, 4-all directions 
   EPSILON=  1.0000000 bulk dielectric constant

 Exchange correlation treatment:
   GGA     =    --    GGA type
   LEXCH   =     8    internal setting for exchange type
   VOSKOWN=      0    Vosko Wilk Nusair interpolation
   LHFCALC =     F    Hartree Fock is set to
   LHFONE  =     F    Hartree Fock one center treatment
   AEXX    =    0.0000 exact exchange contribution

 Linear response parameters
   LEPSILON=     F    determine dielectric tensor
   LRPA    =     F    only Hartree local field effects (RPA)
   LNABLA  =     F    use nabla operator in PAW spheres
   LVEL    =     F    velocity operator in full k-point grid
   LINTERFAST=   F  fast interpolation
   KINTER  =     0    interpolate to denser k-point grid
   CSHIFT  =0.1000    complex shift for real part using Kramers Kronig
   OMEGAMAX=  -1.0    maximum frequency
   DEG_THRESHOLD= 0.2000000E-02 threshold for treating states as degnerate
   RTIME   =   -0.100 relaxation time in fs
  (WPLASMAI=    0.000 imaginary part of plasma frequency in eV, 0.658/RTIME)
   DFIELD  = 0.0000000 0.0000000 0.0000000 field for delta impulse in time
 
 Orbital magnetization related:
   ORBITALMAG=     F  switch on orbital magnetization
   LCHIMAG   =     F  perturbation theory with respect to B field
   DQ        =  0.001000  dq finite difference perturbation B field
   LLRAUG    =     F  two centre corrections for induced B field



--------------------------------------------------------------------------------------------------------


 Static calculation
 charge density and potential will be updated during run
 non-spin polarized calculation
 Conjugate gradient for all bands (Freysoldt, et al. PRB 79, 241103 (2009))
 preconditioned conjugated gradient                                        
 perform sub-space diagonalisation
    before iterative eigenvector-optimisation
 modified Broyden-mixing scheme, WC =      100.0
 initial mixing is a Kerker type mixing with AMIX =  0.4000 and BMIX =      1.0000
 Hartree-type preconditioning will be used
 using additional bands           14
 reciprocal scheme for non local part
 use partial core corrections
 no Harris-corrections to forces 
 use gradient corrections 
 use of overlap-Matrix (Vanderbilt PP)
 Gauss-broadening in eV      SIGMA  =   0.02


--------------------------------------------------------------------------------------------------------


  energy-cutoff  :      600.00
  volume of cell :      170.15
      direct lattice vectors                 reciprocal lattice vectors
     5.397790968  0.000000000 -3.064627722     0.185260972  0.066742573  0.000000000
    -1.829516747  5.078288669 -3.064627722     0.000000000  0.196916730  0.000000000
     0.000000000  0.000000000  6.207100000     0.091468787  0.130176348  0.161105830

  length of vectors
     6.207100000  6.207100000  6.207100000     0.196916730  0.196916730  0.226423296


 
 k-points in units of 2pi/SCALE and weight: EA                                      
   0.00000000  0.00000000  0.00000000       0.003
   0.02646585  0.00953465  0.00000000       0.010
   0.05293171  0.01906931  0.00000000       0.010
   0.07939756  0.02860396  0.00000000       0.010
   0.02646585  0.03766561  0.00000000       0.005
   0.05293171  0.04720027  0.00000000       0.010
   0.07939756  0.05673492  0.00000000       0.010
  -0.07939756 -0.00047300  0.00000000       0.010
  -0.05293171  0.00906166  0.00000000       0.010
  -0.02646585  0.01859631  0.00000000       0.005
   0.05293171  0.07533123  0.00000000       0.005
   0.07939756  0.08486588  0.00000000       0.010
  -0.07939756  0.02765796  0.00000000       0.010
  -0.05293171  0.03719262  0.00000000       0.005
   0.07939756  0.11299684  0.00000000       0.005
  -0.07939756  0.05578892  0.00000000       0.005
   0.01143360  0.01627204  0.02013823       0.005
   0.03789945  0.02580670  0.02013823       0.010
   0.06436530  0.03534135  0.02013823       0.010
   0.09083116  0.04487600  0.02013823       0.010
  -0.06796396 -0.01233192  0.02013823       0.010
  -0.04149811 -0.00279726  0.02013823       0.010
  -0.01503225  0.00673739  0.02013823       0.010
   0.03789945  0.05393766  0.02013823       0.005
   0.06436530  0.06347231  0.02013823       0.010
   0.09083116  0.07300696  0.02013823       0.010
  -0.06796396  0.01579905  0.02013823       0.010
  -0.04149811  0.02533370  0.02013823       0.010
  -0.01503225  0.03486835  0.02013823       0.010
   0.06436530  0.09160327  0.02013823       0.005
   0.09083116  0.10113793  0.02013823       0.010
  -0.06796396  0.04393001  0.02013823       0.010
  -0.04149811  0.05346466  0.02013823       0.010
  -0.01503225  0.06299931  0.02013823       0.010
   0.09083116  0.12926889  0.02013823       0.005
  -0.06796396  0.07206097  0.02013823       0.010
  -0.04149811  0.08159562  0.02013823       0.010
  -0.01503225  0.09113027  0.02013823       0.010
  -0.06796396 -0.09672480  0.02013823       0.005
  -0.04149811 -0.08719015  0.02013823       0.010
  -0.01503225 -0.07765549  0.02013823       0.010
  -0.04149811 -0.05905919  0.02013823       0.005
  -0.01503225 -0.04952453  0.02013823       0.010
  -0.01503225 -0.02139357  0.02013823       0.005
   0.02286720  0.03254409  0.04027646       0.005
   0.04933305  0.04207874  0.04027646       0.010
   0.07579890  0.05161339  0.04027646       0.010
   0.10226476  0.06114805  0.04027646       0.010
  -0.05653036  0.00394013  0.04027646       0.010
  -0.03006451  0.01347478  0.04027646       0.010
  -0.00359866  0.02300943  0.04027646       0.010
   0.04933305  0.07020970  0.04027646       0.005
   0.07579890  0.07974435  0.04027646       0.010
   0.10226476  0.08927901  0.04027646       0.010
  -0.05653036  0.03207109  0.04027646       0.010
  -0.03006451  0.04160574  0.04027646       0.010
  -0.00359866  0.05114040  0.04027646       0.010
   0.07579890  0.10787532  0.04027646       0.005
   0.10226476  0.11740997  0.04027646       0.010
  -0.05653036  0.06020205  0.04027646       0.010
  -0.03006451  0.06973670  0.04027646       0.010
  -0.00359866  0.07927136  0.04027646       0.010
   0.10226476  0.14554093  0.04027646       0.005
  -0.05653036  0.08833301  0.04027646       0.010
  -0.03006451  0.09786766  0.04027646       0.010
  -0.00359866  0.10740232  0.04027646       0.010
  -0.05653036 -0.08045276  0.04027646       0.005
  -0.03006451 -0.07091810  0.04027646       0.010
  -0.00359866 -0.06138345  0.04027646       0.010
  -0.03006451 -0.04278714  0.04027646       0.005
  -0.00359866 -0.03325249  0.04027646       0.010
  -0.00359866 -0.00512153  0.04027646       0.005
   0.03430080  0.04881613  0.06041469       0.005
   0.06076665  0.05835078  0.06041469       0.010
   0.08723250  0.06788544  0.06041469       0.010
   0.11369835  0.07742009  0.06041469       0.010
  -0.04509676  0.02021217  0.06041469       0.010
  -0.01863091  0.02974682  0.06041469       0.010
   0.00783494  0.03928148  0.06041469       0.010
   0.06076665  0.08648175  0.06041469       0.005
   0.08723250  0.09601640  0.06041469       0.010
   0.11369835  0.10555105  0.06041469       0.010
  -0.04509676  0.04834313  0.06041469       0.010
  -0.01863091  0.05787779  0.06041469       0.010
   0.00783494  0.06741244  0.06041469       0.010
   0.08723250  0.12414736  0.06041469       0.005
   0.11369835  0.13368201  0.06041469       0.010
  -0.04509676  0.07647409  0.06041469       0.010
  -0.01863091  0.08600875  0.06041469       0.010
   0.00783494  0.09554340  0.06041469       0.010
   0.11369835  0.16181297  0.06041469       0.005
  -0.04509676  0.10460506  0.06041469       0.010
  -0.01863091  0.11413971  0.06041469       0.010
   0.00783494  0.12367436  0.06041469       0.010
  -0.04509676 -0.06418071  0.06041469       0.005
  -0.01863091 -0.05464606  0.06041469       0.010
   0.00783494 -0.04511141  0.06041469       0.010
  -0.01863091 -0.02651510  0.06041469       0.005
   0.00783494 -0.01698045  0.06041469       0.010
   0.00783494  0.01115052  0.06041469       0.005
   0.04573439  0.06508817  0.08055292       0.003
   0.07220025  0.07462283  0.08055292       0.010
   0.09866610  0.08415748  0.08055292       0.010
   0.12513195  0.09369213  0.08055292       0.010
   0.07220025  0.10275379  0.08055292       0.005
   0.09866610  0.11228844  0.08055292       0.010
   0.12513195  0.12182310  0.08055292       0.010
  -0.03366317  0.06461518  0.08055292       0.010
  -0.00719731  0.07414983  0.08055292       0.010
   0.01926854  0.08368448  0.08055292       0.005
   0.09866610  0.14041940  0.08055292       0.005
   0.12513195  0.14995406  0.08055292       0.010
  -0.03366317  0.09274614  0.08055292       0.010
  -0.00719731  0.10228079  0.08055292       0.005
   0.12513195  0.17808502  0.08055292       0.005
  -0.03366317  0.12087710  0.08055292       0.005
 
 k-points in reciprocal lattice and weights: EA                                      
   0.00000000  0.00000000  0.00000000       0.003
   0.14285714  0.00000000  0.00000000       0.010
   0.28571429  0.00000000  0.00000000       0.010
   0.42857143  0.00000000  0.00000000       0.010
   0.14285714  0.14285714  0.00000000       0.005
   0.28571429  0.14285714  0.00000000       0.010
   0.42857143  0.14285714  0.00000000       0.010
  -0.42857143  0.14285714  0.00000000       0.010
  -0.28571429  0.14285714  0.00000000       0.010
  -0.14285714  0.14285714  0.00000000       0.005
   0.28571429  0.28571429  0.00000000       0.005
   0.42857143  0.28571429  0.00000000       0.010
  -0.42857143  0.28571429  0.00000000       0.010
  -0.28571429  0.28571429  0.00000000       0.005
   0.42857143  0.42857143  0.00000000       0.005
  -0.42857143  0.42857143  0.00000000       0.005
  -0.00000000 -0.00000000  0.12500000       0.005
   0.14285714 -0.00000000  0.12500000       0.010
   0.28571429 -0.00000000  0.12500000       0.010
   0.42857143  0.00000000  0.12500000       0.010
  -0.42857143  0.00000000  0.12500000       0.010
  -0.28571429  0.00000000  0.12500000       0.010
  -0.14285714  0.00000000  0.12500000       0.010
   0.14285714  0.14285714  0.12500000       0.005
   0.28571429  0.14285714  0.12500000       0.010
   0.42857143  0.14285714  0.12500000       0.010
  -0.42857143  0.14285714  0.12500000       0.010
  -0.28571429  0.14285714  0.12500000       0.010
  -0.14285714  0.14285714  0.12500000       0.010
   0.28571429  0.28571429  0.12500000       0.005
   0.42857143  0.28571429  0.12500000       0.010
  -0.42857143  0.28571429  0.12500000       0.010
  -0.28571429  0.28571429  0.12500000       0.010
  -0.14285714  0.28571429  0.12500000       0.010
   0.42857143  0.42857143  0.12500000       0.005
  -0.42857143  0.42857143  0.12500000       0.010
  -0.28571429  0.42857143  0.12500000       0.010
  -0.14285714  0.42857143  0.12500000       0.010
  -0.42857143 -0.42857143  0.12500000       0.005
  -0.28571429 -0.42857143  0.12500000       0.010
  -0.14285714 -0.42857143  0.12500000       0.010
  -0.28571429 -0.28571429  0.12500000       0.005
  -0.14285714 -0.28571429  0.12500000       0.010
  -0.14285714 -0.14285714  0.12500000       0.005
  -0.00000000 -0.00000000  0.25000000       0.005
   0.14285714 -0.00000000  0.25000000       0.010
   0.28571429 -0.00000000  0.25000000       0.010
   0.42857143  0.00000000  0.25000000       0.010
  -0.42857143 -0.00000000  0.25000000       0.010
  -0.28571429  0.00000000  0.25000000       0.010
  -0.14285714  0.00000000  0.25000000       0.010
   0.14285714  0.14285714  0.25000000       0.005
   0.28571429  0.14285714  0.25000000       0.010
   0.42857143  0.14285714  0.25000000       0.010
  -0.42857143  0.14285714  0.25000000       0.010
  -0.28571429  0.14285714  0.25000000       0.010
  -0.14285714  0.14285714  0.25000000       0.010
   0.28571429  0.28571429  0.25000000       0.005
   0.42857143  0.28571429  0.25000000       0.010
  -0.42857143  0.28571429  0.25000000       0.010
  -0.28571429  0.28571429  0.25000000       0.010
  -0.14285714  0.28571429  0.25000000       0.010
   0.42857143  0.42857143  0.25000000       0.005
  -0.42857143  0.42857143  0.25000000       0.010
  -0.28571429  0.42857143  0.25000000       0.010
  -0.14285714  0.42857143  0.25000000       0.010
  -0.42857143 -0.42857143  0.25000000       0.005
  -0.28571429 -0.42857143  0.25000000       0.010
  -0.14285714 -0.42857143  0.25000000       0.010
  -0.28571429 -0.28571429  0.25000000       0.005
  -0.14285714 -0.28571429  0.25000000       0.010
  -0.14285714 -0.14285714  0.25000000       0.005
  -0.00000000  0.00000000  0.37500000       0.005
   0.14285714  0.00000000  0.37500000       0.010
   0.28571429 -0.00000000  0.37500000       0.010
   0.42857143 -0.00000000  0.37500000       0.010
  -0.42857143 -0.00000000  0.37500000       0.010
  -0.28571429 -0.00000000  0.37500000       0.010
  -0.14285714 -0.00000000  0.37500000       0.010
   0.14285714  0.14285714  0.37500000       0.005
   0.28571429  0.14285714  0.37500000       0.010
   0.42857143  0.14285714  0.37500000       0.010
  -0.42857143  0.14285714  0.37500000       0.010
  -0.28571429  0.14285714  0.37500000       0.010
  -0.14285714  0.14285714  0.37500000       0.010
   0.28571429  0.28571429  0.37500000       0.005
   0.42857143  0.28571429  0.37500000       0.010
  -0.42857143  0.28571429  0.37500000       0.010
  -0.28571429  0.28571429  0.37500000       0.010
  -0.14285714  0.28571429  0.37500000       0.010
   0.42857143  0.42857143  0.37500000       0.005
  -0.42857143  0.42857143  0.37500000       0.010
  -0.28571429  0.42857143  0.37500000       0.010
  -0.14285714  0.42857143  0.37500000       0.010
  -0.42857143 -0.42857143  0.37500000       0.005
  -0.28571429 -0.42857143  0.37500000       0.010
  -0.14285714 -0.42857143  0.37500000       0.010
  -0.28571429 -0.28571429  0.37500000       0.005
  -0.14285714 -0.28571429  0.37500000       0.010
  -0.14285714 -0.14285714  0.37500000       0.005
  -0.00000000 -0.00000000  0.50000000       0.003
   0.14285714  0.00000000  0.50000000       0.010
   0.28571429 -0.00000000  0.50000000       0.010
   0.42857143  0.00000000  0.50000000       0.010
   0.14285714  0.14285714  0.50000000       0.005
   0.28571429  0.14285714  0.50000000       0.010
   0.42857143  0.14285714  0.50000000       0.010
  -0.42857143  0.14285714  0.50000000       0.010
  -0.28571429  0.14285714  0.50000000       0.010
  -0.14285714  0.14285714  0.50000000       0.005
   0.28571429  0.28571429  0.50000000       0.005
   0.42857143  0.28571429  0.50000000       0.010
  -0.42857143  0.28571429  0.50000000       0.010
  -0.28571429  0.28571429  0.50000000       0.005
   0.42857143  0.42857143  0.50000000       0.005
  -0.42857143  0.42857143  0.50000000       0.005
 
 position of ions in fractional coordinates (direct lattice) 
   0.11430000  0.61430000  0.17536000
   0.88570000  0.38570000  0.82464000
   0.61430000  0.43894000  0.50000000
   0.38570000  0.56106000  0.50000000
   0.43894000  0.93894000  0.82464000
   0.56106000  0.06106000  0.17536000
   0.93894000  0.11430000  0.50000000
   0.06106000  0.88570000  0.50000000
   0.28276000  0.21724000  0.50000000
   0.25000000  0.25000000  0.00000000
   0.71724000  0.78276000  0.50000000
   0.75000000  0.75000000  0.00000000
   0.21724000  0.71724000  0.93447000
   0.78276000  0.28276000  0.06553000
   0.00000000  0.00000000  0.00000000
   0.50000000  0.50000000  0.00000000
 
 position of ions in cartesian coordinates  (Angst):
  -0.50690463  3.11959273 -1.14441070
   4.07517885  1.95869594  1.22225526
   2.51281491  2.22906403 -0.12423850
   1.05545931  2.84922464  0.20208306
   0.65149991  4.76820836  0.89593370
   2.91677431  0.31008031 -0.81808914
   4.85908809  0.58044839 -0.12423850
  -1.29081387  4.49784027  0.20208306
   1.12883516  1.10320743  1.57123614
   0.89206856  1.26957217 -1.53231386
   2.43943907  3.97508124 -1.49339158
   2.67620567  3.80871650 -4.59694158
  -0.13958648  3.64235177  2.93651542
   3.70786070  1.43593690 -2.85867087
   0.00000000  0.00000000  0.00000000
   1.78413711  2.53914433 -3.06462772
 


--------------------------------------------------------------------------------------------------------


 k-point   1 :   0.0000 0.0000 0.0000  plane waves:    5713
 k-point   2 :   0.1429 0.0000 0.0000  plane waves:    5715
 k-point   3 :   0.2857 0.0000 0.0000  plane waves:    5694
 k-point   4 :   0.4286 0.0000 0.0000  plane waves:    5653
 k-point   5 :   0.1429 0.1429 0.0000  plane waves:    5697
 k-point   6 :   0.2857 0.1429 0.0000  plane waves:    5665
 k-point   7 :   0.4286 0.1429 0.0000  plane waves:    5670
 k-point   8 :  -0.4286 0.1429 0.0000  plane waves:    5676
 k-point   9 :  -0.2857 0.1429 0.0000  plane waves:    5684
 k-point  10 :  -0.1429 0.1429 0.0000  plane waves:    5719
 k-point  11 :   0.2857 0.2857 0.0000  plane waves:    5695
 k-point  12 :   0.4286 0.2857 0.0000  plane waves:    5664
 k-point  13 :  -0.4286 0.2857 0.0000  plane waves:    5663
 k-point  14 :  -0.2857 0.2857 0.0000  plane waves:    5680
 k-point  15 :   0.4286 0.4286 0.0000  plane waves:    5688
 k-point  16 :  -0.4286 0.4286 0.0000  plane waves:    5662
 k-point  17 :  -0.0000-0.0000 0.1250  plane waves:    5717
 k-point  18 :   0.1429-0.0000 0.1250  plane waves:    5693
 k-point  19 :   0.2857-0.0000 0.1250  plane waves:    5681
 k-point  20 :   0.4286 0.0000 0.1250  plane waves:    5667
 k-point  21 :  -0.4286 0.0000 0.1250  plane waves:    5678
 k-point  22 :  -0.2857 0.0000 0.1250  plane waves:    5693
 k-point  23 :  -0.1429 0.0000 0.1250  plane waves:    5721
 k-point  24 :   0.1429 0.1429 0.1250  plane waves:    5678
 k-point  25 :   0.2857 0.1429 0.1250  plane waves:    5677
 k-point  26 :   0.4286 0.1429 0.1250  plane waves:    5674
 k-point  27 :  -0.4286 0.1429 0.1250  plane waves:    5672
 k-point  28 :  -0.2857 0.1429 0.1250  plane waves:    5687
 k-point  29 :  -0.1429 0.1429 0.1250  plane waves:    5695
 k-point  30 :   0.2857 0.2857 0.1250  plane waves:    5670
 k-point  31 :   0.4286 0.2857 0.1250  plane waves:    5669
 k-point  32 :  -0.4286 0.2857 0.1250  plane waves:    5661
 k-point  33 :  -0.2857 0.2857 0.1250  plane waves:    5684
 k-point  34 :  -0.1429 0.2857 0.1250  plane waves:    5678
 k-point  35 :   0.4286 0.4286 0.1250  plane waves:    5680
 k-point  36 :  -0.4286 0.4286 0.1250  plane waves:    5667
 k-point  37 :  -0.2857 0.4286 0.1250  plane waves:    5670
 k-point  38 :  -0.1429 0.4286 0.1250  plane waves:    5674
 k-point  39 :  -0.4286-0.4286 0.1250  plane waves:    5680
 k-point  40 :  -0.2857-0.4286 0.1250  plane waves:    5684
 k-point  41 :  -0.1429-0.4286 0.1250  plane waves:    5678
 k-point  42 :  -0.2857-0.2857 0.1250  plane waves:    5669
 k-point  43 :  -0.1429-0.2857 0.1250  plane waves:    5684
 k-point  44 :  -0.1429-0.1429 0.1250  plane waves:    5689
 k-point  45 :  -0.0000-0.0000 0.2500  plane waves:    5688
 k-point  46 :   0.1429-0.0000 0.2500  plane waves:    5665
 k-point  47 :   0.2857-0.0000 0.2500  plane waves:    5664
 k-point  48 :   0.4286 0.0000 0.2500  plane waves:    5689
 k-point  49 :  -0.4286-0.0000 0.2500  plane waves:    5676
 k-point  50 :  -0.2857 0.0000 0.2500  plane waves:    5698
 k-point  51 :  -0.1429 0.0000 0.2500  plane waves:    5705
 k-point  52 :   0.1429 0.1429 0.2500  plane waves:    5671
 k-point  53 :   0.2857 0.1429 0.2500  plane waves:    5666
 k-point  54 :   0.4286 0.1429 0.2500  plane waves:    5670
 k-point  55 :  -0.4286 0.1429 0.2500  plane waves:    5677
 k-point  56 :  -0.2857 0.1429 0.2500  plane waves:    5679
 k-point  57 :  -0.1429 0.1429 0.2500  plane waves:    5689
 k-point  58 :   0.2857 0.2857 0.2500  plane waves:    5673
 k-point  59 :   0.4286 0.2857 0.2500  plane waves:    5670
 k-point  60 :  -0.4286 0.2857 0.2500  plane waves:    5665
 k-point  61 :  -0.2857 0.2857 0.2500  plane waves:    5676
 k-point  62 :  -0.1429 0.2857 0.2500  plane waves:    5672
 k-point  63 :   0.4286 0.4286 0.2500  plane waves:    5680
 k-point  64 :  -0.4286 0.4286 0.2500  plane waves:    5676
 k-point  65 :  -0.2857 0.4286 0.2500  plane waves:    5676
 k-point  66 :  -0.1429 0.4286 0.2500  plane waves:    5685
 k-point  67 :  -0.4286-0.4286 0.2500  plane waves:    5670
 k-point  68 :  -0.2857-0.4286 0.2500  plane waves:    5683
 k-point  69 :  -0.1429-0.4286 0.2500  plane waves:    5670
 k-point  70 :  -0.2857-0.2857 0.2500  plane waves:    5683
 k-point  71 :  -0.1429-0.2857 0.2500  plane waves:    5683
 k-point  72 :  -0.1429-0.1429 0.2500  plane waves:    5703
 k-point  73 :  -0.0000 0.0000 0.3750  plane waves:    5664
 k-point  74 :   0.1429 0.0000 0.3750  plane waves:    5679
 k-point  75 :   0.2857-0.0000 0.3750  plane waves:    5679
 k-point  76 :   0.4286-0.0000 0.3750  plane waves:    5674
 k-point  77 :  -0.4286-0.0000 0.3750  plane waves:    5676
 k-point  78 :  -0.2857-0.0000 0.3750  plane waves:    5679
 k-point  79 :  -0.1429-0.0000 0.3750  plane waves:    5670
 k-point  80 :   0.1429 0.1429 0.3750  plane waves:    5670
 k-point  81 :   0.2857 0.1429 0.3750  plane waves:    5670
 k-point  82 :   0.4286 0.1429 0.3750  plane waves:    5673
 k-point  83 :  -0.4286 0.1429 0.3750  plane waves:    5667
 k-point  84 :  -0.2857 0.1429 0.3750  plane waves:    5679
 k-point  85 :  -0.1429 0.1429 0.3750  plane waves:    5667
 k-point  86 :   0.2857 0.2857 0.3750  plane waves:    5676
 k-point  87 :   0.4286 0.2857 0.3750  plane waves:    5672
 k-point  88 :  -0.4286 0.2857 0.3750  plane waves:    5675
 k-point  89 :  -0.2857 0.2857 0.3750  plane waves:    5678
 k-point  90 :  -0.1429 0.2857 0.3750  plane waves:    5678
 k-point  91 :   0.4286 0.4286 0.3750  plane waves:    5671
 k-point  92 :  -0.4286 0.4286 0.3750  plane waves:    5675
 k-point  93 :  -0.2857 0.4286 0.3750  plane waves:    5676
 k-point  94 :  -0.1429 0.4286 0.3750  plane waves:    5681
 k-point  95 :  -0.4286-0.4286 0.3750  plane waves:    5672
 k-point  96 :  -0.2857-0.4286 0.3750  plane waves:    5676
 k-point  97 :  -0.1429-0.4286 0.3750  plane waves:    5671
 k-point  98 :  -0.2857-0.2857 0.3750  plane waves:    5679
 k-point  99 :  -0.1429-0.2857 0.3750  plane waves:    5675
 k-point 100 :  -0.1429-0.1429 0.3750  plane waves:    5683
 k-point 101 :  -0.0000-0.0000 0.5000  plane waves:    5674
 k-point 102 :   0.1429 0.0000 0.5000  plane waves:    5671
 k-point 103 :   0.2857-0.0000 0.5000  plane waves:    5666
 k-point 104 :   0.4286 0.0000 0.5000  plane waves:    5667
 k-point 105 :   0.1429 0.1429 0.5000  plane waves:    5670
 k-point 106 :   0.2857 0.1429 0.5000  plane waves:    5683
 k-point 107 :   0.4286 0.1429 0.5000  plane waves:    5670
 k-point 108 :  -0.4286 0.1429 0.5000  plane waves:    5677
 k-point 109 :  -0.2857 0.1429 0.5000  plane waves:    5674
 k-point 110 :  -0.1429 0.1429 0.5000  plane waves:    5690
 k-point 111 :   0.2857 0.2857 0.5000  plane waves:    5677
 k-point 112 :   0.4286 0.2857 0.5000  plane waves:    5683
 k-point 113 :  -0.4286 0.2857 0.5000  plane waves:    5675
 k-point 114 :  -0.2857 0.2857 0.5000  plane waves:    5658
 k-point 115 :   0.4286 0.4286 0.5000  plane waves:    5678
 k-point 116 :  -0.4286 0.4286 0.5000  plane waves:    5666

 maximum and minimum number of plane-waves per node :      2870     2823

 maximum number of plane-waves:      5721
 maximum index in each direction: 
   IXMAX=   12   IYMAX=   12   IZMAX=   12
   IXMIN=  -12   IYMIN=  -12   IZMIN=  -12


 parallel 3D FFT for wavefunctions:
    minimum data exchange during FFTs selected (reduces bandwidth)
 parallel 3D FFT for charge:
    minimum data exchange during FFTs selected (reduces bandwidth)


 total amount of memory used by VASP MPI-rank0   396687. kBytes
=======================================================================

   base      :      30000. kBytes
   nonl-proj :     143851. kBytes
   fftplans  :      14374. kBytes
   grid      :      11100. kBytes
   one-center:        124. kBytes
   wavefun   :     197238. kBytes
 
     INWAV:  cpu time    0.0001: real time    0.0001
 Broyden mixing: mesh for mixing (old mesh)
   NGX = 25   NGY = 25   NGZ = 25
  (NGX  =100   NGY  =100   NGZ  =100)
  gives a total of  15625 points

 initial charge density was supplied:
 charge density of overlapping atoms calculated
 number of electron     116.0000000 magnetization 
 keeping initial charge density in first step


--------------------------------------------------------------------------------------------------------


 Maximum index for augmentation-charges        20963 (set IRDMAX)


--------------------------------------------------------------------------------------------------------


 First call to EWALD:  gamma=   0.320
 Maximum number of real-space cells 3x 3x 3
 Maximum number of reciprocal cells 3x 3x 3

    FEWALD:  cpu time    0.0027: real time    0.0027


--------------------------------------- Iteration      1(   1)  ---------------------------------------


    POTLOK:  cpu time    0.1955: real time    0.1971
    SETDIJ:  cpu time    0.6339: real time    0.6384
    TRIAL :  cpu time   23.6003: real time   23.8367
    CORREC:  cpu time    0.0026: real time    0.0026
    --------------------------------------------
      LOOP:  cpu time   24.5135: real time   24.7598

 eigenvalue-minimisations  : 16752
 total energy-change (2. order) : 0.1166617E+04  (-0.7818237E+04)
 number of electron     116.0000000 magnetization 
 augmentation part      116.0000000 magnetization 

 Free energy of the ion-electron system (eV)
  ---------------------------------------------------
  alpha Z        PSCENC =       675.00669222
  Ewald energy   TEWEN  =     -9918.49972124
  -Hartree energ DENC   =     -2481.67254582
  -exchange      EXHF   =         0.00000000
  -V(xc)+E(xc)   XCENC  =       524.94503889
  PAW double counting   =      9417.46121024    -9379.23717351
  entropy T*S    EENTRO =        -0.00082447
  eigenvalues    EBANDS =       379.42883050
  atomic energy  EATOM  =     11949.18504973
  ---------------------------------------------------
  free energy    TOTEN  =      1166.61655655 eV

  energy without entropy =     1166.61738102  energy(sigma->0) =     1166.61696879


--------------------------------------------------------------------------------------------------------




--------------------------------------- Iteration      1(   2)  ---------------------------------------


    TRIAL :  cpu time   25.4572: real time   25.7039
    CORREC:  cpu time    0.0023: real time    0.0023
    --------------------------------------------
      LOOP:  cpu time   25.4621: real time   25.7092

 eigenvalue-minimisations  : 18168
 total energy-change (2. order) :-0.1371583E+04  (-0.1332255E+04)
 number of electron     116.0000000 magnetization 
 augmentation part      116.0000000 magnetization 

 Free energy of the ion-electron system (eV)
  ---------------------------------------------------
  alpha Z        PSCENC =       675.00669222
  Ewald energy   TEWEN  =     -9918.49972124
  -Hartree energ DENC   =     -2481.67254582
  -exchange      EXHF   =         0.00000000
  -V(xc)+E(xc)   XCENC  =       524.94503889
  PAW double counting   =      9417.46121024    -9379.23717351
  entropy T*S    EENTRO =        -0.00125552
  eigenvalues    EBANDS =      -992.15383265
  atomic energy  EATOM  =     11949.18504973
  ---------------------------------------------------
  free energy    TOTEN  =      -204.96653765 eV

  energy without entropy =     -204.96528213  energy(sigma->0) =     -204.96590989


--------------------------------------------------------------------------------------------------------




--------------------------------------- Iteration      1(   3)  ---------------------------------------


    TRIAL :  cpu time   27.2512: real time   27.5229
    CORREC:  cpu time    0.0024: real time    0.0024
    --------------------------------------------
      LOOP:  cpu time   27.2548: real time   27.5282

 eigenvalue-minimisations  : 21456
 total energy-change (2. order) :-0.6462311E+02  (-0.6191382E+02)
 number of electron     116.0000000 magnetization 
 augmentation part      116.0000000 magnetization 

 Free energy of the ion-electron system (eV)
  ---------------------------------------------------
  alpha Z        PSCENC =       675.00669222
  Ewald energy   TEWEN  =     -9918.49972124
  -Hartree energ DENC   =     -2481.67254582
  -exchange      EXHF   =         0.00000000
  -V(xc)+E(xc)   XCENC  =       524.94503889
  PAW double counting   =      9417.46121024    -9379.23717351
  entropy T*S    EENTRO =        -0.00116940
  eigenvalues    EBANDS =     -1056.77702682
  atomic energy  EATOM  =     11949.18504973
  ---------------------------------------------------
  free energy    TOTEN  =      -269.58964570 eV

  energy without entropy =     -269.58847629  energy(sigma->0) =     -269.58906100


--------------------------------------------------------------------------------------------------------




--------------------------------------- Iteration      1(   4)  ---------------------------------------


    TRIAL :  cpu time   26.8556: real time   27.1165
    CORREC:  cpu time    0.0023: real time    0.0023
    --------------------------------------------
      LOOP:  cpu time   26.8588: real time   27.1216

 eigenvalue-minimisations  : 20700
 total energy-change (2. order) :-0.1406987E+01  (-0.1387067E+01)
 number of electron     116.0000000 magnetization 
 augmentation part      116.0000000 magnetization 

 Free energy of the ion-electron system (eV)
  ---------------------------------------------------
  alpha Z        PSCENC =       675.00669222
  Ewald energy   TEWEN  =     -9918.49972124
  -Hartree energ DENC   =     -2481.67254582
  -exchange      EXHF   =         0.00000000
  -V(xc)+E(xc)   XCENC  =       524.94503889
  PAW double counting   =      9417.46121024    -9379.23717351
  entropy T*S    EENTRO =        -0.00121673
  eigenvalues    EBANDS =     -1058.18396626
  atomic energy  EATOM  =     11949.18504973
  ---------------------------------------------------
  free energy    TOTEN  =      -270.99663247 eV

  energy without entropy =     -270.99541574  energy(sigma->0) =     -270.99602410


--------------------------------------------------------------------------------------------------------




--------------------------------------- Iteration      1(   5)  ---------------------------------------


    TRIAL :  cpu time   26.9402: real time   27.2070
    CORREC:  cpu time    0.0024: real time    0.0024
    CHARGE:  cpu time    1.9798: real time    1.9955
    --------------------------------------------
      LOOP:  cpu time   28.9236: real time   29.2078

 eigenvalue-minimisations  : 20592
 total energy-change (2. order) :-0.2178917E-01  (-0.2176455E-01)
 number of electron     116.0000001 magnetization 
 augmentation part       11.7493881 magnetization 

 Free energy of the ion-electron system (eV)
  ---------------------------------------------------
  alpha Z        PSCENC =       675.00669222
  Ewald energy   TEWEN  =     -9918.49972124
  -Hartree energ DENC   =     -2481.67254582
  -exchange      EXHF   =         0.00000000
  -V(xc)+E(xc)   XCENC  =       524.94503889
  PAW double counting   =      9417.46121024    -9379.23717351
  entropy T*S    EENTRO =        -0.00121745
  eigenvalues    EBANDS =     -1058.20575471
  atomic energy  EATOM  =     11949.18504973
  ---------------------------------------------------
  free energy    TOTEN  =      -271.01842164 eV

  energy without entropy =     -271.01720418  energy(sigma->0) =     -271.01781291


--------------------------------------------------------------------------------------------------------




--------------------------------------- Iteration      1(   6)  ---------------------------------------


    POTLOK:  cpu time    0.1256: real time    0.1264
    SETDIJ:  cpu time    0.6290: real time    0.6336
    TRIAL :  cpu time   18.2302: real time   18.4035
    CORREC:  cpu time    6.9673: real time    7.0277
    CHARGE:  cpu time    2.2679: real time    2.2843
    --------------------------------------------
      LOOP:  cpu time   28.2214: real time   28.4772

 eigenvalue-minimisations  :     0
 total energy-change (2. order) : 0.8106741E+02  (-0.2466308E+02)
 number of electron     116.0000001 magnetization 
 augmentation part       14.4478586 magnetization 

 Free energy of the ion-electron system (eV)
  ---------------------------------------------------
  alpha Z        PSCENC =       675.00669222
  Ewald energy   TEWEN  =     -9918.49972124
  -Hartree energ DENC   =     -1963.85078934
  -exchange      EXHF   =         0.00000000
  -V(xc)+E(xc)   XCENC  =       520.67276219
  PAW double counting   =     17350.14069733   -17359.90315487
  entropy T*S    EENTRO =        -0.00161157
  eigenvalues    EBANDS =     -1442.70132554
  atomic energy  EATOM  =     11949.18504973
  ---------------------------------------------------
  free energy    TOTEN  =      -189.95100697 eV

  energy without entropy =     -189.94939540  energy(sigma->0) =     -189.95020119


--------------------------------------------------------------------------------------------------------




--------------------------------------- Iteration      1(   7)  ---------------------------------------


    POTLOK:  cpu time    0.1179: real time    0.1186
    SETDIJ:  cpu time    0.6336: real time    0.6379
    TRIAL :  cpu time   18.8177: real time   18.9949
    CORREC:  cpu time    6.7977: real time    6.8573
    CHARGE:  cpu time    1.9993: real time    2.0133
    --------------------------------------------
      LOOP:  cpu time   28.3667: real time   28.6239

 eigenvalue-minimisations  :     0
 total energy-change (2. order) :-0.2468802E+02  (-0.4532821E+01)
 number of electron     116.0000001 magnetization 
 augmentation part       14.2966875 magnetization 

 Free energy of the ion-electron system (eV)
  ---------------------------------------------------
  alpha Z        PSCENC =       675.00669222
  Ewald energy   TEWEN  =     -9918.49972124
  -Hartree energ DENC   =     -2282.40552843
  -exchange      EXHF   =         0.00000000
  -V(xc)+E(xc)   XCENC  =       533.98571090
  PAW double counting   =     16313.14681298   -16302.87750316
  entropy T*S    EENTRO =        -0.00142568
  eigenvalues    EBANDS =     -1182.17892616
  atomic energy  EATOM  =     11949.18504973
  ---------------------------------------------------
  free energy    TOTEN  =      -214.63902473 eV

  energy without entropy =     -214.63759905  energy(sigma->0) =     -214.63831189


--------------------------------------------------------------------------------------------------------




--------------------------------------- Iteration      1(   8)  ---------------------------------------


    POTLOK:  cpu time    0.1163: real time    0.1170
    SETDIJ:  cpu time    0.6420: real time    0.6467
    TRIAL :  cpu time   18.2937: real time   18.4639
    CORREC:  cpu time    6.8072: real time    6.8630
    CHARGE:  cpu time    1.9929: real time    2.0077
    --------------------------------------------
      LOOP:  cpu time   27.8533: real time   28.1002

 eigenvalue-minimisations  :     0
 total energy-change (2. order) :-0.4538073E+01  (-0.1392386E+01)
 number of electron     116.0000001 magnetization 
 augmentation part       14.1775923 magnetization 

 Free energy of the ion-electron system (eV)
  ---------------------------------------------------
  alpha Z        PSCENC =       675.00669222
  Ewald energy   TEWEN  =     -9918.49972124
  -Hartree energ DENC   =     -2334.18700819
  -exchange      EXHF   =         0.00000000
  -V(xc)+E(xc)   XCENC  =       535.80246318
  PAW double counting   =     16177.76863169   -16162.43213593
  entropy T*S    EENTRO =        -0.00180448
  eigenvalues    EBANDS =     -1141.81964397
  atomic energy  EATOM  =     11949.18504973
  ---------------------------------------------------
  free energy    TOTEN  =      -219.17709820 eV

  energy without entropy =     -219.17529372  energy(sigma->0) =     -219.17619596


--------------------------------------------------------------------------------------------------------




--------------------------------------- Iteration      1(   9)  ---------------------------------------


    POTLOK:  cpu time    0.1183: real time    0.1191
    SETDIJ:  cpu time    0.6361: real time    0.6413
    TRIAL :  cpu time   18.2954: real time   18.4678
    CORREC:  cpu time    6.7017: real time    6.7576
    CHARGE:  cpu time    1.9798: real time    1.9934
    --------------------------------------------
      LOOP:  cpu time   27.7328: real time   27.9813

 eigenvalue-minimisations  :     0
 total energy-change (2. order) :-0.1393417E+01  (-0.4080790E+00)
 number of electron     116.0000001 magnetization 
 augmentation part       14.2338928 magnetization 

 Free energy of the ion-electron system (eV)
  ---------------------------------------------------
  alpha Z        PSCENC =       675.00669222
  Ewald energy   TEWEN  =     -9918.49972124
  -Hartree energ DENC   =     -2334.34270822
  -exchange      EXHF   =         0.00000000
  -V(xc)+E(xc)   XCENC  =       535.91253333
  PAW double counting   =     16188.13426897   -16169.57553790
  entropy T*S    EENTRO =        -0.00140565
  eigenvalues    EBANDS =     -1146.38928717
  atomic energy  EATOM  =     11949.18504973
  ---------------------------------------------------
  free energy    TOTEN  =      -220.57051475 eV

  energy without entropy =     -220.56910910  energy(sigma->0) =     -220.56981193


--------------------------------------------------------------------------------------------------------




--------------------------------------- Iteration      1(  10)  ---------------------------------------


    POTLOK:  cpu time    0.1275: real time    0.1284
    SETDIJ:  cpu time    0.6232: real time    0.6280
    TRIAL :  cpu time   18.8321: real time   19.0041
    CORREC:  cpu time    6.8520: real time    6.9092
    CHARGE:  cpu time    1.9702: real time    1.9841
    --------------------------------------------
      LOOP:  cpu time   28.4059: real time   28.6557

[...]
     32       3.6855      2.00000
     33       3.8714      2.00000
     34       4.2659      2.00000
     35       4.7899      2.00000
     36       5.2216      2.00000
     37       5.2974      2.00000
     38       5.5880      2.00000
     39       5.8481      2.00000
     40       5.9956      2.00000
     41       6.0599      2.00000
     42       6.1721      2.00000
     43       6.1866      2.00000
     44       6.2747      2.00000
     45       6.3688      2.00000
     46       6.5722      2.00000
     47       6.8627      2.00000
     48       7.9475      2.00000
     49       8.0690      2.00000
     50       8.7068      2.00000
     51       8.7321      2.00000
     52       9.5802      2.00000
     53       9.8129      2.00000
     54       9.9708      2.00000
     55      10.6667      2.00000
     56      10.9286      2.00000
     57      11.0031      2.00000
     58      11.2431      0.86285
     59      11.5250      0.00000
     60      11.5867      0.00000
     61      11.6021      0.00000
     62      11.9905      0.00000
     63      12.5487      0.00000
     64      12.5627      0.00000
     65      12.7812      0.00000
     66      13.1135      0.00000
     67      13.1152      0.00000
     68      13.1747      0.00000
     69      13.8041      0.00000
     70      14.4866      0.00000
     71      14.6250      0.00000
     72      15.0261      0.00000

 k-point   111 :       0.2857    0.2857    0.5000
  band No.  band energies     occupation 
      1     -52.4510      2.00000
      2     -52.4508      2.00000
      3     -51.6199      2.00000
      4     -51.5999      2.00000
      5     -51.5992      2.00000
      6     -51.5806      2.00000
      7     -26.3204      2.00000
      8     -26.3090      2.00000
      9     -25.9230      2.00000
     10     -25.9204      2.00000
     11     -25.9133      2.00000
     12     -25.9062      2.00000
     13     -25.5275      2.00000
     14     -25.4079      2.00000
     15     -25.3994      2.00000
     16     -25.2584      2.00000
     17     -25.1851      2.00000
     18     -25.1560      2.00000
     19     -25.1535      2.00000
     20     -25.1456      2.00000
     21     -24.9413      2.00000
     22     -24.7957      2.00000
     23     -24.7906      2.00000
     24     -24.7034      2.00000
     25      -1.9095      2.00000
     26      -0.4298      2.00000
     27      -0.2812      2.00000
     28       0.4597      2.00000
     29       0.5744      2.00000
     30       1.5115      2.00000
     31       1.9462      2.00000
     32       3.8169      2.00000
     33       4.1819      2.00000
     34       4.3091      2.00000
     35       4.4494      2.00000
     36       4.8685      2.00000
     37       5.3131      2.00000
     38       5.6642      2.00000
     39       6.0273      2.00000
     40       6.0600      2.00000
     41       6.2515      2.00000
     42       6.3365      2.00000
     43       6.3501      2.00000
     44       6.3850      2.00000
     45       7.0292      2.00000
     46       7.2983      2.00000
     47       7.3926      2.00000
     48       7.6464      2.00000
     49       7.9828      2.00000
     50       8.1921      2.00000
     51       8.8439      2.00000
     52       9.4749      2.00000
     53       9.8736      2.00000
     54       9.9916      2.00000
     55      10.2081      2.00000
     56      10.4881      2.00000
     57      10.7711      2.00000
     58      10.9729      2.00000
     59      11.2137      1.94357
     60      11.8348      0.00000
     61      12.0986      0.00000
     62      12.1095      0.00000
     63      12.2425      0.00000
     64      12.2788      0.00000
     65      12.4767      0.00000
     66      12.5626      0.00000
     67      12.6161      0.00000
     68      13.3121      0.00000
     69      13.4390      0.00000
     70      14.4149      0.00000
     71      14.6333      0.00000
     72      14.7721      0.00000

 k-point   112 :       0.4286    0.2857    0.5000
  band No.  band energies     occupation 
      1     -52.4510      2.00000
      2     -52.4504      2.00000
      3     -51.6228      2.00000
      4     -51.6019      2.00000
      5     -51.5971      2.00000
      6     -51.5783      2.00000
      7     -26.3060      2.00000
      8     -26.2962      2.00000
      9     -25.9150      2.00000
     10     -25.9129      2.00000
     11     -25.9028      2.00000
     12     -25.8977      2.00000
     13     -25.5666      2.00000
     14     -25.4297      2.00000
     15     -25.4006      2.00000
     16     -25.2420      2.00000
     17     -25.2004      2.00000
     18     -25.1640      2.00000
     19     -25.1611      2.00000
     20     -25.1467      2.00000
     21     -24.9570      2.00000
     22     -24.8018      2.00000
     23     -24.7721      2.00000
     24     -24.6893      2.00000
     25      -1.8110      2.00000
     26      -0.5862      2.00000
     27      -0.0257      2.00000
     28       0.5094      2.00000
     29       0.7660      2.00000
     30       1.2936      2.00000
     31       1.6560      2.00000
     32       3.7347      2.00000
     33       4.2165      2.00000
     34       4.5092      2.00000
     35       4.5686      2.00000
     36       4.9630      2.00000
     37       5.2737      2.00000
     38       5.7522      2.00000
     39       5.9071      2.00000
     40       6.0987      2.00000
     41       6.2976      2.00000
     42       6.3224      2.00000
     43       6.3895      2.00000
     44       6.4838      2.00000
     45       6.5942      2.00000
     46       7.0862      2.00000
     47       7.2287      2.00000
     48       7.6834      2.00000
     49       7.9932      2.00000
     50       8.1735      2.00000
     51       8.7087      2.00000
     52       9.5537      2.00000
     53       9.7295      2.00000
     54       9.9913      2.00000
     55      10.1087      2.00000
     56      10.5600      2.00000
     57      10.7229      2.00000
     58      10.9174      2.00000
     59      11.4186      0.00000
     60      11.6801      0.00000
     61      12.0051      0.00000
     62      12.1935      0.00000
     63      12.3140      0.00000
     64      12.3849      0.00000
     65      12.4735      0.00000
     66      12.7215      0.00000
     67      13.0669      0.00000
     68      13.4097      0.00000
     69      13.6990      0.00000
     70      14.5801      0.00000
     71      14.6290      0.00000
     72      15.0291      0.00000

 k-point   113 :      -0.4286    0.2857    0.5000
  band No.  band energies     occupation 
      1     -52.4513      2.00000
      2     -52.4500      2.00000
      3     -51.6231      2.00000
      4     -51.6019      2.00000
      5     -51.5971      2.00000
      6     -51.5782      2.00000
      7     -26.3063      2.00000
      8     -26.2763      2.00000
      9     -25.9097      2.00000
     10     -25.9051      2.00000
     11     -25.8993      2.00000
     12     -25.8927      2.00000
     13     -25.5823      2.00000
     14     -25.4342      2.00000
     15     -25.4070      2.00000
     16     -25.2410      2.00000
     17     -25.2082      2.00000
     18     -25.1715      2.00000
     19     -25.1663      2.00000
     20     -25.1469      2.00000
     21     -24.9570      2.00000
     22     -24.8018      2.00000
     23     -24.7720      2.00000
     24     -24.6890      2.00000
     25      -1.6195      2.00000
     26      -0.6865      2.00000
     27      -0.1316      2.00000
     28       0.5687      2.00000
     29       0.9219      2.00000
     30       1.1817      2.00000
     31       1.6247      2.00000
     32       3.6733      2.00000
     33       4.3964      2.00000
     34       4.5010      2.00000
     35       4.5490      2.00000
     36       5.1334      2.00000
     37       5.4487      2.00000
     38       5.5349      2.00000
     39       5.8714      2.00000
     40       6.1586      2.00000
     41       6.2449      2.00000
     42       6.2752      2.00000
     43       6.3440      2.00000
     44       6.4170      2.00000
     45       6.4810      2.00000
     46       7.0576      2.00000
     47       7.2143      2.00000
     48       7.3820      2.00000
     49       7.8694      2.00000
     50       8.1435      2.00000
     51       8.5951      2.00000
     52       9.6118      2.00000
     53       9.7122      2.00000
     54      10.0004      2.00000
     55      10.2481      2.00000
     56      10.6746      2.00000
     57      10.7919      2.00000
     58      10.8491      2.00000
     59      11.4446      0.00000
     60      11.5776      0.00000
     61      11.9528      0.00000
     62      12.2549      0.00000
     63      12.3697      0.00000
     64      12.4845      0.00000
     65      12.6642      0.00000
     66      13.1061      0.00000
     67      13.2613      0.00000
     68      13.5451      0.00000
     69      13.7845      0.00000
     70      14.4303      0.00000
     71      14.8298      0.00000
     72      15.0657      0.00000

 k-point   114 :      -0.2857    0.2857    0.5000
  band No.  band energies     occupation 
      1     -52.4515      2.00000
      2     -52.4498      2.00000
      3     -51.6206      2.00000
      4     -51.6001      2.00000
      5     -51.5989      2.00000
      6     -51.5806      2.00000
      7     -26.3141      2.00000
      8     -26.2722      2.00000
      9     -25.9165      2.00000
     10     -25.9131      2.00000
     11     -25.8988      2.00000
     12     -25.8869      2.00000
     13     -25.5636      2.00000
     14     -25.4212      2.00000
     15     -25.4091      2.00000
     16     -25.2545      2.00000
     17     -25.2051      2.00000
     18     -25.1755      2.00000
     19     -25.1635      2.00000
     20     -25.1431      2.00000
     21     -24.9413      2.00000
     22     -24.7969      2.00000
     23     -24.7891      2.00000
     24     -24.7028      2.00000
     25      -1.4140      2.00000
     26      -0.7481      2.00000
     27      -0.5386      2.00000
     28       0.7507      2.00000
     29       0.8957      2.00000
     30       1.1144      2.00000
     31       1.9338      2.00000
     32       3.6637      2.00000
     33       4.2972      2.00000
     34       4.4092      2.00000
     35       4.7106      2.00000
     36       5.1891      2.00000
     37       5.3710      2.00000
     38       5.7660      2.00000
     39       5.7952      2.00000
     40       5.9154      2.00000
     41       6.2643      2.00000
     42       6.2705      2.00000
     43       6.2951      2.00000
     44       6.3308      2.00000
     45       6.4940      2.00000
     46       7.1070      2.00000
     47       7.3251      2.00000
     48       7.4982      2.00000
     49       7.5023      2.00000
     50       7.8764      2.00000
     51       8.6185      2.00000
     52       9.9123      2.00000
     53       9.9706      2.00000
     54      10.0422      2.00000
     55      10.1656      2.00000
     56      10.7242      2.00000
     57      10.7320      2.00000
     58      11.0564      2.00000
     59      11.5595      0.00000
     60      11.6696      0.00000
     61      12.0218      0.00000
     62      12.1701      0.00000
     63      12.2019      0.00000
     64      12.4328      0.00000
     65      12.7690      0.00000
     66      12.9737      0.00000
     67      13.1154      0.00000
     68      13.4584      0.00000
     69      14.0449      0.00000
     70      14.4158      0.00000
     71      14.5085      0.00000
     72      15.3559      0.00000

 k-point   115 :       0.4286    0.4286    0.5000
  band No.  band energies     occupation 
      1     -52.4511      2.00000
      2     -52.4500      2.00000
      3     -51.6257      2.00000
      4     -51.5998      2.00000
      5     -51.5990      2.00000
      6     -51.5759      2.00000
      7     -26.2966      2.00000
      8     -26.2731      2.00000
      9     -25.9049      2.00000
     10     -25.9023      2.00000
     11     -25.8919      2.00000
     12     -25.8884      2.00000
     13     -25.6084      2.00000
     14     -25.4292      2.00000
     15     -25.4277      2.00000
     16     -25.2266      2.00000
     17     -25.2176      2.00000
     18     -25.1708      2.00000
     19     -25.1707      2.00000
     20     -25.1500      2.00000
     21     -24.9736      2.00000
     22     -24.7804      2.00000
     23     -24.7797      2.00000
     24     -24.6761      2.00000
     25      -1.7567      2.00000
     26      -0.1826      2.00000
     27      -0.1561      2.00000
     28       0.3946      2.00000
     29       0.9314      2.00000
     30       1.2249      2.00000
     31       1.3131      2.00000
     32       4.1900      2.00000
     33       4.3101      2.00000
     34       4.3582      2.00000
     35       4.6248      2.00000
     36       4.9615      2.00000
     37       5.0686      2.00000
     38       5.6672      2.00000
     39       5.8336      2.00000
     40       6.1821      2.00000
     41       6.2749      2.00000
     42       6.3382      2.00000
     43       6.3978      2.00000
     44       6.5510      2.00000
     45       6.5784      2.00000
     46       6.7286      2.00000
     47       6.9588      2.00000
     48       7.3210      2.00000
     49       8.0828      2.00000
     50       8.5036      2.00000
     51       8.7380      2.00000
     52       9.1639      2.00000
     53       9.7398      2.00000
     54       9.7452      2.00000
     55      10.3086      2.00000
     56      10.6581      2.00000
     57      10.9359      2.00000
     58      11.0396      2.00000
     59      11.3343      0.00000
     60      11.5162      0.00000
     61      11.6382      0.00000
     62      11.6886      0.00000
     63      12.8833      0.00000
     64      13.0642      0.00000
     65      13.1185      0.00000
     66      13.2303      0.00000
     67      13.4378      0.00000
     68      13.4588      0.00000
     69      13.9341      0.00000
     70      14.5962      0.00000
     71      14.6599      0.00000
     72      14.8556      0.00000

 k-point   116 :      -0.4286    0.4286    0.5000
  band No.  band energies     occupation 
      1     -52.4511      2.00000
      2     -52.4498      2.00000
      3     -51.6258      2.00000
      4     -51.5999      2.00000
      5     -51.5990      2.00000
      6     -51.5759      2.00000
      7     -26.2961      2.00000
      8     -26.2647      2.00000
      9     -25.9008      2.00000
     10     -25.8990      2.00000
     11     -25.8898      2.00000
     12     -25.8871      2.00000
     13     -25.6160      2.00000
     14     -25.4319      2.00000
     15     -25.4306      2.00000
     16     -25.2265      2.00000
     17     -25.2208      2.00000
     18     -25.1747      2.00000
     19     -25.1720      2.00000
     20     -25.1504      2.00000
     21     -24.9736      2.00000
     22     -24.7812      2.00000
     23     -24.7789      2.00000
     24     -24.6760      2.00000
     25      -1.6795      2.00000
     26      -0.2172      2.00000
     27      -0.1954      2.00000
     28       0.4040      2.00000
     29       1.0163      2.00000
     30       1.1972      2.00000
     31       1.2675      2.00000
     32       4.1714      2.00000
     33       4.3197      2.00000
     34       4.3846      2.00000
     35       4.6851      2.00000
     36       5.0476      2.00000
     37       5.1420      2.00000
     38       5.3930      2.00000
     39       5.8581      2.00000
     40       6.1929      2.00000
     41       6.3240      2.00000
     42       6.3819      2.00000
     43       6.4057      2.00000
     44       6.5125      2.00000
     45       6.5433      2.00000
     46       6.7223      2.00000
     47       6.9063      2.00000
     48       7.1807      2.00000
     49       8.0747      2.00000
     50       8.4495      2.00000
     51       8.7274      2.00000
     52       9.1685      2.00000
     53       9.7221      2.00000
     54       9.7267      2.00000
     55      10.2977      2.00000
     56      10.7277      2.00000
     57      10.9075      2.00000
     58      10.9855      2.00000
     59      11.4422      0.00000
     60      11.5193      0.00000
     61      11.6616      0.00000
     62      11.6657      0.00000
     63      12.9036      0.00000
     64      13.1491      0.00000
     65      13.2651      0.00000
     66      13.3643      0.00000
     67      13.6713      0.00000
     68      13.7080      0.00000
     69      13.9448      0.00000
     70      14.1837      0.00000
     71      14.3000      0.00000
     72      15.5419      0.00000


--------------------------------------------------------------------------------------------------------


 soft charge-density along one line, spin component           1
         0         1         2         3         4         5         6         7         8         9
 total charge-density along one line
 
 pseudopotential strength for first ion, spin component:           1
  5.869   8.885   0.000   0.005   0.000   0.003   0.012   0.002
  8.885  13.442   0.001   0.008   0.001   0.006   0.018   0.004
  0.000   0.001  -1.926  -0.004  -0.005  -3.200  -0.007  -0.008
  0.005   0.008  -0.004  -1.928  -0.003  -0.007  -3.202  -0.005
  0.000   0.001  -0.005  -0.003  -1.923  -0.008  -0.005  -3.194
  0.003   0.006  -3.200  -0.007  -0.008  -5.102  -0.012  -0.016
  0.012   0.018  -0.007  -3.202  -0.005  -0.012  -5.105  -0.008
  0.002   0.004  -0.008  -0.005  -3.194  -0.016  -0.008  -5.090
 total augmentation occupancy for first ion, spin component:           1
  3.448  -0.895  -0.580  -0.449  -0.408   0.208   0.144   0.146
 -0.895   0.251   0.206   0.122   0.145  -0.069  -0.040  -0.049
 -0.580   0.206   2.741   0.253   0.116  -0.731  -0.097  -0.032
 -0.449   0.122   0.253   2.728   0.178  -0.097  -0.705  -0.068
 -0.408   0.145   0.116   0.178   2.657  -0.032  -0.068  -0.708
  0.208  -0.069  -0.731  -0.097  -0.032   0.201   0.035   0.010
  0.144  -0.040  -0.097  -0.705  -0.068   0.035   0.189   0.024
  0.146  -0.049  -0.032  -0.068  -0.708   0.010   0.024   0.194


------------------------ aborting loop because EDIFF is reached ----------------------------------------




--------------------------------------------------------------------------------------------------------



  FREE ENERGIE OF THE ION-ELECTRON SYSTEM (eV)
  ---------------------------------------------------
  free  energy   TOTEN  =      -221.18616983 eV

  energy  without entropy=     -221.18494979  energy(sigma->0) =     -221.18555981
 


--------------------------------------------------------------------------------------------------------


    POTLOK:  cpu time    0.8124: real time    0.8188


--------------------------------------------------------------------------------------------------------


 writing wavefunctions
     LOOP+:  cpu time  897.7885: real time  905.9019
    4ORBIT:  cpu time    0.0000: real time    0.0000

 total amount of memory used by VASP MPI-rank0   396687. kBytes
=======================================================================

   base      :      30000. kBytes
   nonl-proj :     143851. kBytes
   fftplans  :      14374. kBytes
   grid      :      11100. kBytes
   one-center:        124. kBytes
   wavefun   :     197238. kBytes
 
  
  
 General timing and accounting informations for this job:
 ========================================================
  
                  Total CPU time used (sec):      903.040
                            User time (sec):      899.190
                          System time (sec):        3.850
                         Elapsed time (sec):      911.998
  
                   Maximum memory used (kb):      595680.
                   Average memory used (kb):          N/A
  
                          Minor page faults:      1396687
                          Major page faults:           13
                 Voluntary context switches:         1232
