<?xml version="1.0" encoding="ISO-8859-1"?>
<modeling>
 <generator>
  <i name="program" type="string">vasp </i>
  <i name="version" type="string">6.2.0  </i>
  <i name="subversion" type="string">18Jan21 (build Jan 05 2022 15:41:44) complex                          parallel </i>
  <i name="platform" type="string">LinuxIFC </i>
  <i name="date" type="string">2025 05 07 </i>
  <i name="time" type="string">18:07:11 </i>
 </generator>
 <incar>
  <i type="string" name="SYSTEM">routine with relax: pwdword</i>
  <i type="string" name="PREC">Acc</i>
  <i type="int" name="IALGO">    38</i>
  <i type="string" name="ALGO">A</i>
  <i type="logical" name="ADDGRID"> T  </i>
  <i type="int" name="ICHARG">     2</i>
  <i type="int" name="NELM">   100</i>
  <i type="int" name="NELMIN">     6</i>
  <i name="EDIFF">      0.00000000</i>
  <i type="int" name="NSW">     0</i>
  <i type="int" name="ISIF">    -1</i>
  <i name="ENCUT">    600.00000000</i>
  <i type="logical" name="LREAL"> F  </i>
  <i type="int" name="ISMEAR">     0</i>
  <i name="SIGMA">      0.02000000</i>
  <i type="logical" name="LASPH"> T  </i>
  <i type="string" name="METAGGA">R2SCAN</i>
  <i type="logical" name="LMIXTAU"> F  </i>
 </incar>
 <primitive_cell>
  <structure name="primitive_cell" >
   <crystal>
    <varray name="basis" >
     <v>      -3.85121464       2.63603607      -0.00000000 </v>
     <v>       1.80428431       2.63603607       3.40239983 </v>
     <v>       1.80428431       2.63603607      -2.99911017 </v>
    </varray>
    <i name="volume">     95.43434645 </i>
    <varray name="rec_basis" >
     <v>      -0.17681906       0.12102712       0.00000000 </v>
     <v>       0.08283980       0.12102788       0.15621314 </v>
     <v>       0.09397925       0.13730248      -0.15621314 </v>
    </varray>
   </crystal>
   <varray name="positions" >
    <v>       0.00000000       1.00000000       0.50000000 </v>
    <v>       0.50000000       1.00000000       0.50000000 </v>
    <v>       0.00000000       1.00000000       0.00000000 </v>
    <v>       0.00000000       0.50000000       0.50000000 </v>
    <v>       0.50000000       0.50000000       0.50000000 </v>
   </varray>
  </structure>
  <varray name="primitive_index" >
   <v type="int" >        1 </v>
   <v type="int" >        3 </v>
   <v type="int" >        4 </v>
   <v type="int" >        5 </v>
   <v type="int" >        9 </v>
  </varray>
 </primitive_cell>
 <kpoints>
  <generation param="Gamma">
   <v type="int" name="divisions">       7        7        8 </v>
   <v name="usershift">      0.00000000       0.00000000       0.00000000 </v>
   <v name="genvec1">      0.14285714       0.00000000       0.00000000 </v>
   <v name="genvec2">      0.00000000       0.14285714       0.00000000 </v>
   <v name="genvec3">     -0.00000000      -0.00000000       0.12500000 </v>
   <v name="shift">      0.00000000       0.00000000       0.00000000 </v>
  </generation>
  <varray name="kpointlist" >
   <v>       0.00000000       0.00000000       0.00000000 </v>
   <v>       0.14285714      -0.00000000       0.00000000 </v>
   <v>       0.28571429      -0.00000000       0.00000000 </v>
   <v>       0.42857143      -0.00000000       0.00000000 </v>
   <v>       0.14285714       0.14285714       0.00000000 </v>
   <v>       0.28571429       0.14285714       0.00000000 </v>
   <v>       0.42857143       0.14285714       0.00000000 </v>
   <v>      -0.42857143       0.14285714       0.00000000 </v>
   <v>      -0.28571429       0.14285714       0.00000000 </v>
   <v>      -0.14285714       0.14285714       0.00000000 </v>
   <v>       0.28571429       0.28571429       0.00000000 </v>
   <v>       0.42857143       0.28571429       0.00000000 </v>
   <v>      -0.42857143       0.28571429       0.00000000 </v>
   <v>      -0.28571429       0.28571429       0.00000000 </v>
   <v>       0.42857143       0.42857143       0.00000000 </v>
   <v>      -0.42857143       0.42857143       0.00000000 </v>
   <v>       0.00000000      -0.00000000       0.12500000 </v>
   <v>       0.14285714      -0.00000000       0.12500000 </v>
   <v>       0.28571429      -0.00000000       0.12500000 </v>
   <v>       0.42857143      -0.00000000       0.12500000 </v>
   <v>      -0.42857143       0.00000000       0.12500000 </v>
   <v>      -0.28571429      -0.00000000       0.12500000 </v>
   <v>      -0.14285714      -0.00000000       0.12500000 </v>
   <v>       0.14285714       0.14285714       0.12500000 </v>
   <v>       0.28571429       0.14285714       0.12500000 </v>
   <v>       0.42857143       0.14285714       0.12500000 </v>
   <v>      -0.42857143       0.14285714       0.12500000 </v>
   <v>      -0.28571429       0.14285714       0.12500000 </v>
   <v>      -0.14285714       0.14285714       0.12500000 </v>
   <v>       0.28571429       0.28571429       0.12500000 </v>
   <v>       0.42857143       0.28571429       0.12500000 </v>
   <v>      -0.42857143       0.28571429       0.12500000 </v>
   <v>      -0.28571429       0.28571429       0.12500000 </v>
   <v>      -0.14285714       0.28571429       0.12500000 </v>
   <v>       0.42857143       0.42857143       0.12500000 </v>
   <v>      -0.42857143       0.42857143       0.12500000 </v>
   <v>      -0.28571429       0.42857143       0.12500000 </v>
   <v>      -0.14285714       0.42857143       0.12500000 </v>
   <v>      -0.42857143      -0.42857143       0.12500000 </v>
   <v>      -0.28571429      -0.42857143       0.12500000 </v>
   <v>      -0.14285714      -0.42857143       0.12500000 </v>
   <v>      -0.28571429      -0.28571429       0.12500000 </v>
   <v>      -0.14285714      -0.28571429       0.12500000 </v>
   <v>      -0.14285714      -0.14285714       0.12500000 </v>
   <v>       0.00000000      -0.00000000       0.25000000 </v>
   <v>       0.14285714      -0.00000000       0.25000000 </v>
   <v>       0.28571429      -0.00000000       0.25000000 </v>
   <v>       0.42857143      -0.00000000       0.25000000 </v>
   <v>      -0.42857143       0.00000000       0.25000000 </v>
   <v>      -0.28571429       0.00000000       0.25000000 </v>
   <v>      -0.14285714      -0.00000000       0.25000000 </v>
   <v>       0.14285714       0.14285714       0.25000000 </v>
   <v>       0.28571429       0.14285714       0.25000000 </v>
   <v>       0.42857143       0.14285714       0.25000000 </v>
   <v>      -0.42857143       0.14285714       0.25000000 </v>
   <v>      -0.28571429       0.14285714       0.25000000 </v>
   <v>      -0.14285714       0.14285714       0.25000000 </v>
   <v>       0.28571429       0.28571429       0.25000000 </v>
   <v>       0.42857143       0.28571429       0.25000000 </v>
   <v>      -0.42857143       0.28571429       0.25000000 </v>
   <v>      -0.28571429       0.28571429       0.25000000 </v>
   <v>      -0.14285714       0.28571429       0.25000000 </v>
   <v>       0.42857143       0.42857143       0.25000000 </v>
   <v>      -0.42857143       0.42857143       0.25000000 </v>
   <v>      -0.28571429       0.42857143       0.25000000 </v>
   <v>      -0.14285714       0.42857143       0.25000000 </v>
   <v>      -0.42857143      -0.42857143       0.25000000 </v>
   <v>      -0.28571429      -0.42857143       0.25000000 </v>
   <v>      -0.14285714      -0.42857143       0.25000000 </v>
   <v>      -0.28571429      -0.28571429       0.25000000 </v>
   <v>      -0.14285714      -0.28571429       0.25000000 </v>
   <v>      -0.14285714      -0.14285714       0.25000000 </v>
   <v>       0.00000000      -0.00000000       0.37500000 </v>
   <v>       0.14285714      -0.00000000       0.37500000 </v>
   <v>       0.28571429       0.00000000       0.37500000 </v>
   <v>       0.42857143      -0.00000000       0.37500000 </v>
   <v>      -0.42857143       0.00000000       0.37500000 </v>
   <v>      -0.28571429      -0.00000000       0.37500000 </v>
   <v>      -0.14285714       0.00000000       0.37500000 </v>
   <v>       0.14285714       0.14285714       0.37500000 </v>
   <v>       0.28571429       0.14285714       0.37500000 </v>
   <v>       0.42857143       0.14285714       0.37500000 </v>
   <v>      -0.42857143       0.14285714       0.37500000 </v>
   <v>      -0.28571429       0.14285714       0.37500000 </v>
   <v>      -0.14285714       0.14285714       0.37500000 </v>
   <v>       0.28571429       0.28571429       0.37500000 </v>
   <v>       0.42857143       0.28571429       0.37500000 </v>
   <v>      -0.42857143       0.28571429       0.37500000 </v>
   <v>      -0.28571429       0.28571429       0.37500000 </v>
   <v>      -0.14285714       0.28571429       0.37500000 </v>
   <v>       0.42857143       0.42857143       0.37500000 </v>
   <v>      -0.42857143       0.42857143       0.37500000 </v>
   <v>      -0.28571429       0.42857143       0.37500000 </v>
   <v>      -0.14285714       0.42857143       0.37500000 </v>
   <v>      -0.42857143      -0.42857143       0.37500000 </v>
   <v>      -0.28571429      -0.42857143       0.37500000 </v>
   <v>      -0.14285714      -0.42857143       0.37500000 </v>
   <v>      -0.28571429      -0.28571429       0.37500000 </v>
   <v>      -0.14285714      -0.28571429       0.37500000 </v>
   <v>      -0.14285714      -0.14285714       0.37500000 </v>
   <v>       0.00000000      -0.00000000       0.50000000 </v>
   <v>       0.14285714      -0.00000000       0.50000000 </v>
   <v>       0.28571429      -0.00000000       0.50000000 </v>
   <v>       0.42857143      -0.00000000       0.50000000 </v>
   <v>       0.14285714       0.14285714       0.50000000 </v>
   <v>       0.28571429       0.14285714       0.50000000 </v>
   <v>       0.42857143       0.14285714       0.50000000 </v>
   <v>      -0.42857143       0.14285714       0.50000000 </v>
   <v>      -0.28571429       0.14285714       0.50000000 </v>
   <v>      -0.14285714       0.14285714       0.50000000 </v>
   <v>       0.28571429       0.28571429       0.50000000 </v>
   <v>       0.42857143       0.28571429       0.50000000 </v>
   <v>      -0.42857143       0.28571429       0.50000000 </v>
   <v>      -0.28571429       0.28571429       0.50000000 </v>
   <v>       0.42857143       0.42857143       0.50000000 </v>
   <v>      -0.42857143       0.42857143       0.50000000 </v>
  </varray>
  <varray name="weights" >
   <v>       0.00255102 </v>
   <v>       0.01020408 </v>
   <v>       0.01020408 </v>
   <v>       0.01020408 </v>
   <v>       0.00510204 </v>
   <v>       0.01020408 </v>
   <v>       0.01020408 </v>
   <v>       0.01020408 </v>
   <v>       0.01020408 </v>
   <v>       0.00510204 </v>
   <v>       0.00510204 </v>
   <v>       0.01020408 </v>
   <v>       0.01020408 </v>
   <v>       0.00510204 </v>
   <v>       0.00510204 </v>
   <v>       0.00510204 </v>
   <v>       0.00510204 </v>
   <v>       0.01020408 </v>
   <v>       0.01020408 </v>
   <v>       0.01020408 </v>
   <v>       0.01020408 </v>
   <v>       0.01020408 </v>
   <v>       0.01020408 </v>
   <v>       0.00510204 </v>
   <v>       0.01020408 </v>
   <v>       0.01020408 </v>
   <v>       0.01020408 </v>
   <v>       0.01020408 </v>
   <v>       0.01020408 </v>
   <v>       0.00510204 </v>
   <v>       0.01020408 </v>
   <v>       0.01020408 </v>
   <v>       0.01020408 </v>
   <v>       0.01020408 </v>
   <v>       0.00510204 </v>
   <v>       0.01020408 </v>
   <v>       0.01020408 </v>
   <v>       0.01020408 </v>
   <v>       0.00510204 </v>
   <v>       0.01020408 </v>
   <v>       0.01020408 </v>
   <v>       0.00510204 </v>
   <v>       0.01020408 </v>
   <v>       0.00510204 </v>
   <v>       0.00510204 </v>
   <v>       0.01020408 </v>
   <v>       0.01020408 </v>
   <v>       0.01020408 </v>
   <v>       0.01020408 </v>
   <v>       0.01020408 </v>
   <v>       0.01020408 </v>
   <v>       0.00510204 </v>
   <v>       0.01020408 </v>
   <v>       0.01020408 </v>
   <v>       0.01020408 </v>
   <v>       0.01020408 </v>
   <v>       0.01020408 </v>
   <v>       0.00510204 </v>
   <v>       0.01020408 </v>
   <v>       0.01020408 </v>
   <v>       0.01020408 </v>
   <v>       0.01020408 </v>
   <v>       0.00510204 </v>
   <v>       0.01020408 </v>
   <v>       0.01020408 </v>
   <v>       0.01020408 </v>
   <v>       0.00510204 </v>
   <v>       0.01020408 </v>
   <v>       0.01020408 </v>
   <v>       0.00510204 </v>
   <v>       0.01020408 </v>
   <v>       0.00510204 </v>
   <v>       0.00510204 </v>
   <v>       0.01020408 </v>
   <v>       0.01020408 </v>
   <v>       0.01020408 </v>
   <v>       0.01020408 </v>
   <v>       0.01020408 </v>
   <v>       0.01020408 </v>
   <v>       0.00510204 </v>
   <v>       0.01020408 </v>
   <v>       0.01020408 </v>
   <v>       0.01020408 </v>
   <v>       0.01020408 </v>
   <v>       0.01020408 </v>
   <v>       0.00510204 </v>
   <v>       0.01020408 </v>
   <v>       0.01020408 </v>
   <v>       0.01020408 </v>
   <v>       0.01020408 </v>
   <v>       0.00510204 </v>
   <v>       0.01020408 </v>
   <v>       0.01020408 </v>
   <v>       0.01020408 </v>
   <v>       0.00510204 </v>
   <v>       0.01020408 </v>
   <v>       0.01020408 </v>
   <v>       0.00510204 </v>
   <v>       0.01020408 </v>
   <v>       0.00510204 </v>
   <v>       0.00255102 </v>
   <v>       0.01020408 </v>
   <v>       0.01020408 </v>
   <v>       0.01020408 </v>
   <v>       0.00510204 </v>
   <v>       0.01020408 </v>
   <v>       0.01020408 </v>
   <v>       0.01020408 </v>
   <v>       0.01020408 </v>
   <v>       0.00510204 </v>
   <v>       0.00510204 </v>
   <v>       0.01020408 </v>
   <v>       0.01020408 </v>
   <v>       0.00510204 </v>
   <v>       0.00510204 </v>
   <v>       0.00510204 </v>
  </varray>
 </kpoints>
 <parameters>
  <separator name="general" >
   <i type="string" name="SYSTEM">routine with relax: pwdword</i>
   <i type="logical" name="LCOMPAT"> F  </i>
  </separator>
  <separator name="electronic" >
   <i type="string" name="PREC">acc</i>
   <i name="ENMAX">    600.00000000</i>
   <i name="ENAUG">    535.51400000</i>
   <i name="EDIFF">      0.00000000</i>
   <i type="int" name="IALGO">    58</i>
   <i type="int" name="IWAVPR">    10</i>
   <i type="int" name="NBANDS">    60</i>
   <i type="int" name="NBANDSLOW">    -1</i>
   <i type="int" name="NBANDSHIGH">    -1</i>
   <i name="NELECT">     98.00000000</i>
   <i type="int" name="TURBO">     0</i>
   <i type="int" name="IRESTART">     0</i>
   <i type="int" name="NREBOOT">     0</i>
   <i type="int" name="NMIN">     0</i>
   <i name="EREF">      0.00000000</i>
   <separator name="electronic smearing" >
    <i type="int" name="ISMEAR">     0</i>
    <i name="SIGMA">      0.02000000</i>
    <i name="KSPACING">      0.50000000</i>
    <i type="logical" name="KGAMMA"> T  </i>
    <i type="logical" name="KBLOWUP"> F  </i>
   </separator>
   <separator name="electronic projectors" >
    <i type="logical" name="LREAL"> F  </i>
    <v name="ROPT">      0.00000000      0.00000000      0.00000000</v>
    <i type="int" name="LMAXPAW">  -100</i>
    <i type="int" name="LMAXMIX">     2</i>
    <i type="logical" name="NLSPLINE"> F  </i>
   </separator>
   <separator name="electronic startup" >
    <i type="int" name="ISTART">     0</i>
    <i type="int" name="ICHARG">     2</i>
    <i type="int" name="INIWAV">     1</i>
   </separator>
   <separator name="electronic spin" >
    <i type="int" name="ISPIN">     1</i>
    <i type="logical" name="LNONCOLLINEAR"> F  </i>
    <v name="MAGMOM">      1.00000000      1.00000000      1.00000000      1.00000000      1.00000000      1.00000000      1.00000000      1.00000000      1.00000000      1.00000000</v>
    <i name="NUPDOWN">     -1.00000000</i>
    <i type="logical" name="LSORBIT"> F  </i>
    <v name="SAXIS">      0.00000000      0.00000000      1.00000000</v>
    <i type="logical" name="LSPIRAL"> F  </i>
    <v name="QSPIRAL">      0.00000000      0.00000000      0.00000000</v>
    <i type="logical" name="LZEROZ"> F  </i>
   </separator>
   <separator name="electronic exchange-correlation" >
    <i type="logical" name="LASPH"> T  </i>
    <i type="logical" name="LMETAGGA"> F  </i>
   </separator>
   <separator name="electronic convergence" >
    <i type="int" name="NELM">   100</i>
    <i type="int" name="NELMDL">    -5</i>
    <i type="int" name="NELMIN">     6</i>
    <i name="ENINI">    600.00000000</i>
    <separator name="electronic convergence detail" >
     <i type="logical" name="LDIAG"> T  </i>
     <i type="logical" name="LSUBROT"> F  </i>
     <i name="WEIMIN">      0.00000000</i>
     <i name="EBREAK">      0.00000000</i>
     <i name="DEPER">      0.30000000</i>
     <i type="int" name="NRMM">     4</i>
     <i name="TIME">      0.40000000</i>
    </separator>
   </separator>
   <separator name="electronic mixer" >
    <i name="AMIX">      0.40000000</i>
    <i name="BMIX">      1.00000000</i>
    <i name="AMIN">      0.10000000</i>
    <i name="AMIX_MAG">      1.60000000</i>
    <i name="BMIX_MAG">      1.00000000</i>
    <separator name="electronic mixer details" >
     <i type="int" name="IMIX">     4</i>
     <i type="logical" name="MIXFIRST"> F  </i>
     <i type="int" name="MAXMIX">   -45</i>
     <i name="WC">    100.00000000</i>
     <i type="int" name="INIMIX">     1</i>
     <i type="int" name="MIXPRE">     1</i>
     <i type="int" name="MREMOVE">     5</i>
    </separator>
   </separator>
   <separator name="electronic dipolcorrection" >
    <i type="logical" name="LDIPOL"> F  </i>
    <i type="logical" name="LMONO"> F  </i>
    <i type="int" name="IDIPOL">     0</i>
    <i name="EPSILON">      1.00000000</i>
    <v name="DIPOL">   -100.00000000   -100.00000000   -100.00000000</v>
    <i name="EFIELD">      0.00000000</i>
   </separator>
  </separator>
  <separator name="grids" >
   <i type="int" name="NGX">    54</i>
   <i type="int" name="NGY">    54</i>
   <i type="int" name="NGZ">    54</i>
   <i type="int" name="NGXF">   108</i>
   <i type="int" name="NGYF">   108</i>
   <i type="int" name="NGZF">   108</i>
   <i type="logical" name="ADDGRID"> T  </i>
  </separator>
  <separator name="ionic" >
   <i type="int" name="NSW">     0</i>
   <i type="int" name="IBRION">    -1</i>
   <i type="int" name="MDALGO">     0</i>
   <i type="int" name="ISIF">    -1</i>
   <i name="PSTRESS">      0.00000000</i>
   <i name="EDIFFG">      0.00000001</i>
   <i type="int" name="NFREE">     0</i>
   <i name="POTIM">      0.50000000</i>
   <i name="SMASS">     -3.00000000</i>
   <i name="SCALEE">      1.00000000</i>
  </separator>
  <separator name="ionic md" >
   <i name="TEBEG">      0.00010000</i>
   <i name="TEEND">      0.00010000</i>
   <i type="int" name="NBLOCK">     1</i>
   <i type="int" name="KBLOCK">     1</i>
   <i type="int" name="NPACO">   256</i>
   <i name="APACO">     16.00000000</i>
  </separator>
  <separator name="symmetry" >
   <i type="int" name="ISYM">     2</i>
   <i name="SYMPREC">      0.00001000</i>
  </separator>
  <separator name="dos" >
   <i type="int" name="LORBIT">     0</i>
   <v name="RWIGS">     -1.00000000     -1.00000000     -1.00000000</v>
   <i type="int" name="NEDOS">   301</i>
   <i name="EMIN">     10.00000000</i>
   <i name="EMAX">    -10.00000000</i>
   <i name="EFERMI">      0.00000000</i>
  </separator>
  <separator name="writing" >
   <i type="int" name="NWRITE">     2</i>
   <i type="logical" name="LWAVE"> T  </i>
   <i type="logical" name="LDOWNSAMPLE"> F  </i>
   <i type="logical" name="LCHARG"> T  </i>
   <i type="logical" name="LPARD"> F  </i>
   <i type="logical" name="LVTOT"> F  </i>
   <i type="logical" name="LVHAR"> F  </i>
   <i type="logical" name="LELF"> F  </i>
   <i type="logical" name="LOPTICS"> F  </i>
   <v name="STM">      0.00000000      0.00000000      0.00000000      0.00000000      0.00000000      0.00000000      0.00000000</v>
  </separator>
  <separator name="performance" >
   <i type="int" name="NPAR">     6</i>
   <i type="int" name="NSIM">     4</i>
   <i type="int" name="NBLK">    -1</i>
   <i type="logical" name="LPLANE"> T  </i>
   <i type="logical" name="LSCALAPACK"> T  </i>
   <i type="logical" name="LSCAAWARE"> F  </i>
   <i type="logical" name="LSCALU"> F  </i>
   <i type="logical" name="LASYNC"> F  </i>
   <i type="logical" name="LORBITALREAL"> F  </i>
  </separator>
  <separator name="miscellaneous" >
   <i type="int" name="IDIOT">     3</i>
   <i type="int" name="PHON_NSTRUCT">    -1</i>
   <i type="logical" name="LMUSIC"> F  </i>
   <v name="POMASS">     10.81100000     95.94000000     28.08500000</v>
   <v name="DARWINR">      0.00000000      0.00000000      0.00000000</v>
   <v name="DARWINV">      1.00000000      1.00000000      1.00000000</v>
   <i type="logical" name="LCORR"> T  </i>
  </separator>
  <i type="logical" name="GGA_COMPAT"> T  </i>
  <i type="logical" name="LBERRY"> F  </i>
  <i type="int" name="ICORELEVEL">     0</i>
  <i type="logical" name="LDAU"> F  </i>
  <i type="int" name="I_CONSTRAINED_M">     0</i>
  <separator name="electronic exchange-correlation" >
   <i type="string" name="GGA">--</i>
   <i type="int" name="VOSKOWN">     0</i>
   <i type="logical" name="LHFCALC"> F  </i>
   <i type="string" name="PRECFOCK"></i>
   <i type="logical" name="LSYMGRAD"> F  </i>
   <i type="logical" name="LHFONE"> F  </i>
   <i type="logical" name="LRHFCALC"> F  </i>
   <i type="logical" name="LTHOMAS"> F  </i>
   <i type="logical" name="LMODELHF"> F  </i>
   <i type="logical" name="LFOCKACE"> F  </i>
   <i name="ENCUT4O">     -1.00000000</i>
   <i type="int" name="EXXOEP">     0</i>
   <i type="int" name="FOURORBIT">     0</i>
   <i name="AEXX">      0.00000000</i>
   <i name="HFALPHA">      0.00000000</i>
   <i name="MCALPHA">      0.00000000</i>
   <i name="ALDAX">      1.00000000</i>
   <i name="AGGAX">      1.00000000</i>
   <i name="ALDAC">      1.00000000</i>
   <i name="AGGAC">      1.00000000</i>
   <i type="int" name="NKREDX">     1</i>
   <i type="int" name="NKREDY">     1</i>
   <i type="int" name="NKREDZ">     1</i>
   <i type="logical" name="SHIFTRED"> F  </i>
   <i type="logical" name="ODDONLY"> F  </i>
   <i type="logical" name="EVENONLY"> F  </i>
   <i type="int" name="LMAXFOCK">     0</i>
   <i type="int" name="NMAXFOCKAE">     0</i>
   <i type="logical" name="LFOCKAEDFT"> F  </i>
   <i name="HFSCREEN">      0.00000000</i>
   <i name="HFSCREENC">      0.00000000</i>
   <i type="int" name="NBANDSGWLOW">     0</i>
  </separator>
  <separator name="vdW DFT" >
   <i type="logical" name="LUSE_VDW"> F  </i>
   <i name="Zab_VDW">     -0.84910000</i>
   <i name="PARAM1">      0.12340000</i>
   <i name="PARAM2">      1.00000000</i>
   <i name="PARAM3">      0.00000000</i>
  </separator>
  <separator name="model GW" >
   <i type="int" name="MODEL_GW">     0</i>
   <i name="MODEL_EPS0">     11.45212157</i>
   <i name="MODEL_ALPHA">      1.00000000</i>
  </separator>
  <separator name="linear response parameters" >
   <i type="logical" name="LEPSILON"> F  </i>
   <i type="logical" name="LRPA"> F  </i>
   <i type="logical" name="LNABLA"> F  </i>
   <i type="logical" name="LVEL"> F  </i>
   <i type="int" name="KINTER">     0</i>
   <i name="CSHIFT">      0.10000000</i>
   <i name="OMEGAMAX">     -1.00000000</i>
   <i name="DEG_THRESHOLD">      0.00200000</i>
   <i name="RTIME">     -0.10000000</i>
   <i name="WPLASMAI">      0.00000000</i>
   <v name="DFIELD">      0.00000000      0.00000000      0.00000000</v>
   <v name="WPLASMA">      0.00000000      0.00000000      0.00000000      0.00000000      0.00000000      0.00000000      0.00000000      0.00000000      0.00000000</v>
  </separator>
  <separator name="orbital magnetization" >
   <i type="logical" name="NUCIND"> F  </i>
   <v name="MAGPOS">      0.00000000      0.00000000      0.00000000</v>
   <i type="logical" name="LNICSALL"> T  </i>
   <i type="logical" name="ORBITALMAG"> F  </i>
   <i type="logical" name="LMAGBLOCH"> F  </i>
   <i type="logical" name="LCHIMAG"> F  </i>
   <i type="logical" name="LGAUGE"> T  </i>
   <i type="int" name="MAGATOM">     0</i>
   <v name="MAGDIPOL">      0.00000000      0.00000000      0.00000000</v>
   <v name="AVECCONST">      0.00000000      0.00000000      0.00000000</v>
  </separator>
  <separator name="response functions" >
   <i type="logical" name="LFINITE_TEMPERATURE"> F  </i>
   <i type="logical" name="LADDER"> F  </i>
   <i type="logical" name="LRPAFORCE"> F  </i>
   <i type="logical" name="LFXC"> F  </i>
   <i type="logical" name="LHARTREE"> T  </i>
   <i type="int" name="IBSE">     0</i>
   <v type="int" name="KPOINT">    -1     0     0     0</v>
   <i type="logical" name="LTCTC"> F  </i>
   <i type="logical" name="LTCTE"> F  </i>
   <i type="logical" name="LTETE"> F  </i>
   <i type="logical" name="LTRIPLET"> F  </i>
   <i type="logical" name="LFXCEPS"> F  </i>
   <i type="logical" name="LFXHEG"> F  </i>
   <i type="int" name="NATURALO">     2</i>
   <i type="logical" name="LHOLEGF"> F  </i>
   <i type="logical" name="L2ORDER"> F  </i>
   <i type="logical" name="LDMP1"> F  </i>
   <i type="logical" name="LMP2LT"> F  </i>
   <i type="logical" name="LSMP2LT"> F  </i>
   <i type="logical" name="LGWLF"> F  </i>
   <i name="ENCUTGW">     -2.00000000</i>
   <i name="ENCUTGWSOFT">     -2.00000000</i>
   <i name="ENCUTLF">     -1.00000000</i>
   <i type="logical" name="LESF_SPLINES"> F  </i>
   <i type="int" name="LMAXMP2">    -1</i>
   <i name="SCISSOR">      0.00000000</i>
   <i type="int" name="NOMEGA">     0</i>
   <i type="int" name="NOMEGAR">     0</i>
   <i type="int" name="NBANDSGW">    -1</i>
   <i type="int" name="NBANDSO">    -1</i>
   <i type="int" name="NBANDSV">    -1</i>
   <i type="int" name="NELM">   100</i>
   <i type="int" name="NELMHF">     1</i>
   <i type="int" name="DIM">     3</i>
   <i type="int" name="IESPILON">     4</i>
   <i type="int" name="ANTIRES">     0</i>
   <i name="OMEGAMAX">    -30.00000000</i>
   <i name="OMEGAMIN">    -30.00000000</i>
   <i name="OMEGATL">   -200.00000000</i>
   <i type="int" name="OMEGAGRID">     0</i>
   <i name="CSHIFT">     -0.10000000</i>
   <i type="logical" name="LSELFENERGY"> F  </i>
   <i type="logical" name="LSPECTRAL"> F  </i>
   <i type="logical" name="LSPECTRALGW"> F  </i>
   <i type="logical" name="LSINGLES"> F  </i>
   <i type="logical" name="LFERMIGW"> F  </i>
   <i type="logical" name="ODDONLYGW"> F  </i>
   <i type="logical" name="EVENONLYGW"> F  </i>
   <i type="int" name="NKREDLFX">     1</i>
   <i type="int" name="NKREDLFY">     1</i>
   <i type="int" name="NKREDLFZ">     1</i>
   <i type="int" name="MAXMEM">  2800</i>
   <i type="int" name="TELESCOPE">     0</i>
   <i type="int" name="NTAUPAR">    -1</i>
   <i type="int" name="NOMEGAPAR">    -1</i>
   <i name="DAMP_NEWTON">      0.80000001</i>
   <i name="LAMBDA">      1.00000000</i>
  </separator>
  <separator name="External order field" >
   <i name="OFIELD_KAPPA">      0.00000000</i>
   <v name="OFIELD_K">      0.00000000      0.00000000      0.00000000</v>
   <i name="OFIELD_Q6_NEAR">      0.00000000</i>
   <i name="OFIELD_Q6_FAR">      0.00000000</i>
   <i name="OFIELD_A">      0.00000000</i>
  </separator>
 </parameters>
 <atominfo>
  <atoms>      10 </atoms>
  <types>       3 </types>
  <array name="atoms" >
   <dimension dim="1">ion</dimension>
   <field type="string">element</field>
   <field type="int">atomtype</field>
   <set>
    <rc><c>B </c><c>   1</c></rc>
    <rc><c>B </c><c>   1</c></rc>
    <rc><c>Mo</c><c>   2</c></rc>
    <rc><c>Mo</c><c>   2</c></rc>
    <rc><c>Mo</c><c>   2</c></rc>
    <rc><c>Mo</c><c>   2</c></rc>
    <rc><c>Mo</c><c>   2</c></rc>
    <rc><c>Mo</c><c>   2</c></rc>
    <rc><c>Si</c><c>   3</c></rc>
    <rc><c>Si</c><c>   3</c></rc>
   </set>
  </array>
  <array name="atomtypes" >
   <dimension dim="1">type</dimension>
   <field type="int">atomspertype</field>
   <field type="string">element</field>
   <field>mass</field>
   <field>valence</field>
   <field type="string">pseudopotential</field>
   <set>
    <rc><c>   2</c><c>B </c><c>     10.81100000</c><c>      3.00000000</c><c>  PAW_PBE B 06Sep2000                   </c></rc>
    <rc><c>   6</c><c>Mo</c><c>     95.94000000</c><c>     14.00000000</c><c>  PAW_PBE Mo_sv 02Feb2006               </c></rc>
    <rc><c>   2</c><c>Si</c><c>     28.08500000</c><c>      4.00000000</c><c>  PAW_PBE Si 05Jan2001                  </c></rc>
   </set>
  </array>
 </atominfo>
 <structure name="initialpos" >
  <crystal>
   <varray name="basis" >
    <v>       5.65549896       0.00000000      -2.99911017 </v>
    <v>      -2.04693033       5.27207214      -2.99911017 </v>
    <v>       0.00000000       0.00000000       6.40151000 </v>
   </varray>
   <i name="volume">    190.86869291 </i>
   <varray name="rec_basis" >
    <v>       0.17681906       0.06865162       0.00000000 </v>
    <v>       0.00000000       0.18967874       0.00000000 </v>
    <v>       0.08283980       0.12102788       0.15621314 </v>
   </varray>
  </crystal>
  <varray name="positions" >
   <v>       0.25000000       0.25000000       0.00000000 </v>
   <v>       0.75000000       0.75000000       0.00000000 </v>
   <v>       0.50000000       0.00000000       0.00000000 </v>
   <v>       0.50000000       0.50000000       0.00000000 </v>
   <v>       0.00000000       0.00000000       0.50000000 </v>
   <v>       0.00000000       0.50000000       0.00000000 </v>
   <v>       0.50000000       0.50000000       0.50000000 </v>
   <v>       0.00000000       0.00000000       0.00000000 </v>
   <v>       0.25000000       0.75000000       0.50000000 </v>
   <v>       0.75000000       0.25000000       0.50000000 </v>
  </varray>
 </structure>
 <calculation>
  <scstep>
   <time name="total">   30.14   30.45</time>
   <energy>
    <i name="alphaZ">    437.70638537 </i>
    <i name="ewald">  -8153.03968074 </i>
    <i name="hartreedc">  -3048.78286762 </i>
    <i name="XCdc">    459.79494936 </i>
    <i name="pawpsdc">   9166.97638771 </i>
    <i name="pawaedc">  -9126.13493418 </i>
    <i name="eentropy">     -0.00063163 </i>
    <i name="bandstr">   -275.88653654 </i>
    <i name="atom">  11522.16744521 </i>
    <i name="e_fr_energy">    982.80051694 </i>
    <i name="e_wo_entrp">    982.80114857 </i>
    <i name="e_0_energy">    982.80083275 </i>
   </energy>
  </scstep>
  <scstep>
   <time name="total">   32.54   33.18</time>
   <energy>
    <i name="e_fr_energy">   -173.79843631 </i>
    <i name="e_wo_entrp">   -173.79683077 </i>
    <i name="e_0_energy">   -173.79763354 </i>
   </energy>
  </scstep>
  <scstep>
   <time name="total">   36.85   37.60</time>
   <energy>
    <i name="e_fr_energy">   -222.81799316 </i>
    <i name="e_wo_entrp">   -222.81527915 </i>
    <i name="e_0_energy">   -222.81663615 </i>
   </energy>
  </scstep>
  <scstep>
   <time name="total">   36.13   36.84</time>
   <energy>
    <i name="e_fr_energy">   -224.30954393 </i>
    <i name="e_wo_entrp">   -224.30653080 </i>
    <i name="e_0_energy">   -224.30803736 </i>
   </energy>
  </scstep>
  <scstep>
   <time name="total">   38.84   39.57</time>
   <energy>
    <i name="e_fr_energy">   -224.35628928 </i>
    <i name="e_wo_entrp">   -224.35328864 </i>
    <i name="e_0_energy">   -224.35478896 </i>
   </energy>
  </scstep>
  <scstep>
   <time name="total">   39.76   40.27</time>
   <energy>
    <i name="e_fr_energy">   -152.48090770 </i>
    <i name="e_wo_entrp">   -152.47835596 </i>
    <i name="e_0_energy">   -152.47963183 </i>
   </energy>
  </scstep>
  <scstep>
   <time name="total">   43.34   43.97</time>
   <energy>
    <i name="e_fr_energy">   -171.91017901 </i>
    <i name="e_wo_entrp">   -171.90695000 </i>
    <i name="e_0_energy">   -171.90856450 </i>
   </energy>
  </scstep>
  <scstep>
   <time name="total">   43.17   43.89</time>
   <energy>
    <i name="e_fr_energy">   -176.38828499 </i>
    <i name="e_wo_entrp">   -176.38484593 </i>
    <i name="e_0_energy">   -176.38656546 </i>
   </energy>
  </scstep>
  <scstep>
   <time name="total">   47.14   48.02</time>
   <energy>
    <i name="e_fr_energy">   -177.57864968 </i>
    <i name="e_wo_entrp">   -177.57568578 </i>
    <i name="e_0_energy">   -177.57716773 </i>
   </energy>
  </scstep>
  <scstep>
   <time name="total">   43.34   43.98</time>
   <energy>
    <i name="e_fr_energy">   -178.03116757 </i>
    <i name="e_wo_entrp">   -178.02842133 </i>
    <i name="e_0_energy">   -178.02979445 </i>
   </energy>
  </scstep>
  <scstep>
   <time name="total">   48.30   48.87</time>
   <energy>
    <i name="e_fr_energy">   -178.24707228 </i>
    <i name="e_wo_entrp">   -178.24449344 </i>
    <i name="e_0_energy">   -178.24578286 </i>
   </energy>
  </scstep>
  <scstep>
   <time name="total">   44.29   44.85</time>
   <energy>
    <i name="e_fr_energy">   -178.33299096 </i>
    <i name="e_wo_entrp">   -178.33042541 </i>
    <i name="e_0_energy">   -178.33170819 </i>
   </energy>
  </scstep>
  <scstep>
   <time name="total">   44.85   45.63</time>
   <energy>
    <i name="e_fr_energy">   -178.38165282 </i>
    <i name="e_wo_entrp">   -178.37936355 </i>
    <i name="e_0_energy">   -178.38050819 </i>
   </energy>
  </scstep>
  <scstep>
   <time name="total">   44.84   45.30</time>
   <energy>
    <i name="e_fr_energy">   -178.41237358 </i>
    <i name="e_wo_entrp">   -178.41017457 </i>
    <i name="e_0_energy">   -178.41127407 </i>
   </energy>
  </scstep>
  <scstep>
   <time name="total">   43.68   44.33</time>
   <energy>
    <i name="e_fr_energy">   -178.43126389 </i>
    <i name="e_wo_entrp">   -178.42898039 </i>
    <i name="e_0_energy">   -178.43012214 </i>
   </energy>
  </scstep>
  <scstep>
   <time name="total">   41.65   42.09</time>
   <energy>
    <i name="e_fr_energy">   -178.44321394 </i>
    <i name="e_wo_entrp">   -178.44090908 </i>
    <i name="e_0_energy">   -178.44206151 </i>
   </energy>
  </scstep>
  <scstep>
   <time name="total">   44.20   44.68</time>
   <energy>
    <i name="e_fr_energy">   -178.44948627 </i>
    <i name="e_wo_entrp">   -178.44712986 </i>
    <i name="e_0_energy">   -178.44830806 </i>
   </energy>
  </scstep>
  <scstep>
   <time name="total">   45.41   45.83</time>
   <energy>
    <i name="e_fr_energy">   -178.45347720 </i>
    <i name="e_wo_entrp">   -178.45111036 </i>
    <i name="e_0_energy">   -178.45229378 </i>
   </energy>
  </scstep>
  <scstep>
   <time name="total">   41.19   41.58</time>
   <energy>
    <i name="e_fr_energy">   -178.45527184 </i>
    <i name="e_wo_entrp">   -178.45288361 </i>
    <i name="e_0_energy">   -178.45407773 </i>
   </energy>
  </scstep>
  <scstep>
   <time name="total">   41.91   42.46</time>
   <energy>
    <i name="e_fr_energy">   -178.45633097 </i>
    <i name="e_wo_entrp">   -178.45394297 </i>
    <i name="e_0_energy">   -178.45513697 </i>
   </energy>
  </scstep>
  <scstep>
   <time name="total">   45.13   46.17</time>
   <energy>
    <i name="e_fr_energy">   -178.45705026 </i>
    <i name="e_wo_entrp">   -178.45466001 </i>
    <i name="e_0_energy">   -178.45585514 </i>
   </energy>
  </scstep>
  <scstep>
   <time name="total">   44.46   45.24</time>
   <energy>
    <i name="e_fr_energy">   -178.45742430 </i>
    <i name="e_wo_entrp">   -178.45504218 </i>
    <i name="e_0_energy">   -178.45623324 </i>
   </energy>
  </scstep>
  <scstep>
   <time name="total">   45.37   45.84</time>
   <energy>
    <i name="e_fr_energy">   -178.45763339 </i>
    <i name="e_wo_entrp">   -178.45525603 </i>
    <i name="e_0_energy">   -178.45644471 </i>
   </energy>
  </scstep>
  <scstep>
   <time name="total">   44.14   44.56</time>
   <energy>
    <i name="e_fr_energy">   -178.45775555 </i>
    <i name="e_wo_entrp">   -178.45538521 </i>
    <i name="e_0_energy">   -178.45657038 </i>
   </energy>
  </scstep>
  <scstep>
   <time name="total">   40.03   40.93</time>
   <energy>
    <i name="e_fr_energy">   -178.45781416 </i>
    <i name="e_wo_entrp">   -178.45544739 </i>
    <i name="e_0_energy">   -178.45663078 </i>
   </energy>
  </scstep>
  <scstep>
   <time name="total">   43.63   44.31</time>
   <energy>
    <i name="e_fr_energy">   -178.45785049 </i>
    <i name="e_wo_entrp">   -178.45548769 </i>
    <i name="e_0_energy">   -178.45666909 </i>
   </energy>
  </scstep>
  <scstep>
   <time name="total">   45.73   46.34</time>
   <energy>
    <i name="e_fr_energy">   -178.45787139 </i>
    <i name="e_wo_entrp">   -178.45550962 </i>
    <i name="e_0_energy">   -178.45669051 </i>
   </energy>
  </scstep>
  <scstep>
   <time name="total">   43.55   44.24</time>
   <energy>
    <i name="e_fr_energy">   -178.45788228 </i>
    <i name="e_wo_entrp">   -178.45552184 </i>
    <i name="e_0_energy">   -178.45670206 </i>
   </energy>
  </scstep>
  <scstep>
   <time name="total">   41.79   42.34</time>
   <energy>
    <i name="e_fr_energy">   -178.45788952 </i>
    <i name="e_wo_entrp">   -178.45552881 </i>
    <i name="e_0_energy">   -178.45670917 </i>
   </energy>
  </scstep>
  <scstep>
   <time name="total">   43.18   43.86</time>
   <energy>
    <i name="e_fr_energy">   -178.45789376 </i>
    <i name="e_wo_entrp">   -178.45553298 </i>
    <i name="e_0_energy">   -178.45671337 </i>
   </energy>
  </scstep>
  <scstep>
   <time name="total">   46.44   47.28</time>
   <energy>
    <i name="e_fr_energy">   -178.45789611 </i>
    <i name="e_wo_entrp">   -178.45553450 </i>
    <i name="e_0_energy">   -178.45671531 </i>
   </energy>
  </scstep>
  <scstep>
   <time name="total">   43.80   44.44</time>
   <energy>
    <i name="e_fr_energy">   -178.45789774 </i>
    <i name="e_wo_entrp">   -178.45553568 </i>
    <i name="e_0_energy">   -178.45671671 </i>
   </energy>
  </scstep>
  <scstep>
   <time name="total">   45.29   45.72</time>
   <energy>
    <i name="e_fr_energy">   -178.45789863 </i>
    <i name="e_wo_entrp">   -178.45553590 </i>
    <i name="e_0_energy">   -178.45671727 </i>
   </energy>
  </scstep>
  <scstep>
   <time name="total">   43.27   43.65</time>
   <energy>
    <i name="e_fr_energy">   -178.45789916 </i>
    <i name="e_wo_entrp">   -178.45553613 </i>
    <i name="e_0_energy">   -178.45671764 </i>
   </energy>
  </scstep>
  <scstep>
   <time name="total">   39.93   40.30</time>
   <energy>
    <i name="e_fr_energy">   -178.45789949 </i>
    <i name="e_wo_entrp">   -178.45553619 </i>
    <i name="e_0_energy">   -178.45671784 </i>
   </energy>
  </scstep>
  <scstep>
   <time name="total">   43.58   44.31</time>
   <energy>
    <i name="e_fr_energy">   -178.45789965 </i>
    <i name="e_wo_entrp">   -178.45553633 </i>
    <i name="e_0_energy">   -178.45671799 </i>
   </energy>
  </scstep>
  <scstep>
   <time name="total">   41.04   41.41</time>
   <energy>
    <i name="e_fr_energy">   -178.45789976 </i>
    <i name="e_wo_entrp">   -178.45553643 </i>
    <i name="e_0_energy">   -178.45671809 </i>
   </energy>
  </scstep>
  <scstep>
   <time name="total">   40.78   41.18</time>
   <energy>
    <i name="e_fr_energy">   -178.45789980 </i>
    <i name="e_wo_entrp">   -178.45553658 </i>
    <i name="e_0_energy">   -178.45671819 </i>
   </energy>
  </scstep>
  <scstep>
   <time name="total">   43.52   43.95</time>
   <energy>
    <i name="e_fr_energy">   -178.45789985 </i>
    <i name="e_wo_entrp">   -178.45553673 </i>
    <i name="e_0_energy">   -178.45671829 </i>
   </energy>
  </scstep>
  <scstep>
   <time name="total">   45.54   45.99</time>
   <energy>
    <i name="e_fr_energy">   -178.45789988 </i>
    <i name="e_wo_entrp">   -178.45553679 </i>
    <i name="e_0_energy">   -178.45671834 </i>
   </energy>
  </scstep>
  <scstep>
   <time name="total">   43.84   44.40</time>
   <energy>
    <i name="e_fr_energy">   -178.45789989 </i>
    <i name="e_wo_entrp">   -178.45553687 </i>
    <i name="e_0_energy">   -178.45671838 </i>
   </energy>
  </scstep>
  <scstep>
   <time name="total">   42.54   43.16</time>
   <energy>
    <i name="e_fr_energy">   -178.45789990 </i>
    <i name="e_wo_entrp">   -178.45553693 </i>
    <i name="e_0_energy">   -178.45671842 </i>
   </energy>
  </scstep>
  <scstep>
   <time name="total">   43.12   43.66</time>
   <energy>
    <i name="e_fr_energy">   -178.45789990 </i>
    <i name="e_wo_entrp">   -178.45553693 </i>
    <i name="e_0_energy">   -178.45671842 </i>
   </energy>
  </scstep>
  <scstep>
   <time name="total">   43.98   44.73</time>
   <energy>
    <i name="e_fr_energy">   -178.45789990 </i>
    <i name="e_wo_entrp">   -178.45553693 </i>
    <i name="e_0_energy">   -178.45671842 </i>
   </energy>
  </scstep>
  <scstep>
   <time name="total">   50.83   51.32</time>
   <energy>
    <i name="alphaZ">    437.70638537 </i>
    <i name="ewald">  -8153.03968074 </i>
    <i name="hartreedc">  -2907.35353103 </i>
    <i name="XCdc">    467.05234788 </i>
    <i name="pawpsdc">  11234.68486213 </i>
    <i name="pawaedc"> -11211.64993308 </i>
    <i name="eentropy">     -0.00236297 </i>
    <i name="bandstr">  -1568.02343268 </i>
    <i name="atom">  11522.16744521 </i>
    <i name="e_fr_energy">   -178.45789990 </i>
    <i name="e_wo_entrp">   -178.45553693 </i>
    <i name="e_0_energy">   -178.45671842 </i>
   </energy>
  </scstep>
  <structure>
   <crystal>
    <varray name="basis" >
     <v>       5.65549896       0.00000000      -2.99911017 </v>
     <v>      -2.04693033       5.27207214      -2.99911017 </v>
     <v>       0.00000000       0.00000000       6.40151000 </v>
    </varray>
    <i name="volume">    190.86869291 </i>
    <varray name="rec_basis" >
     <v>       0.17681906       0.06865162       0.00000000 </v>
     <v>       0.00000000       0.18967874       0.00000000 </v>
     <v>       0.08283980       0.12102788       0.15621314 </v>
    </varray>
   </crystal>
   <varray name="positions" >
    <v>       0.25000000       0.25000000       0.00000000 </v>
    <v>       0.75000000       0.75000000       0.00000000 </v>
    <v>       0.50000000       0.00000000       0.00000000 </v>
    <v>       0.50000000       0.50000000       0.00000000 </v>
    <v>       0.00000000       0.00000000       0.50000000 </v>
    <v>       0.00000000       0.50000000       0.00000000 </v>
    <v>       0.50000000       0.50000000       0.50000000 </v>
    <v>       0.00000000       0.00000000       0.00000000 </v>
    <v>       0.25000000       0.75000000       0.50000000 </v>
    <v>       0.75000000       0.25000000       0.50000000 </v>
   </varray>
  </structure>
  <varray name="forces" >
   <v>       0.00000000       0.00000000       0.00000000 </v>
   <v>       0.00000000       0.00000000       0.00000000 </v>
   <v>       0.00000000       0.00000000       0.00000000 </v>
   <v>       0.00000000       0.00000000       0.00000000 </v>
   <v>       0.00000000       0.00000000       0.00000000 </v>
   <v>       0.00000000       0.00000000       0.00000000 </v>
   <v>       0.00000000       0.00000000       0.00000000 </v>
   <v>       0.00000000       0.00000000       0.00000000 </v>
   <v>       0.00000000       0.00000000       0.00000000 </v>
   <v>       0.00000000       0.00000000       0.00000000 </v>
  </varray>
  <varray name="stress" >
   <v>       0.00000000       0.00000000       0.00000000 </v>
   <v>       0.00000000       0.00000000       0.00000000 </v>
   <v>       0.00000000       0.00000000       0.00000000 </v>
  </varray>
  <energy>
   <i name="e_fr_energy">   -178.45789990 </i>
   <i name="e_wo_entrp">   -178.45553693 </i>
   <i name="e_0_energy">   -178.45671842 </i>
  </energy>
  <time name="totalsc"> 1930.23 1956.94</time>
  <eigenvalues>
   <array>
    <dimension dim="1">band</dimension>
    <dimension dim="2">kpoint</dimension>
    <dimension dim="3">spin</dimension>
    <field>eigene</field>
    <field>occ</field>
    <set>
     <set comment="spin 1">
      <set comment="kpoint 1">
       <r>  -56.3901    1.0000 </r>
       <r>  -56.3874    1.0000 </r>
       <r>  -56.1465    1.0000 </r>
       <r>  -56.1351    1.0000 </r>
       <r>  -56.1351    1.0000 </r>
       <r>  -56.1219    1.0000 </r>
       <r>  -29.8361    1.0000 </r>
       <r>  -29.8281    1.0000 </r>
       <r>  -29.8128    1.0000 </r>
       <r>  -29.8127    1.0000 </r>
       <r>  -29.7738    1.0000 </r>
       <r>  -29.7738    1.0000 </r>
       <r>  -29.7057    1.0000 </r>
       <r>  -29.6923    1.0000 </r>
       <r>  -29.6923    1.0000 </r>
       <r>  -29.5908    1.0000 </r>
       <r>  -29.4470    1.0000 </r>
       <r>  -29.4470    1.0000 </r>
       <r>  -29.4325    1.0000 </r>
       <r>  -29.4065    1.0000 </r>
       <r>  -29.3521    1.0000 </r>
       <r>  -29.3394    1.0000 </r>
       <r>  -29.3394    1.0000 </r>
       <r>  -29.3285    1.0000 </r>
       <r>   -3.4372    1.0000 </r>
       <r>   -1.8435    1.0000 </r>
       <r>    0.0305    1.0000 </r>
       <r>    0.7506    1.0000 </r>
       <r>    0.9465    1.0000 </r>
       <r>    0.9465    1.0000 </r>
       <r>    1.7333    1.0000 </r>
       <r>    2.6995    1.0000 </r>
       <r>    2.9122    1.0000 </r>
       <r>    2.9122    1.0000 </r>
       <r>    3.5495    1.0000 </r>
       <r>    3.8506    1.0000 </r>
       <r>    4.1835    1.0000 </r>
       <r>    4.1835    1.0000 </r>
       <r>    4.5839    1.0000 </r>
       <r>    4.9355    1.0000 </r>
       <r>    4.9355    1.0000 </r>
       <r>    5.6247    1.0000 </r>
       <r>    5.9258    1.0000 </r>
       <r>    5.9713    1.0000 </r>
       <r>    6.3161    1.0000 </r>
       <r>    6.6362    1.0000 </r>
       <r>    6.6362    1.0000 </r>
       <r>    6.6872    1.0000 </r>
       <r>    6.6872    1.0000 </r>
       <r>    7.3745    0.0000 </r>
       <r>    7.4624    0.0000 </r>
       <r>    7.5981    0.0000 </r>
       <r>    7.7012    0.0000 </r>
       <r>    7.8722    0.0000 </r>
       <r>    7.8722    0.0000 </r>
       <r>    8.3042    0.0000 </r>
       <r>    8.3127    0.0000 </r>
       <r>    8.5629    0.0000 </r>
       <r>    8.9544    0.0000 </r>
       <r>    8.9551    0.0000 </r>
      </set>
      <set comment="kpoint 2">
       <r>  -56.3898    1.0000 </r>
       <r>  -56.3874    1.0000 </r>
       <r>  -56.1460    1.0000 </r>
       <r>  -56.1358    1.0000 </r>
       <r>  -56.1344    1.0000 </r>
       <r>  -56.1226    1.0000 </r>
       <r>  -29.8264    1.0000 </r>
       <r>  -29.8200    1.0000 </r>
       <r>  -29.8095    1.0000 </r>
       <r>  -29.8049    1.0000 </r>
       <r>  -29.7708    1.0000 </r>
       <r>  -29.7704    1.0000 </r>
       <r>  -29.7011    1.0000 </r>
       <r>  -29.6976    1.0000 </r>
       <r>  -29.6894    1.0000 </r>
       <r>  -29.5964    1.0000 </r>
       <r>  -29.4573    1.0000 </r>
       <r>  -29.4475    1.0000 </r>
       <r>  -29.4400    1.0000 </r>
       <r>  -29.4117    1.0000 </r>
       <r>  -29.3531    1.0000 </r>
       <r>  -29.3428    1.0000 </r>
       <r>  -29.3415    1.0000 </r>
       <r>  -29.3326    1.0000 </r>
       <r>   -3.3258    1.0000 </r>
       <r>   -1.7686    1.0000 </r>
       <r>   -0.3746    1.0000 </r>
       <r>    0.3245    1.0000 </r>
       <r>    1.0716    1.0000 </r>
       <r>    1.4331    1.0000 </r>
       <r>    2.0257    1.0000 </r>
       <r>    2.8023    1.0000 </r>
       <r>    3.0057    1.0000 </r>
       <r>    3.0353    1.0000 </r>
       <r>    3.5576    1.0000 </r>
       <r>    3.8950    1.0000 </r>
       <r>    4.1444    1.0000 </r>
       <r>    4.1683    1.0000 </r>
       <r>    4.5681    1.0000 </r>
       <r>    4.7261    1.0000 </r>
       <r>    4.8366    1.0000 </r>
       <r>    5.6066    1.0000 </r>
       <r>    5.6408    1.0000 </r>
       <r>    5.9079    1.0000 </r>
       <r>    6.0008    1.0000 </r>
       <r>    6.6185    1.0000 </r>
       <r>    6.6199    1.0000 </r>
       <r>    6.7110    1.0000 </r>
       <r>    6.7289    1.0000 </r>
       <r>    7.0376    0.0000 </r>
       <r>    7.3428    0.0000 </r>
       <r>    7.4337    0.0000 </r>
       <r>    7.4984    0.0000 </r>
       <r>    7.7389    0.0000 </r>
       <r>    7.7566    0.0000 </r>
       <r>    8.3133    0.0000 </r>
       <r>    8.4123    0.0000 </r>
       <r>    8.6719    0.0000 </r>
       <r>    8.7461    0.0000 </r>
       <r>    9.0283    0.0000 </r>
      </set>
      <set comment="kpoint 3">
       <r>  -56.3891    1.0000 </r>
       <r>  -56.3875    1.0000 </r>
       <r>  -56.1448    1.0000 </r>
       <r>  -56.1376    1.0000 </r>
       <r>  -56.1326    1.0000 </r>
       <r>  -56.1244    1.0000 </r>
       <r>  -29.8136    1.0000 </r>
       <r>  -29.8034    1.0000 </r>
       <r>  -29.7904    1.0000 </r>
       <r>  -29.7856    1.0000 </r>
       <r>  -29.7640    1.0000 </r>
       <r>  -29.7550    1.0000 </r>
       <r>  -29.7135    1.0000 </r>
       <r>  -29.6892    1.0000 </r>
       <r>  -29.6803    1.0000 </r>
       <r>  -29.6129    1.0000 </r>
       <r>  -29.4835    1.0000 </r>
       <r>  -29.4625    1.0000 </r>
       <r>  -29.4481    1.0000 </r>
       <r>  -29.4247    1.0000 </r>
       <r>  -29.3548    1.0000 </r>
       <r>  -29.3488    1.0000 </r>
       <r>  -29.3464    1.0000 </r>
       <r>  -29.3412    1.0000 </r>
       <r>   -3.0011    1.0000 </r>
       <r>   -1.5486    1.0000 </r>
       <r>   -1.1006    1.0000 </r>
       <r>   -0.2149    1.0000 </r>
       <r>    1.4391    1.0000 </r>
       <r>    2.0284    1.0000 </r>
       <r>    2.5983    1.0000 </r>
       <r>    3.0735    1.0000 </r>
       <r>    3.2802    1.0000 </r>
       <r>    3.3528    1.0000 </r>
       <r>    3.4984    1.0000 </r>
       <r>    3.6074    1.0000 </r>
       <r>    3.9525    1.0000 </r>
       <r>    4.0697    1.0000 </r>
       <r>    4.4815    1.0000 </r>
       <r>    4.5375    1.0000 </r>
       <r>    4.8169    1.0000 </r>
       <r>    5.0849    1.0000 </r>
       <r>    5.4560    1.0000 </r>
       <r>    5.6180    1.0000 </r>
       <r>    5.7165    1.0000 </r>
       <r>    6.3778    1.0000 </r>
       <r>    6.4322    1.0000 </r>
       <r>    6.6678    1.0000 </r>
       <r>    6.7190    1.0000 </r>
       <r>    6.8281    0.0241 </r>
       <r>    6.9062    0.0000 </r>
       <r>    7.3469    0.0000 </r>
       <r>    7.5014    0.0000 </r>
       <r>    7.5241    0.0000 </r>
       <r>    7.5952    0.0000 </r>
       <r>    7.9242    0.0000 </r>
       <r>    8.1760    0.0000 </r>
       <r>    8.4173    0.0000 </r>
       <r>    8.5172    0.0000 </r>
       <r>    8.7495    0.0000 </r>
      </set>
      <set comment="kpoint 4">
       <r>  -56.3884    1.0000 </r>
       <r>  -56.3878    1.0000 </r>
       <r>  -56.1427    1.0000 </r>
       <r>  -56.1402    1.0000 </r>
       <r>  -56.1300    1.0000 </r>
       <r>  -56.1270    1.0000 </r>
       <r>  -29.8038    1.0000 </r>
       <r>  -29.8005    1.0000 </r>
       <r>  -29.7668    1.0000 </r>
       <r>  -29.7621    1.0000 </r>
       <r>  -29.7600    1.0000 </r>
       <r>  -29.7364    1.0000 </r>
       <r>  -29.7179    1.0000 </r>
       <r>  -29.6880    1.0000 </r>
       <r>  -29.6630    1.0000 </r>
       <r>  -29.6377    1.0000 </r>
       <r>  -29.5039    1.0000 </r>
       <r>  -29.4919    1.0000 </r>
       <r>  -29.4461    1.0000 </r>
       <r>  -29.4382    1.0000 </r>
       <r>  -29.3546    1.0000 </r>
       <r>  -29.3516    1.0000 </r>
       <r>  -29.3512    1.0000 </r>
       <r>  -29.3484    1.0000 </r>
       <r>   -2.4903    1.0000 </r>
       <r>   -1.8372    1.0000 </r>
       <r>   -1.1982    1.0000 </r>
       <r>   -0.7415    1.0000 </r>
       <r>    2.0238    1.0000 </r>
       <r>    2.6518    1.0000 </r>
       <r>    2.7783    1.0000 </r>
       <r>    3.1889    1.0000 </r>
       <r>    3.2032    1.0000 </r>
       <r>    3.4543    1.0000 </r>
       <r>    3.7134    1.0000 </r>
       <r>    3.7223    1.0000 </r>
       <r>    3.7336    1.0000 </r>
       <r>    3.9001    1.0000 </r>
       <r>    3.9791    1.0000 </r>
       <r>    4.2337    1.0000 </r>
       <r>    5.0071    1.0000 </r>
       <r>    5.1966    1.0000 </r>
       <r>    5.3152    1.0000 </r>
       <r>    5.3263    1.0000 </r>
       <r>    5.4744    1.0000 </r>
       <r>    5.7532    1.0000 </r>
       <r>    6.3069    1.0000 </r>
       <r>    6.4710    1.0000 </r>
       <r>    6.9887    0.0000 </r>
       <r>    6.9928    0.0000 </r>
       <r>    6.9942    0.0000 </r>
       <r>    7.2258    0.0000 </r>
       <r>    7.2434    0.0000 </r>
       <r>    7.4514    0.0000 </r>
       <r>    7.4629    0.0000 </r>
       <r>    7.4635    0.0000 </r>
       <r>    8.0591    0.0000 </r>
       <r>    8.1151    0.0000 </r>
       <r>    8.5536    0.0000 </r>
       <r>    8.6226    0.0000 </r>
      </set>
      <set comment="kpoint 5">
       <r>  -56.3894    1.0000 </r>
       <r>  -56.3874    1.0000 </r>
       <r>  -56.1458    1.0000 </r>
       <r>  -56.1352    1.0000 </r>
       <r>  -56.1350    1.0000 </r>
       <r>  -56.1232    1.0000 </r>
       <r>  -29.8159    1.0000 </r>
       <r>  -29.8069    1.0000 </r>
       <r>  -29.7994    1.0000 </r>
       <r>  -29.7978    1.0000 </r>
       <r>  -29.7679    1.0000 </r>
       <r>  -29.7602    1.0000 </r>
       <r>  -29.6970    1.0000 </r>
       <r>  -29.6958    1.0000 </r>
       <r>  -29.6929    1.0000 </r>
       <r>  -29.6018    1.0000 </r>
       <r>  -29.4628    1.0000 </r>
       <r>  -29.4587    1.0000 </r>
       <r>  -29.4571    1.0000 </r>
       <r>  -29.4158    1.0000 </r>
       <r>  -29.3540    1.0000 </r>
       <r>  -29.3476    1.0000 </r>
       <r>  -29.3448    1.0000 </r>
       <r>  -29.3399    1.0000 </r>
       <r>   -3.1702    1.0000 </r>
       <r>   -1.6456    1.0000 </r>
       <r>   -0.5877    1.0000 </r>
       <r>   -0.2067    1.0000 </r>
       <r>    1.3928    1.0000 </r>
       <r>    1.5140    1.0000 </r>
       <r>    2.5013    1.0000 </r>
       <r>    2.9768    1.0000 </r>
       <r>    3.0912    1.0000 </r>
       <r>    3.2140    1.0000 </r>
       <r>    3.5773    1.0000 </r>
       <r>    3.8799    1.0000 </r>
       <r>    3.9181    1.0000 </r>
       <r>    4.1290    1.0000 </r>
       <r>    4.4622    1.0000 </r>
       <r>    4.7797    1.0000 </r>
       <r>    4.8641    1.0000 </r>
       <r>    5.1700    1.0000 </r>
       <r>    5.6416    1.0000 </r>
       <r>    5.6866    1.0000 </r>
       <r>    5.9494    1.0000 </r>
       <r>    6.4092    1.0000 </r>
       <r>    6.5896    1.0000 </r>
       <r>    6.6721    1.0000 </r>
       <r>    6.6958    1.0000 </r>
       <r>    6.7613    0.9970 </r>
       <r>    6.9430    0.0000 </r>
       <r>    7.4149    0.0000 </r>
       <r>    7.4904    0.0000 </r>
       <r>    7.4946    0.0000 </r>
       <r>    7.7450    0.0000 </r>
       <r>    8.0805    0.0000 </r>
       <r>    8.3395    0.0000 </r>
       <r>    8.4645    0.0000 </r>
       <r>    8.6185    0.0000 </r>
       <r>    9.0676    0.0000 </r>
      </set>
      <set comment="kpoint 6">
       <r>  -56.3887    1.0000 </r>
       <r>  -56.3876    1.0000 </r>
       <r>  -56.1446    1.0000 </r>
       <r>  -56.1369    1.0000 </r>
       <r>  -56.1333    1.0000 </r>
       <r>  -56.1250    1.0000 </r>
       <r>  -29.8037    1.0000 </r>
       <r>  -29.7924    1.0000 </r>
       <r>  -29.7818    1.0000 </r>
       <r>  -29.7783    1.0000 </r>
       <r>  -29.7606    1.0000 </r>
       <r>  -29.7370    1.0000 </r>
       <r>  -29.7132    1.0000 </r>
       <r>  -29.6896    1.0000 </r>
       <r>  -29.6840    1.0000 </r>
       <r>  -29.6177    1.0000 </r>
       <r>  -29.4880    1.0000 </r>
       <r>  -29.4830    1.0000 </r>
       <r>  -29.4600    1.0000 </r>
       <r>  -29.4271    1.0000 </r>
       <r>  -29.3545    1.0000 </r>
       <r>  -29.3513    1.0000 </r>
       <r>  -29.3505    1.0000 </r>
       <r>  -29.3483    1.0000 </r>
       <r>   -2.8179    1.0000 </r>
       <r>   -1.3907    1.0000 </r>
       <r>   -1.1978    1.0000 </r>
       <r>   -0.6509    1.0000 </r>
       <r>    1.6611    1.0000 </r>
       <r>    2.0903    1.0000 </r>
       <r>    3.0421    1.0000 </r>
       <r>    3.2758    1.0000 </r>
       <r>    3.3270    1.0000 </r>
       <r>    3.3411    1.0000 </r>
       <r>    3.4963    1.0000 </r>
       <r>    3.5536    1.0000 </r>
       <r>    3.7727    1.0000 </r>
       <r>    4.0578    1.0000 </r>
       <r>    4.1774    1.0000 </r>
       <r>    4.5154    1.0000 </r>
       <r>    4.8826    1.0000 </r>
       <r>    4.9813    1.0000 </r>
       <r>    5.4023    1.0000 </r>
       <r>    5.4180    1.0000 </r>
       <r>    5.8261    1.0000 </r>
       <r>    6.1195    1.0000 </r>
       <r>    6.3932    1.0000 </r>
       <r>    6.4519    1.0000 </r>
       <r>    6.5132    1.0000 </r>
       <r>    6.7539    0.9995 </r>
       <r>    6.9901    0.0000 </r>
       <r>    7.3347    0.0000 </r>
       <r>    7.4439    0.0000 </r>
       <r>    7.4451    0.0000 </r>
       <r>    7.5175    0.0000 </r>
       <r>    7.8978    0.0000 </r>
       <r>    8.1657    0.0000 </r>
       <r>    8.2574    0.0000 </r>
       <r>    8.6185    0.0000 </r>
       <r>    8.9395    0.0000 </r>
      </set>
      <set comment="kpoint 7">
       <r>  -56.3880    1.0000 </r>
       <r>  -56.3880    1.0000 </r>
       <r>  -56.1424    1.0000 </r>
       <r>  -56.1393    1.0000 </r>
       <r>  -56.1306    1.0000 </r>
       <r>  -56.1277    1.0000 </r>
       <r>  -29.7962    1.0000 </r>
       <r>  -29.7908    1.0000 </r>
       <r>  -29.7626    1.0000 </r>
       <r>  -29.7621    1.0000 </r>
       <r>  -29.7537    1.0000 </r>
       <r>  -29.7364    1.0000 </r>
       <r>  -29.7020    1.0000 </r>
       <r>  -29.6988    1.0000 </r>
       <r>  -29.6695    1.0000 </r>
       <r>  -29.6412    1.0000 </r>
       <r>  -29.5121    1.0000 </r>
       <r>  -29.4918    1.0000 </r>
       <r>  -29.4542    1.0000 </r>
       <r>  -29.4396    1.0000 </r>
       <r>  -29.3559    1.0000 </r>
       <r>  -29.3552    1.0000 </r>
       <r>  -29.3515    1.0000 </r>
       <r>  -29.3499    1.0000 </r>
       <r>   -2.3066    1.0000 </r>
       <r>   -1.9076    1.0000 </r>
       <r>   -1.0221    1.0000 </r>
       <r>   -1.0185    1.0000 </r>
       <r>    2.1330    1.0000 </r>
       <r>    2.6233    1.0000 </r>
       <r>    2.7460    1.0000 </r>
       <r>    3.0907    1.0000 </r>
       <r>    3.3489    1.0000 </r>
       <r>    3.6044    1.0000 </r>
       <r>    3.6619    1.0000 </r>
       <r>    3.6968    1.0000 </r>
       <r>    3.7440    1.0000 </r>
       <r>    3.8840    1.0000 </r>
       <r>    3.9295    1.0000 </r>
       <r>    4.0703    1.0000 </r>
       <r>    5.0233    1.0000 </r>
       <r>    5.0292    1.0000 </r>
       <r>    5.3238    1.0000 </r>
       <r>    5.4608    1.0000 </r>
       <r>    5.5166    1.0000 </r>
       <r>    5.5802    1.0000 </r>
       <r>    6.2924    1.0000 </r>
       <r>    6.3114    1.0000 </r>
       <r>    6.7619    0.9966 </r>
       <r>    6.8620    0.0000 </r>
       <r>    7.1549    0.0000 </r>
       <r>    7.1876    0.0000 </r>
       <r>    7.3977    0.0000 </r>
       <r>    7.4434    0.0000 </r>
       <r>    7.4623    0.0000 </r>
       <r>    7.5463    0.0000 </r>
       <r>    8.0333    0.0000 </r>
       <r>    8.2565    0.0000 </r>
       <r>    8.6407    0.0000 </r>
       <r>    8.6525    0.0000 </r>
      </set>
      <set comment="kpoint 8">
       <r>  -56.3887    1.0000 </r>
       <r>  -56.3876    1.0000 </r>
       <r>  -56.1418    1.0000 </r>
       <r>  -56.1397    1.0000 </r>
       <r>  -56.1306    1.0000 </r>
       <r>  -56.1277    1.0000 </r>
       <r>  -29.7963    1.0000 </r>
       <r>  -29.7953    1.0000 </r>
       <r>  -29.7706    1.0000 </r>
       <r>  -29.7622    1.0000 </r>
       <r>  -29.7602    1.0000 </r>
       <r>  -29.7342    1.0000 </r>
       <r>  -29.7303    1.0000 </r>
       <r>  -29.6858    1.0000 </r>
       <r>  -29.6653    1.0000 </r>
       <r>  -29.6431    1.0000 </r>
       <r>  -29.5084    1.0000 </r>
       <r>  -29.4774    1.0000 </r>
       <r>  -29.4473    1.0000 </r>
       <r>  -29.4399    1.0000 </r>
       <r>  -29.3579    1.0000 </r>
       <r>  -29.3563    1.0000 </r>
       <r>  -29.3470    1.0000 </r>
       <r>  -29.3444    1.0000 </r>
       <r>   -2.5279    1.0000 </r>
       <r>   -1.6921    1.0000 </r>
       <r>   -1.3520    1.0000 </r>
       <r>   -0.5772    1.0000 </r>
       <r>    2.0095    1.0000 </r>
       <r>    2.4685    1.0000 </r>
       <r>    2.7958    1.0000 </r>
       <r>    2.8379    1.0000 </r>
       <r>    3.3001    1.0000 </r>
       <r>    3.3397    1.0000 </r>
       <r>    3.5187    1.0000 </r>
       <r>    3.8306    1.0000 </r>
       <r>    3.9718    1.0000 </r>
       <r>    4.0778    1.0000 </r>
       <r>    4.1206    1.0000 </r>
       <r>    4.1869    1.0000 </r>
       <r>    4.7708    1.0000 </r>
       <r>    4.9953    1.0000 </r>
       <r>    5.2855    1.0000 </r>
       <r>    5.3312    1.0000 </r>
       <r>    5.6398    1.0000 </r>
       <r>    5.8417    1.0000 </r>
       <r>    6.3419    1.0000 </r>
       <r>    6.4289    1.0000 </r>
       <r>    6.7099    1.0000 </r>
       <r>    6.8881    0.0000 </r>
       <r>    7.1291    0.0000 </r>
       <r>    7.1884    0.0000 </r>
       <r>    7.4005    0.0000 </r>
       <r>    7.4840    0.0000 </r>
       <r>    7.5537    0.0000 </r>
       <r>    7.7693    0.0000 </r>
       <r>    8.0305    0.0000 </r>
       <r>    8.4632    0.0000 </r>
       <r>    8.5225    0.0000 </r>
       <r>    8.8066    0.0000 </r>
      </set>
      <set comment="kpoint 9">
       <r>  -56.3893    1.0000 </r>
       <r>  -56.3874    1.0000 </r>
       <r>  -56.1439    1.0000 </r>
       <r>  -56.1370    1.0000 </r>
       <r>  -56.1333    1.0000 </r>
       <r>  -56.1251    1.0000 </r>
       <r>  -29.8071    1.0000 </r>
       <r>  -29.8019    1.0000 </r>
       <r>  -29.7914    1.0000 </r>
       <r>  -29.7886    1.0000 </r>
       <r>  -29.7705    1.0000 </r>
       <r>  -29.7584    1.0000 </r>
       <r>  -29.7080    1.0000 </r>
       <r>  -29.6926    1.0000 </r>
       <r>  -29.6831    1.0000 </r>
       <r>  -29.6179    1.0000 </r>
       <r>  -29.4807    1.0000 </r>
       <r>  -29.4548    1.0000 </r>
       <r>  -29.4506    1.0000 </r>
       <r>  -29.4243    1.0000 </r>
       <r>  -29.3566    1.0000 </r>
       <r>  -29.3523    1.0000 </r>
       <r>  -29.3418    1.0000 </r>
       <r>  -29.3370    1.0000 </r>
       <r>   -2.9939    1.0000 </r>
       <r>   -1.6086    1.0000 </r>
       <r>   -1.0533    1.0000 </r>
       <r>   -0.1318    1.0000 </r>
       <r>    1.6058    1.0000 </r>
       <r>    1.9656    1.0000 </r>
       <r>    2.2300    1.0000 </r>
       <r>    3.0022    1.0000 </r>
       <r>    3.2122    1.0000 </r>
       <r>    3.4836    1.0000 </r>
       <r>    3.5344    1.0000 </r>
       <r>    3.5642    1.0000 </r>
       <r>    4.0746    1.0000 </r>
       <r>    4.1516    1.0000 </r>
       <r>    4.3473    1.0000 </r>
       <r>    4.5836    1.0000 </r>
       <r>    4.6746    1.0000 </r>
       <r>    5.0872    1.0000 </r>
       <r>    5.2862    1.0000 </r>
       <r>    5.5657    1.0000 </r>
       <r>    5.7449    1.0000 </r>
       <r>    6.3349    1.0000 </r>
       <r>    6.5213    1.0000 </r>
       <r>    6.6410    1.0000 </r>
       <r>    6.8251    0.0391 </r>
       <r>    6.8577    0.0000 </r>
       <r>    6.9100    0.0000 </r>
       <r>    7.4271    0.0000 </r>
       <r>    7.4642    0.0000 </r>
       <r>    7.5991    0.0000 </r>
       <r>    7.8449    0.0000 </r>
       <r>    8.0191    0.0000 </r>
       <r>    8.1223    0.0000 </r>
       <r>    8.4367    0.0000 </r>
       <r>    8.8203    0.0000 </r>
       <r>    9.2113    0.0000 </r>
      </set>
      <set comment="kpoint 10">
       <r>  -56.3898    1.0000 </r>
       <r>  -56.3874    1.0000 </r>
       <r>  -56.1454    1.0000 </r>
       <r>  -56.1351    1.0000 </r>
       <r>  -56.1351    1.0000 </r>
       <r>  -56.1232    1.0000 </r>
       <r>  -29.8218    1.0000 </r>
       <r>  -29.8156    1.0000 </r>
       <r>  -29.8079    1.0000 </r>
       <r>  -29.8033    1.0000 </r>
       <r>  -29.7739    1.0000 </r>
       <r>  -29.7676    1.0000 </r>
       <r>  -29.7008    1.0000 </r>
       <r>  -29.6936    1.0000 </r>
       <r>  -29.6934    1.0000 </r>
       <r>  -29.6018    1.0000 </r>
       <r>  -29.4582    1.0000 </r>
       <r>  -29.4509    1.0000 </r>
       <r>  -29.4389    1.0000 </r>
       <r>  -29.4150    1.0000 </r>
       <r>  -29.3540    1.0000 </r>
       <r>  -29.3456    1.0000 </r>
       <r>  -29.3394    1.0000 </r>
       <r>  -29.3316    1.0000 </r>
       <r>   -3.2666    1.0000 </r>
       <r>   -1.7540    1.0000 </r>
       <r>   -0.5340    1.0000 </r>
       <r>    0.2097    1.0000 </r>
       <r>    1.4743    1.0000 </r>
       <r>    1.5108    1.0000 </r>
       <r>    1.8011    1.0000 </r>
       <r>    2.8066    1.0000 </r>
       <r>    3.0331    1.0000 </r>
       <r>    3.1677    1.0000 </r>
       <r>    3.5608    1.0000 </r>
       <r>    3.9559    1.0000 </r>
       <r>    4.2083    1.0000 </r>
       <r>    4.2376    1.0000 </r>
       <r>    4.2385    1.0000 </r>
       <r>    4.6660    1.0000 </r>
       <r>    4.7737    1.0000 </r>
       <r>    5.5702    1.0000 </r>
       <r>    5.6104    1.0000 </r>
       <r>    5.6812    1.0000 </r>
       <r>    5.8345    1.0000 </r>
       <r>    6.5947    1.0000 </r>
       <r>    6.6456    1.0000 </r>
       <r>    6.7514    0.9997 </r>
       <r>    6.8032    0.4144 </r>
       <r>    6.9325    0.0000 </r>
       <r>    7.3512    0.0000 </r>
       <r>    7.4564    0.0000 </r>
       <r>    7.5787    0.0000 </r>
       <r>    7.5904    0.0000 </r>
       <r>    8.1103    0.0000 </r>
       <r>    8.2389    0.0000 </r>
       <r>    8.2767    0.0000 </r>
       <r>    8.7481    0.0000 </r>
       <r>    8.9605    0.0000 </r>
       <r>    9.0321    0.0000 </r>
      </set>
      <set comment="kpoint 11">
       <r>  -56.3881    1.0000 </r>
       <r>  -56.3878    1.0000 </r>
       <r>  -56.1432    1.0000 </r>
       <r>  -56.1354    1.0000 </r>
       <r>  -56.1347    1.0000 </r>
       <r>  -56.1268    1.0000 </r>
       <r>  -29.7846    1.0000 </r>
       <r>  -29.7774    1.0000 </r>
       <r>  -29.7756    1.0000 </r>
       <r>  -29.7672    1.0000 </r>
       <r>  -29.7520    1.0000 </r>
       <r>  -29.7130    1.0000 </r>
       <r>  -29.7129    1.0000 </r>
       <r>  -29.7024    1.0000 </r>
       <r>  -29.6879    1.0000 </r>
       <r>  -29.6324    1.0000 </r>
       <r>  -29.5128    1.0000 </r>
       <r>  -29.4833    1.0000 </r>
       <r>  -29.4684    1.0000 </r>
       <r>  -29.4371    1.0000 </r>
       <r>  -29.3575    1.0000 </r>
       <r>  -29.3574    1.0000 </r>
       <r>  -29.3515    1.0000 </r>
       <r>  -29.3507    1.0000 </r>
       <r>   -2.4738    1.0000 </r>
       <r>   -1.3300    1.0000 </r>
       <r>   -1.2209    1.0000 </r>
       <r>   -1.1413    1.0000 </r>
       <r>    2.0123    1.0000 </r>
       <r>    2.2954    1.0000 </r>
       <r>    2.8788    1.0000 </r>
       <r>    3.3331    1.0000 </r>
       <r>    3.4430    1.0000 </r>
       <r>    3.4559    1.0000 </r>
       <r>    3.5412    1.0000 </r>
       <r>    3.6216    1.0000 </r>
       <r>    3.8277    1.0000 </r>
       <r>    3.8991    1.0000 </r>
       <r>    4.0285    1.0000 </r>
       <r>    4.0639    1.0000 </r>
       <r>    4.9575    1.0000 </r>
       <r>    5.0230    1.0000 </r>
       <r>    5.0501    1.0000 </r>
       <r>    5.5798    1.0000 </r>
       <r>    5.6583    1.0000 </r>
       <r>    5.9120    1.0000 </r>
       <r>    6.1621    1.0000 </r>
       <r>    6.1871    1.0000 </r>
       <r>    6.3815    1.0000 </r>
       <r>    6.7891    0.7835 </r>
       <r>    7.2363    0.0000 </r>
       <r>    7.3625    0.0000 </r>
       <r>    7.3795    0.0000 </r>
       <r>    7.4278    0.0000 </r>
       <r>    7.5100    0.0000 </r>
       <r>    7.8587    0.0000 </r>
       <r>    7.9711    0.0000 </r>
       <r>    8.2371    0.0000 </r>
       <r>    8.8097    0.0000 </r>
       <r>    9.2091    0.0000 </r>
      </set>
      <set comment="kpoint 12">
       <r>  -56.3883    1.0000 </r>
       <r>  -56.3877    1.0000 </r>
       <r>  -56.1409    1.0000 </r>
       <r>  -56.1375    1.0000 </r>
       <r>  -56.1323    1.0000 </r>
       <r>  -56.1295    1.0000 </r>
       <r>  -29.7809    1.0000 </r>
       <r>  -29.7743    1.0000 </r>
       <r>  -29.7650    1.0000 </r>
       <r>  -29.7547    1.0000 </r>
       <r>  -29.7397    1.0000 </r>
       <r>  -29.7331    1.0000 </r>
       <r>  -29.7127    1.0000 </r>
       <r>  -29.6907    1.0000 </r>
       <r>  -29.6832    1.0000 </r>
       <r>  -29.6546    1.0000 </r>
       <r>  -29.5218    1.0000 </r>
       <r>  -29.4954    1.0000 </r>
       <r>  -29.4499    1.0000 </r>
       <r>  -29.4489    1.0000 </r>
       <r>  -29.3639    1.0000 </r>
       <r>  -29.3628    1.0000 </r>
       <r>  -29.3472    1.0000 </r>
       <r>  -29.3464    1.0000 </r>
       <r>   -2.0244    1.0000 </r>
       <r>   -1.8824    1.0000 </r>
       <r>   -1.3839    1.0000 </r>
       <r>   -0.8286    1.0000 </r>
       <r>    2.2906    1.0000 </r>
       <r>    2.4362    1.0000 </r>
       <r>    2.7280    1.0000 </r>
       <r>    2.8213    1.0000 </r>
       <r>    3.1687    1.0000 </r>
       <r>    3.5022    1.0000 </r>
       <r>    3.6646    1.0000 </r>
       <r>    3.7179    1.0000 </r>
       <r>    3.8029    1.0000 </r>
       <r>    4.0528    1.0000 </r>
       <r>    4.0934    1.0000 </r>
       <r>    4.1242    1.0000 </r>
       <r>    4.6824    1.0000 </r>
       <r>    5.1327    1.0000 </r>
       <r>    5.1724    1.0000 </r>
       <r>    5.3174    1.0000 </r>
       <r>    5.6345    1.0000 </r>
       <r>    5.7096    1.0000 </r>
       <r>    6.0473    1.0000 </r>
       <r>    6.1063    1.0000 </r>
       <r>    6.6397    1.0000 </r>
       <r>    6.7211    1.0000 </r>
       <r>    7.0766    0.0000 </r>
       <r>    7.4016    0.0000 </r>
       <r>    7.4416    0.0000 </r>
       <r>    7.5650    0.0000 </r>
       <r>    7.6377    0.0000 </r>
       <r>    7.6508    0.0000 </r>
       <r>    7.9815    0.0000 </r>
       <r>    8.4901    0.0000 </r>
       <r>    8.9485    0.0000 </r>
       <r>    9.0153    0.0000 </r>
      </set>
      <set comment="kpoint 13">
       <r>  -56.3888    1.0000 </r>
       <r>  -56.3875    1.0000 </r>
       <r>  -56.1400    1.0000 </r>
       <r>  -56.1380    1.0000 </r>
       <r>  -56.1325    1.0000 </r>
       <r>  -56.1294    1.0000 </r>
       <r>  -29.7884    1.0000 </r>
       <r>  -29.7750    1.0000 </r>
       <r>  -29.7673    1.0000 </r>
       <r>  -29.7655    1.0000 </r>
       <r>  -29.7508    1.0000 </r>
       <r>  -29.7414    1.0000 </r>
       <r>  -29.7178    1.0000 </r>
       <r>  -29.6841    1.0000 </r>
       <r>  -29.6782    1.0000 </r>
       <r>  -29.6569    1.0000 </r>
       <r>  -29.5078    1.0000 </r>
       <r>  -29.4898    1.0000 </r>
       <r>  -29.4587    1.0000 </r>
       <r>  -29.4299    1.0000 </r>
       <r>  -29.3656    1.0000 </r>
       <r>  -29.3639    1.0000 </r>
       <r>  -29.3419    1.0000 </r>
       <r>  -29.3405    1.0000 </r>
       <r>   -2.4076    1.0000 </r>
       <r>   -1.5559    1.0000 </r>
       <r>   -1.4949    1.0000 </r>
       <r>   -0.5128    1.0000 </r>
       <r>    2.1258    1.0000 </r>
       <r>    2.2206    1.0000 </r>
       <r>    2.6204    1.0000 </r>
       <r>    2.6796    1.0000 </r>
       <r>    3.3190    1.0000 </r>
       <r>    3.3444    1.0000 </r>
       <r>    3.4230    1.0000 </r>
       <r>    3.8390    1.0000 </r>
       <r>    4.0087    1.0000 </r>
       <r>    4.0900    1.0000 </r>
       <r>    4.2131    1.0000 </r>
       <r>    4.3508    1.0000 </r>
       <r>    4.5944    1.0000 </r>
       <r>    4.8413    1.0000 </r>
       <r>    5.3166    1.0000 </r>
       <r>    5.3716    1.0000 </r>
       <r>    5.6227    1.0000 </r>
       <r>    5.7200    1.0000 </r>
       <r>    6.2326    1.0000 </r>
       <r>    6.2552    1.0000 </r>
       <r>    6.6220    1.0000 </r>
       <r>    6.8705    0.0000 </r>
       <r>    7.1497    0.0000 </r>
       <r>    7.1579    0.0000 </r>
       <r>    7.4014    0.0000 </r>
       <r>    7.6555    0.0000 </r>
       <r>    7.6906    0.0000 </r>
       <r>    7.7713    0.0000 </r>
       <r>    8.2246    0.0000 </r>
       <r>    8.6807    0.0000 </r>
       <r>    8.9120    0.0000 </r>
       <r>    9.3592    0.0000 </r>
      </set>
      <set comment="kpoint 14">
       <r>  -56.3892    1.0000 </r>
       <r>  -56.3874    1.0000 </r>
       <r>  -56.1422    1.0000 </r>
       <r>  -56.1353    1.0000 </r>
       <r>  -56.1351    1.0000 </r>
       <r>  -56.1268    1.0000 </r>
       <r>  -29.7962    1.0000 </r>
       <r>  -29.7849    1.0000 </r>
       <r>  -29.7811    1.0000 </r>
       <r>  -29.7796    1.0000 </r>
       <r>  -29.7739    1.0000 </r>
       <r>  -29.7530    1.0000 </r>
       <r>  -29.6966    1.0000 </r>
       <r>  -29.6965    1.0000 </r>
       <r>  -29.6895    1.0000 </r>
       <r>  -29.6329    1.0000 </r>
       <r>  -29.4860    1.0000 </r>
       <r>  -29.4706    1.0000 </r>
       <r>  -29.4600    1.0000 </r>
       <r>  -29.4220    1.0000 </r>
       <r>  -29.3608    1.0000 </r>
       <r>  -29.3604    1.0000 </r>
       <r>  -29.3395    1.0000 </r>
       <r>  -29.3366    1.0000 </r>
       <r>   -2.7907    1.0000 </r>
       <r>   -1.5816    1.0000 </r>
       <r>   -1.1911    1.0000 </r>
       <r>   -0.2729    1.0000 </r>
       <r>    1.9669    1.0000 </r>
       <r>    2.0133    1.0000 </r>
       <r>    2.1023    1.0000 </r>
       <r>    3.1002    1.0000 </r>
       <r>    3.1600    1.0000 </r>
       <r>    3.2282    1.0000 </r>
       <r>    3.6177    1.0000 </r>
       <r>    3.7606    1.0000 </r>
       <r>    4.1347    1.0000 </r>
       <r>    4.2649    1.0000 </r>
       <r>    4.2832    1.0000 </r>
       <r>    4.3755    1.0000 </r>
       <r>    4.4180    1.0000 </r>
       <r>    5.0660    1.0000 </r>
       <r>    5.1036    1.0000 </r>
       <r>    5.5301    1.0000 </r>
       <r>    5.7116    1.0000 </r>
       <r>    5.9693    1.0000 </r>
       <r>    6.3727    1.0000 </r>
       <r>    6.6221    1.0000 </r>
       <r>    6.6530    1.0000 </r>
       <r>    6.9042    0.0000 </r>
       <r>    6.9927    0.0000 </r>
       <r>    7.4206    0.0000 </r>
       <r>    7.4806    0.0000 </r>
       <r>    7.6598    0.0000 </r>
       <r>    7.7558    0.0000 </r>
       <r>    7.8775    0.0000 </r>
       <r>    8.2747    0.0000 </r>
       <r>    8.5617    0.0000 </r>
       <r>    9.2539    0.0000 </r>
       <r>    9.7714    0.0000 </r>
      </set>
      <set comment="kpoint 15">
       <r>  -56.3885    1.0000 </r>
       <r>  -56.3875    1.0000 </r>
       <r>  -56.1383    1.0000 </r>
       <r>  -56.1356    1.0000 </r>
       <r>  -56.1340    1.0000 </r>
       <r>  -56.1322    1.0000 </r>
       <r>  -29.7809    1.0000 </r>
       <r>  -29.7720    1.0000 </r>
       <r>  -29.7567    1.0000 </r>
       <r>  -29.7414    1.0000 </r>
       <r>  -29.7378    1.0000 </r>
       <r>  -29.7221    1.0000 </r>
       <r>  -29.7075    1.0000 </r>
       <r>  -29.7016    1.0000 </r>
       <r>  -29.6816    1.0000 </r>
       <r>  -29.6760    1.0000 </r>
       <r>  -29.5202    1.0000 </r>
       <r>  -29.5104    1.0000 </r>
       <r>  -29.4628    1.0000 </r>
       <r>  -29.4314    1.0000 </r>
       <r>  -29.3718    1.0000 </r>
       <r>  -29.3683    1.0000 </r>
       <r>  -29.3419    1.0000 </r>
       <r>  -29.3415    1.0000 </r>
       <r>   -1.8120    1.0000 </r>
       <r>   -1.7510    1.0000 </r>
       <r>   -1.7340    1.0000 </r>
       <r>   -0.6472    1.0000 </r>
       <r>    2.3158    1.0000 </r>
       <r>    2.3309    1.0000 </r>
       <r>    2.4265    1.0000 </r>
       <r>    2.9345    1.0000 </r>
       <r>    2.9915    1.0000 </r>
       <r>    3.1982    1.0000 </r>
       <r>    3.5651    1.0000 </r>
       <r>    3.8256    1.0000 </r>
       <r>    3.8804    1.0000 </r>
       <r>    4.1753    1.0000 </r>
       <r>    4.2433    1.0000 </r>
       <r>    4.4079    1.0000 </r>
       <r>    4.5111    1.0000 </r>
       <r>    4.8920    1.0000 </r>
       <r>    5.2401    1.0000 </r>
       <r>    5.3207    1.0000 </r>
       <r>    5.5635    1.0000 </r>
       <r>    5.7869    1.0000 </r>
       <r>    5.9425    1.0000 </r>
       <r>    6.0770    1.0000 </r>
       <r>    6.5906    1.0000 </r>
       <r>    6.8226    0.0565 </r>
       <r>    6.8624    0.0000 </r>
       <r>    7.2709    0.0000 </r>
       <r>    7.3842    0.0000 </r>
       <r>    7.5944    0.0000 </r>
       <r>    7.7040    0.0000 </r>
       <r>    7.7186    0.0000 </r>
       <r>    8.3343    0.0000 </r>
       <r>    8.9696    0.0000 </r>
       <r>    9.1295    0.0000 </r>
       <r>    9.6468    0.0000 </r>
      </set>
      <set comment="kpoint 16">
       <r>  -56.3887    1.0000 </r>
       <r>  -56.3874    1.0000 </r>
       <r>  -56.1376    1.0000 </r>
       <r>  -56.1355    1.0000 </r>
       <r>  -56.1351    1.0000 </r>
       <r>  -56.1319    1.0000 </r>
       <r>  -29.7857    1.0000 </r>
       <r>  -29.7740    1.0000 </r>
       <r>  -29.7570    1.0000 </r>
       <r>  -29.7471    1.0000 </r>
       <r>  -29.7404    1.0000 </r>
       <r>  -29.7326    1.0000 </r>
       <r>  -29.6998    1.0000 </r>
       <r>  -29.6988    1.0000 </r>
       <r>  -29.6798    1.0000 </r>
       <r>  -29.6787    1.0000 </r>
       <r>  -29.5121    1.0000 </r>
       <r>  -29.5084    1.0000 </r>
       <r>  -29.4675    1.0000 </r>
       <r>  -29.4234    1.0000 </r>
       <r>  -29.3730    1.0000 </r>
       <r>  -29.3686    1.0000 </r>
       <r>  -29.3395    1.0000 </r>
       <r>  -29.3389    1.0000 </r>
       <r>   -2.1469    1.0000 </r>
       <r>   -1.6383    1.0000 </r>
       <r>   -1.5530    1.0000 </r>
       <r>   -0.5320    1.0000 </r>
       <r>    2.1166    1.0000 </r>
       <r>    2.3005    1.0000 </r>
       <r>    2.5376    1.0000 </r>
       <r>    2.5927    1.0000 </r>
       <r>    3.2042    1.0000 </r>
       <r>    3.2919    1.0000 </r>
       <r>    3.4412    1.0000 </r>
       <r>    3.7569    1.0000 </r>
       <r>    4.0677    1.0000 </r>
       <r>    4.1594    1.0000 </r>
       <r>    4.3062    1.0000 </r>
       <r>    4.3445    1.0000 </r>
       <r>    4.5098    1.0000 </r>
       <r>    4.8630    1.0000 </r>
       <r>    5.3261    1.0000 </r>
       <r>    5.3988    1.0000 </r>
       <r>    5.4124    1.0000 </r>
       <r>    5.7480    1.0000 </r>
       <r>    6.0877    1.0000 </r>
       <r>    6.1726    1.0000 </r>
       <r>    6.6223    1.0000 </r>
       <r>    6.7524    0.9996 </r>
       <r>    7.0013    0.0000 </r>
       <r>    7.1419    0.0000 </r>
       <r>    7.3817    0.0000 </r>
       <r>    7.5624    0.0000 </r>
       <r>    7.7339    0.0000 </r>
       <r>    7.7710    0.0000 </r>
       <r>    8.6559    0.0000 </r>
       <r>    8.7609    0.0000 </r>
       <r>    9.4691    0.0000 </r>
       <r>    9.9391    0.0000 </r>
      </set>
      <set comment="kpoint 17">
       <r>  -56.3899    1.0000 </r>
       <r>  -56.3874    1.0000 </r>
       <r>  -56.1456    1.0000 </r>
       <r>  -56.1351    1.0000 </r>
       <r>  -56.1351    1.0000 </r>
       <r>  -56.1229    1.0000 </r>
       <r>  -29.8251    1.0000 </r>
       <r>  -29.8185    1.0000 </r>
       <r>  -29.8090    1.0000 </r>
       <r>  -29.8055    1.0000 </r>
       <r>  -29.7738    1.0000 </r>
       <r>  -29.7690    1.0000 </r>
       <r>  -29.7019    1.0000 </r>
       <r>  -29.6934    1.0000 </r>
       <r>  -29.6931    1.0000 </r>
       <r>  -29.5993    1.0000 </r>
       <r>  -29.4557    1.0000 </r>
       <r>  -29.4500    1.0000 </r>
       <r>  -29.4371    1.0000 </r>
       <r>  -29.4135    1.0000 </r>
       <r>  -29.3535    1.0000 </r>
       <r>  -29.3442    1.0000 </r>
       <r>  -29.3394    1.0000 </r>
       <r>  -29.3310    1.0000 </r>
       <r>   -3.3061    1.0000 </r>
       <r>   -1.7737    1.0000 </r>
       <r>   -0.4403    1.0000 </r>
       <r>    0.2819    1.0000 </r>
       <r>    1.3905    1.0000 </r>
       <r>    1.4325    1.0000 </r>
[...]
       <r>   -0.4634    1.0000 </r>
       <r>    1.2343    1.0000 </r>
       <r>    1.3194    1.0000 </r>
       <r>    2.5625    1.0000 </r>
       <r>    3.3100    1.0000 </r>
       <r>    3.3207    1.0000 </r>
       <r>    3.6591    1.0000 </r>
       <r>    3.7272    1.0000 </r>
       <r>    3.7944    1.0000 </r>
       <r>    3.9201    1.0000 </r>
       <r>    3.9879    1.0000 </r>
       <r>    4.0634    1.0000 </r>
       <r>    4.9715    1.0000 </r>
       <r>    4.9945    1.0000 </r>
       <r>    5.5961    1.0000 </r>
       <r>    5.6020    1.0000 </r>
       <r>    5.7352    1.0000 </r>
       <r>    5.9531    1.0000 </r>
       <r>    5.9672    1.0000 </r>
       <r>    6.0364    1.0000 </r>
       <r>    6.5740    1.0000 </r>
       <r>    6.8071    0.3131 </r>
       <r>    6.8915    0.0000 </r>
       <r>    6.9492    0.0000 </r>
       <r>    7.0960    0.0000 </r>
       <r>    7.0982    0.0000 </r>
       <r>    7.1735    0.0000 </r>
       <r>    7.4686    0.0000 </r>
       <r>    7.6664    0.0000 </r>
       <r>    7.6927    0.0000 </r>
       <r>    7.7149    0.0000 </r>
       <r>    7.9093    0.0000 </r>
       <r>    8.8292    0.0000 </r>
      </set>
      <set comment="kpoint 116">
       <r>  -56.3875    1.0000 </r>
       <r>  -56.3874    1.0000 </r>
       <r>  -56.1488    1.0000 </r>
       <r>  -56.1352    1.0000 </r>
       <r>  -56.1351    1.0000 </r>
       <r>  -56.1221    1.0000 </r>
       <r>  -29.8256    1.0000 </r>
       <r>  -29.7443    1.0000 </r>
       <r>  -29.7411    1.0000 </r>
       <r>  -29.7405    1.0000 </r>
       <r>  -29.7386    1.0000 </r>
       <r>  -29.7346    1.0000 </r>
       <r>  -29.7325    1.0000 </r>
       <r>  -29.6544    1.0000 </r>
       <r>  -29.6506    1.0000 </r>
       <r>  -29.6187    1.0000 </r>
       <r>  -29.5938    1.0000 </r>
       <r>  -29.4816    1.0000 </r>
       <r>  -29.4765    1.0000 </r>
       <r>  -29.4086    1.0000 </r>
       <r>  -29.3917    1.0000 </r>
       <r>  -29.3698    1.0000 </r>
       <r>  -29.3681    1.0000 </r>
       <r>  -29.3565    1.0000 </r>
       <r>   -2.8763    1.0000 </r>
       <r>   -0.9924    1.0000 </r>
       <r>   -0.9467    1.0000 </r>
       <r>   -0.4766    1.0000 </r>
       <r>    1.2421    1.0000 </r>
       <r>    1.3284    1.0000 </r>
       <r>    2.4164    1.0000 </r>
       <r>    3.3421    1.0000 </r>
       <r>    3.3554    1.0000 </r>
       <r>    3.6553    1.0000 </r>
       <r>    3.7100    1.0000 </r>
       <r>    3.8585    1.0000 </r>
       <r>    3.9211    1.0000 </r>
       <r>    4.0341    1.0000 </r>
       <r>    4.0643    1.0000 </r>
       <r>    4.9707    1.0000 </r>
       <r>    5.0000    1.0000 </r>
       <r>    5.5623    1.0000 </r>
       <r>    5.6992    1.0000 </r>
       <r>    5.7160    1.0000 </r>
       <r>    5.8916    1.0000 </r>
       <r>    5.8983    1.0000 </r>
       <r>    5.9565    1.0000 </r>
       <r>    6.6662    1.0000 </r>
       <r>    6.8072    0.3104 </r>
       <r>    6.8419    0.0016 </r>
       <r>    7.0412    0.0000 </r>
       <r>    7.0541    0.0000 </r>
       <r>    7.1589    0.0000 </r>
       <r>    7.1780    0.0000 </r>
       <r>    7.4734    0.0000 </r>
       <r>    7.5968    0.0000 </r>
       <r>    7.6156    0.0000 </r>
       <r>    7.6612    0.0000 </r>
       <r>    7.8522    0.0000 </r>
       <r>    8.8340    0.0000 </r>
      </set>
     </set>
    </set>
   </array>
  </eigenvalues>
  <separator name="orbital magnetization" >
   <v name="MAGDIPOLOUT">      0.00000000      0.00000000      0.00000000</v>
  </separator>
  <dos>
   <i name="efermi">      6.80016454 </i>
   <total>
    <array>
     <dimension dim="1">gridpoints</dimension>
     <dimension dim="2">spin</dimension>
     <field>energy</field>
     <field>total</field>
     <field>integrated</field>
     <set>
      <set comment="spin 1">
       <r>   -59.7096     0.0000     0.0000 </r>
       <r>   -59.4662     0.0000     0.0000 </r>
       <r>   -59.2227     0.0000     0.0000 </r>
       <r>   -58.9793     0.0000     0.0000 </r>
       <r>   -58.7359     0.0000     0.0000 </r>
       <r>   -58.4924     0.0000     0.0000 </r>
       <r>   -58.2490     0.0000     0.0000 </r>
       <r>   -58.0056     0.0000     0.0000 </r>
       <r>   -57.7621     0.0000     0.0000 </r>
       <r>   -57.5187     0.0000     0.0000 </r>
       <r>   -57.2753     0.0000     0.0000 </r>
       <r>   -57.0318     0.0000     0.0000 </r>
       <r>   -56.7884     0.0000     0.0000 </r>
       <r>   -56.5450     0.0000     0.0000 </r>
       <r>   -56.3016    16.4316     4.0000 </r>
       <r>   -56.0581    32.8633    12.0000 </r>
       <r>   -55.8147     0.0000    12.0000 </r>
       <r>   -55.5713     0.0000    12.0000 </r>
       <r>   -55.3278     0.0000    12.0000 </r>
       <r>   -55.0844     0.0000    12.0000 </r>
       <r>   -54.8410     0.0000    12.0000 </r>
       <r>   -54.5975     0.0000    12.0000 </r>
       <r>   -54.3541     0.0000    12.0000 </r>
       <r>   -54.1107     0.0000    12.0000 </r>
       <r>   -53.8672     0.0000    12.0000 </r>
       <r>   -53.6238     0.0000    12.0000 </r>
       <r>   -53.3804     0.0000    12.0000 </r>
       <r>   -53.1369     0.0000    12.0000 </r>
       <r>   -52.8935     0.0000    12.0000 </r>
       <r>   -52.6501     0.0000    12.0000 </r>
       <r>   -52.4066     0.0000    12.0000 </r>
       <r>   -52.1632     0.0000    12.0000 </r>
       <r>   -51.9198     0.0000    12.0000 </r>
       <r>   -51.6763     0.0000    12.0000 </r>
       <r>   -51.4329     0.0000    12.0000 </r>
       <r>   -51.1895     0.0000    12.0000 </r>
       <r>   -50.9460     0.0000    12.0000 </r>
       <r>   -50.7026     0.0000    12.0000 </r>
       <r>   -50.4592     0.0000    12.0000 </r>
       <r>   -50.2157     0.0000    12.0000 </r>
       <r>   -49.9723     0.0000    12.0000 </r>
       <r>   -49.7289     0.0000    12.0000 </r>
       <r>   -49.4854     0.0000    12.0000 </r>
       <r>   -49.2420     0.0000    12.0000 </r>
       <r>   -48.9986     0.0000    12.0000 </r>
       <r>   -48.7551     0.0000    12.0000 </r>
       <r>   -48.5117     0.0000    12.0000 </r>
       <r>   -48.2683     0.0000    12.0000 </r>
       <r>   -48.0248     0.0000    12.0000 </r>
       <r>   -47.7814     0.0000    12.0000 </r>
       <r>   -47.5380     0.0000    12.0000 </r>
       <r>   -47.2945     0.0000    12.0000 </r>
       <r>   -47.0511     0.0000    12.0000 </r>
       <r>   -46.8077     0.0000    12.0000 </r>
       <r>   -46.5642     0.0000    12.0000 </r>
       <r>   -46.3208     0.0000    12.0000 </r>
       <r>   -46.0774     0.0000    12.0000 </r>
       <r>   -45.8339     0.0000    12.0000 </r>
       <r>   -45.5905     0.0000    12.0000 </r>
       <r>   -45.3471     0.0000    12.0000 </r>
       <r>   -45.1036     0.0000    12.0000 </r>
       <r>   -44.8602     0.0000    12.0000 </r>
       <r>   -44.6168     0.0000    12.0000 </r>
       <r>   -44.3733     0.0000    12.0000 </r>
       <r>   -44.1299     0.0000    12.0000 </r>
       <r>   -43.8865     0.0000    12.0000 </r>
       <r>   -43.6431     0.0000    12.0000 </r>
       <r>   -43.3996     0.0000    12.0000 </r>
       <r>   -43.1562     0.0000    12.0000 </r>
       <r>   -42.9128     0.0000    12.0000 </r>
       <r>   -42.6693     0.0000    12.0000 </r>
       <r>   -42.4259     0.0000    12.0000 </r>
       <r>   -42.1825     0.0000    12.0000 </r>
       <r>   -41.9390     0.0000    12.0000 </r>
       <r>   -41.6956     0.0000    12.0000 </r>
       <r>   -41.4522     0.0000    12.0000 </r>
       <r>   -41.2087     0.0000    12.0000 </r>
       <r>   -40.9653     0.0000    12.0000 </r>
       <r>   -40.7219     0.0000    12.0000 </r>
       <r>   -40.4784     0.0000    12.0000 </r>
       <r>   -40.2350     0.0000    12.0000 </r>
       <r>   -39.9916     0.0000    12.0000 </r>
       <r>   -39.7481     0.0000    12.0000 </r>
       <r>   -39.5047     0.0000    12.0000 </r>
       <r>   -39.2613     0.0000    12.0000 </r>
       <r>   -39.0178     0.0000    12.0000 </r>
       <r>   -38.7744     0.0000    12.0000 </r>
       <r>   -38.5310     0.0000    12.0000 </r>
       <r>   -38.2875     0.0000    12.0000 </r>
       <r>   -38.0441     0.0000    12.0000 </r>
       <r>   -37.8007     0.0000    12.0000 </r>
       <r>   -37.5572     0.0000    12.0000 </r>
       <r>   -37.3138     0.0000    12.0000 </r>
       <r>   -37.0704     0.0000    12.0000 </r>
       <r>   -36.8269     0.0000    12.0000 </r>
       <r>   -36.5835     0.0000    12.0000 </r>
       <r>   -36.3401     0.0000    12.0000 </r>
       <r>   -36.0966     0.0000    12.0000 </r>
       <r>   -35.8532     0.0000    12.0000 </r>
       <r>   -35.6098     0.0000    12.0000 </r>
       <r>   -35.3663     0.0000    12.0000 </r>
       <r>   -35.1229     0.0000    12.0000 </r>
       <r>   -34.8795     0.0000    12.0000 </r>
       <r>   -34.6360     0.0000    12.0000 </r>
       <r>   -34.3926     0.0000    12.0000 </r>
       <r>   -34.1492     0.0000    12.0000 </r>
       <r>   -33.9057     0.0000    12.0000 </r>
       <r>   -33.6623     0.0000    12.0000 </r>
       <r>   -33.4189     0.0000    12.0000 </r>
       <r>   -33.1754     0.0000    12.0000 </r>
       <r>   -32.9320     0.0000    12.0000 </r>
       <r>   -32.6886     0.0000    12.0000 </r>
       <r>   -32.4451     0.0000    12.0000 </r>
       <r>   -32.2017     0.0000    12.0000 </r>
       <r>   -31.9583     0.0000    12.0000 </r>
       <r>   -31.7149     0.0000    12.0000 </r>
       <r>   -31.4714     0.0000    12.0000 </r>
       <r>   -31.2280     0.0000    12.0000 </r>
       <r>   -30.9846     0.0000    12.0000 </r>
       <r>   -30.7411     0.0000    12.0000 </r>
       <r>   -30.4977     0.0000    12.0000 </r>
       <r>   -30.2543     0.0000    12.0000 </r>
       <r>   -30.0108     0.0000    12.0000 </r>
       <r>   -29.7674    24.7935    18.0355 </r>
       <r>   -29.5240    18.2268    32.7329 </r>
       <r>   -29.2805    40.3035    48.0000 </r>
       <r>   -29.0371     0.0000    48.0000 </r>
       <r>   -28.7937     0.0000    48.0000 </r>
       <r>   -28.5502     0.0000    48.0000 </r>
       <r>   -28.3068     0.0000    48.0000 </r>
       <r>   -28.0634     0.0000    48.0000 </r>
       <r>   -27.8199     0.0000    48.0000 </r>
       <r>   -27.5765     0.0000    48.0000 </r>
       <r>   -27.3331     0.0000    48.0000 </r>
       <r>   -27.0896     0.0000    48.0000 </r>
       <r>   -26.8462     0.0000    48.0000 </r>
       <r>   -26.6028     0.0000    48.0000 </r>
       <r>   -26.3593     0.0000    48.0000 </r>
       <r>   -26.1159     0.0000    48.0000 </r>
       <r>   -25.8725     0.0000    48.0000 </r>
       <r>   -25.6290     0.0000    48.0000 </r>
       <r>   -25.3856     0.0000    48.0000 </r>
       <r>   -25.1422     0.0000    48.0000 </r>
       <r>   -24.8987     0.0000    48.0000 </r>
       <r>   -24.6553     0.0000    48.0000 </r>
       <r>   -24.4119     0.0000    48.0000 </r>
       <r>   -24.1684     0.0000    48.0000 </r>
       <r>   -23.9250     0.0000    48.0000 </r>
       <r>   -23.6816     0.0000    48.0000 </r>
       <r>   -23.4381     0.0000    48.0000 </r>
       <r>   -23.1947     0.0000    48.0000 </r>
       <r>   -22.9513     0.0000    48.0000 </r>
       <r>   -22.7078     0.0000    48.0000 </r>
       <r>   -22.4644     0.0000    48.0000 </r>
       <r>   -22.2210     0.0000    48.0000 </r>
       <r>   -21.9775     0.0000    48.0000 </r>
       <r>   -21.7341     0.0000    48.0000 </r>
       <r>   -21.4907     0.0000    48.0000 </r>
       <r>   -21.2472     0.0000    48.0000 </r>
       <r>   -21.0038     0.0000    48.0000 </r>
       <r>   -20.7604     0.0000    48.0000 </r>
       <r>   -20.5169     0.0000    48.0000 </r>
       <r>   -20.2735     0.0000    48.0000 </r>
       <r>   -20.0301     0.0000    48.0000 </r>
       <r>   -19.7867     0.0000    48.0000 </r>
       <r>   -19.5432     0.0000    48.0000 </r>
       <r>   -19.2998     0.0000    48.0000 </r>
       <r>   -19.0564     0.0000    48.0000 </r>
       <r>   -18.8129     0.0000    48.0000 </r>
       <r>   -18.5695     0.0000    48.0000 </r>
       <r>   -18.3261     0.0000    48.0000 </r>
       <r>   -18.0826     0.0000    48.0000 </r>
       <r>   -17.8392     0.0000    48.0000 </r>
       <r>   -17.5958     0.0000    48.0000 </r>
       <r>   -17.3523     0.0000    48.0000 </r>
       <r>   -17.1089     0.0000    48.0000 </r>
       <r>   -16.8655     0.0000    48.0000 </r>
       <r>   -16.6220     0.0000    48.0000 </r>
       <r>   -16.3786     0.0000    48.0000 </r>
       <r>   -16.1352     0.0000    48.0000 </r>
       <r>   -15.8917     0.0000    48.0000 </r>
       <r>   -15.6483     0.0000    48.0000 </r>
       <r>   -15.4049     0.0000    48.0000 </r>
       <r>   -15.1614     0.0000    48.0000 </r>
       <r>   -14.9180     0.0000    48.0000 </r>
       <r>   -14.6746     0.0000    48.0000 </r>
       <r>   -14.4311     0.0000    48.0000 </r>
       <r>   -14.1877     0.0000    48.0000 </r>
       <r>   -13.9443     0.0000    48.0000 </r>
       <r>   -13.7008     0.0000    48.0000 </r>
       <r>   -13.4574     0.0000    48.0000 </r>
       <r>   -13.2140     0.0000    48.0000 </r>
       <r>   -12.9705     0.0000    48.0000 </r>
       <r>   -12.7271     0.0000    48.0000 </r>
       <r>   -12.4837     0.0000    48.0000 </r>
       <r>   -12.2402     0.0000    48.0000 </r>
       <r>   -11.9968     0.0000    48.0000 </r>
       <r>   -11.7534     0.0000    48.0000 </r>
       <r>   -11.5099     0.0000    48.0000 </r>
       <r>   -11.2665     0.0000    48.0000 </r>
       <r>   -11.0231     0.0000    48.0000 </r>
       <r>   -10.7796     0.0000    48.0000 </r>
       <r>   -10.5362     0.0000    48.0000 </r>
       <r>   -10.2928     0.0000    48.0000 </r>
       <r>   -10.0493     0.0000    48.0000 </r>
       <r>    -9.8059     0.0000    48.0000 </r>
       <r>    -9.5625     0.0000    48.0000 </r>
       <r>    -9.3190     0.0000    48.0000 </r>
       <r>    -9.0756     0.0000    48.0000 </r>
       <r>    -8.8322     0.0000    48.0000 </r>
       <r>    -8.5887     0.0000    48.0000 </r>
       <r>    -8.3453     0.0000    48.0000 </r>
       <r>    -8.1019     0.0000    48.0000 </r>
       <r>    -7.8584     0.0000    48.0000 </r>
       <r>    -7.6150     0.0000    48.0000 </r>
       <r>    -7.3716     0.0000    48.0000 </r>
       <r>    -7.1282     0.0000    48.0000 </r>
       <r>    -6.8847     0.0000    48.0000 </r>
       <r>    -6.6413     0.0000    48.0000 </r>
       <r>    -6.3979     0.0000    48.0000 </r>
       <r>    -6.1544     0.0000    48.0000 </r>
       <r>    -5.9110     0.0000    48.0000 </r>
       <r>    -5.6676     0.0000    48.0000 </r>
       <r>    -5.4241     0.0000    48.0000 </r>
       <r>    -5.1807     0.0000    48.0000 </r>
       <r>    -4.9373     0.0000    48.0000 </r>
       <r>    -4.6938     0.0000    48.0000 </r>
       <r>    -4.4504     0.0000    48.0000 </r>
       <r>    -4.2070     0.0000    48.0000 </r>
       <r>    -3.9635     0.0000    48.0000 </r>
       <r>    -3.7201     0.0000    48.0000 </r>
       <r>    -3.4767     0.0001    48.0000 </r>
       <r>    -3.2332     0.3259    48.0844 </r>
       <r>    -2.9898     0.7261    48.3145 </r>
       <r>    -2.7464     1.0799    48.6659 </r>
       <r>    -2.5029     1.0823    49.0747 </r>
       <r>    -2.2595     1.1562    49.4702 </r>
       <r>    -2.0161     1.3100    49.9873 </r>
       <r>    -1.7726     1.3093    50.4667 </r>
       <r>    -1.5292     2.9673    51.4672 </r>
       <r>    -1.2858     2.2249    52.5365 </r>
       <r>    -1.0423     2.5085    53.4729 </r>
       <r>    -0.7989     2.1239    54.3793 </r>
       <r>    -0.5555     2.0707    55.1010 </r>
       <r>    -0.3120     0.9468    55.5570 </r>
       <r>    -0.0686     0.7688    55.8606 </r>
       <r>     0.1748     0.0651    55.9138 </r>
       <r>     0.4183     0.2096    55.9949 </r>
       <r>     0.6617     0.0000    55.9949 </r>
       <r>     0.9051     0.0210    56.0000 </r>
       <r>     1.1486     0.4135    56.1109 </r>
       <r>     1.3920     0.9765    56.4112 </r>
       <r>     1.6354     0.6565    56.8027 </r>
       <r>     1.8789     1.8620    57.3921 </r>
       <r>     2.1223     2.2887    58.2153 </r>
       <r>     2.3657     3.8173    59.4599 </r>
       <r>     2.6092     3.7206    60.9108 </r>
       <r>     2.8526     2.7791    61.9724 </r>
       <r>     3.0960     5.2510    63.6456 </r>
       <r>     3.3395     7.3734    65.9480 </r>
       <r>     3.5829     9.3283    69.1178 </r>
       <r>     3.8263     7.9800    72.0038 </r>
       <r>     4.0698    11.2185    75.8738 </r>
       <r>     4.3132     4.5578    78.2371 </r>
       <r>     4.5566     2.6378    79.4074 </r>
       <r>     4.8000     3.6324    80.7210 </r>
       <r>     5.0435     6.2733    82.7567 </r>
       <r>     5.2869     5.8566    84.9308 </r>
       <r>     5.5303     5.8722    87.3274 </r>
       <r>     5.7738     8.3460    90.2766 </r>
       <r>     6.0172     3.8157    91.6023 </r>
       <r>     6.2606     3.8351    93.1224 </r>
       <r>     6.5041     5.9418    95.1862 </r>
       <r>     6.7475     6.3033    97.3558 </r>
       <r>     6.9909     7.7113   100.2700 </r>
       <r>     7.2344     8.1938   103.0355 </r>
       <r>     7.4778    12.8900   107.3674 </r>
       <r>     7.7212     7.6183   110.7372 </r>
       <r>     7.9647     4.5127   112.5016 </r>
       <r>     8.2081     3.9227   114.0620 </r>
       <r>     8.4515     3.7771   115.4654 </r>
       <r>     8.6950     4.5407   117.2635 </r>
       <r>     8.9384     2.8209   118.6204 </r>
       <r>     9.1818     1.5118   119.3068 </r>
       <r>     9.4253     0.8836   119.6641 </r>
       <r>     9.6687     0.4182   119.8722 </r>
       <r>     9.9121     0.2679   119.9683 </r>
       <r>    10.1556     0.0419   120.0000 </r>
       <r>    10.3990     0.0000   120.0000 </r>
       <r>    10.6424     0.0000   120.0000 </r>
       <r>    10.8859     0.0000   120.0000 </r>
       <r>    11.1293     0.0000   120.0000 </r>
       <r>    11.3727     0.0000   120.0000 </r>
       <r>    11.6162     0.0000   120.0000 </r>
       <r>    11.8596     0.0000   120.0000 </r>
       <r>    12.1030     0.0000   120.0000 </r>
       <r>    12.3465     0.0000   120.0000 </r>
       <r>    12.5899     0.0000   120.0000 </r>
       <r>    12.8333     0.0000   120.0000 </r>
       <r>    13.0768     0.0000   120.0000 </r>
       <r>    13.3202     0.0000   120.0000 </r>
      </set>
     </set>
    </array>
   </total>
  </dos>
 </calculation>
 <structure name="finalpos" >
  <crystal>
   <varray name="basis" >
    <v>       5.65549896       0.00000000      -2.99911017 </v>
    <v>      -2.04693033       5.27207214      -2.99911017 </v>
    <v>       0.00000000       0.00000000       6.40151000 </v>
   </varray>
   <i name="volume">    190.86869291 </i>
   <varray name="rec_basis" >
    <v>       0.17681906       0.06865162       0.00000000 </v>
    <v>       0.00000000       0.18967874       0.00000000 </v>
    <v>       0.08283980       0.12102788       0.15621314 </v>
   </varray>
  </crystal>
  <varray name="positions" >
   <v>       0.25000000       0.25000000       0.00000000 </v>
   <v>       0.75000000       0.75000000       0.00000000 </v>
   <v>       0.50000000       0.00000000       0.00000000 </v>
   <v>       0.50000000       0.50000000       0.00000000 </v>
   <v>       0.00000000       0.00000000       0.50000000 </v>
   <v>       0.00000000       0.50000000       0.00000000 </v>
   <v>       0.50000000       0.50000000       0.50000000 </v>
   <v>       0.00000000       0.00000000       0.00000000 </v>
   <v>       0.25000000       0.75000000       0.50000000 </v>
   <v>       0.75000000       0.25000000       0.50000000 </v>
  </varray>
 </structure>
</modeling>
