<?xml version="1.0" encoding="ISO-8859-1"?>
<modeling>
 <generator>
  <i name="program" type="string">vasp </i>
  <i name="version" type="string">6.2.1  </i>
  <i name="subversion" type="string">16May21 (build Jan 28 2022 11:20:50) complex                          parallel </i>
  <i name="platform" type="string">LinuxIFC </i>
  <i name="date" type="string">2025 05 08 </i>
  <i name="time" type="string">07:01:10 </i>
 </generator>
 <incar>
  <i type="string" name="SYSTEM">routine with relax: pwdword</i>
  <i type="string" name="PREC">Acc</i>
  <i type="int" name="IALGO">    38</i>
  <i type="string" name="ALGO">A</i>
  <i type="logical" name="ADDGRID"> T  </i>
  <i type="int" name="ICHARG">     2</i>
  <i type="int" name="NELM">   100</i>
  <i type="int" name="NELMIN">     6</i>
  <i name="EDIFF">      0.00000000</i>
  <i type="int" name="NSW">     0</i>
  <i type="int" name="ISIF">    -1</i>
  <i name="SYMPREC">      0.00010000</i>
  <i name="ENCUT">    600.00000000</i>
  <i type="logical" name="LREAL"> F  </i>
  <i type="int" name="ISMEAR">     0</i>
  <i name="SIGMA">      0.02000000</i>
  <i type="logical" name="LASPH"> T  </i>
  <i type="string" name="METAGGA">R2SCAN</i>
  <i type="logical" name="LMIXTAU"> F  </i>
 </incar>
 <primitive_cell>
  <structure name="primitive_cell" >
   <crystal>
    <varray name="basis" >
     <v>      -3.02663100       3.02663100       5.57974100 </v>
     <v>       3.02663100      -3.02663100       5.57974100 </v>
     <v>       3.02663100       3.02663100      -5.57974100 </v>
    </varray>
    <i name="volume">    204.45276282 </i>
    <varray name="rec_basis" >
     <v>       0.00000000       0.16520018       0.08960989 </v>
     <v>       0.16520018       0.00000000       0.08960989 </v>
     <v>       0.16520018       0.16520018       0.00000000 </v>
    </varray>
   </crystal>
   <varray name="positions" >
    <v>       0.37904800       0.87904800       0.25809700 </v>
    <v>       0.87904800       0.62095200       0.50000000 </v>
    <v>       0.62095200       0.12095200       0.74190300 </v>
    <v>       0.12095200       0.37904800       0.50000000 </v>
    <v>       0.00000000       0.00000000       0.00000000 </v>
    <v>       0.80380800       0.97570900       0.50000000 </v>
    <v>       0.30380800       0.80380800       0.82809900 </v>
    <v>       0.19619200       0.02429100       0.50000000 </v>
    <v>       0.52429100       0.69619200       0.50000000 </v>
    <v>       0.02429100       0.52429100       0.82809900 </v>
    <v>       0.69619200       0.19619200       0.17190100 </v>
    <v>       0.97570900       0.47570900       0.17190100 </v>
    <v>       0.50000000       0.50000000       0.00000000 </v>
    <v>       0.47570900       0.30380800       0.50000000 </v>
    <v>       0.75000000       0.75000000       0.00000000 </v>
    <v>       0.25000000       0.25000000       0.00000000 </v>
   </varray>
  </structure>
  <varray name="primitive_index" >
   <v type="int" >        1 </v>
   <v type="int" >        2 </v>
   <v type="int" >        3 </v>
   <v type="int" >        4 </v>
   <v type="int" >        5 </v>
   <v type="int" >        6 </v>
   <v type="int" >        7 </v>
   <v type="int" >        8 </v>
   <v type="int" >        9 </v>
   <v type="int" >       10 </v>
   <v type="int" >       11 </v>
   <v type="int" >       12 </v>
   <v type="int" >       13 </v>
   <v type="int" >       14 </v>
   <v type="int" >       15 </v>
   <v type="int" >       16 </v>
  </varray>
 </primitive_cell>
 <kpoints>
  <generation param="Gamma">
   <v type="int" name="divisions">       7        7        8 </v>
   <v name="usershift">      0.00000000       0.00000000       0.00000000 </v>
   <v name="genvec1">      0.14285714       0.00000000      -0.00000000 </v>
   <v name="genvec2">      0.00000000       0.14285714      -0.00000000 </v>
   <v name="genvec3">      0.00000000       0.00000000       0.12500000 </v>
   <v name="shift">      0.00000000       0.00000000       0.00000000 </v>
  </generation>
  <varray name="kpointlist" >
   <v>       0.00000000       0.00000000       0.00000000 </v>
   <v>       0.14285714       0.00000000       0.00000000 </v>
   <v>       0.28571429       0.00000000       0.00000000 </v>
   <v>       0.42857143       0.00000000       0.00000000 </v>
   <v>       0.14285714       0.14285714       0.00000000 </v>
   <v>       0.28571429       0.14285714       0.00000000 </v>
   <v>       0.42857143       0.14285714       0.00000000 </v>
   <v>      -0.42857143       0.14285714       0.00000000 </v>
   <v>      -0.28571429       0.14285714       0.00000000 </v>
   <v>      -0.14285714       0.14285714       0.00000000 </v>
   <v>       0.28571429       0.28571429       0.00000000 </v>
   <v>       0.42857143       0.28571429       0.00000000 </v>
   <v>      -0.42857143       0.28571429       0.00000000 </v>
   <v>      -0.28571429       0.28571429       0.00000000 </v>
   <v>       0.42857143       0.42857143       0.00000000 </v>
   <v>      -0.42857143       0.42857143       0.00000000 </v>
   <v>       0.00000000       0.00000000       0.12500000 </v>
   <v>       0.14285714       0.00000000       0.12500000 </v>
   <v>       0.28571429       0.00000000       0.12500000 </v>
   <v>       0.42857143       0.00000000       0.12500000 </v>
   <v>      -0.42857143       0.00000000       0.12500000 </v>
   <v>      -0.28571429       0.00000000       0.12500000 </v>
   <v>      -0.14285714       0.00000000       0.12500000 </v>
   <v>       0.14285714       0.14285714       0.12500000 </v>
   <v>       0.28571429       0.14285714       0.12500000 </v>
   <v>       0.42857143       0.14285714       0.12500000 </v>
   <v>      -0.42857143       0.14285714       0.12500000 </v>
   <v>      -0.28571429       0.14285714       0.12500000 </v>
   <v>      -0.14285714       0.14285714       0.12500000 </v>
   <v>       0.28571429       0.28571429       0.12500000 </v>
   <v>       0.42857143       0.28571429       0.12500000 </v>
   <v>      -0.42857143       0.28571429       0.12500000 </v>
   <v>      -0.28571429       0.28571429       0.12500000 </v>
   <v>      -0.14285714       0.28571429       0.12500000 </v>
   <v>       0.42857143       0.42857143       0.12500000 </v>
   <v>      -0.42857143       0.42857143       0.12500000 </v>
   <v>      -0.28571429       0.42857143       0.12500000 </v>
   <v>      -0.14285714       0.42857143       0.12500000 </v>
   <v>      -0.42857143      -0.42857143       0.12500000 </v>
   <v>      -0.28571429      -0.42857143       0.12500000 </v>
   <v>      -0.14285714      -0.42857143       0.12500000 </v>
   <v>      -0.28571429      -0.28571429       0.12500000 </v>
   <v>      -0.14285714      -0.28571429       0.12500000 </v>
   <v>      -0.14285714      -0.14285714       0.12500000 </v>
   <v>       0.00000000       0.00000000       0.25000000 </v>
   <v>       0.14285714       0.00000000       0.25000000 </v>
   <v>       0.28571429       0.00000000       0.25000000 </v>
   <v>       0.42857143       0.00000000       0.25000000 </v>
   <v>      -0.42857143       0.00000000       0.25000000 </v>
   <v>      -0.28571429       0.00000000       0.25000000 </v>
   <v>      -0.14285714       0.00000000       0.25000000 </v>
   <v>       0.14285714       0.14285714       0.25000000 </v>
   <v>       0.28571429       0.14285714       0.25000000 </v>
   <v>       0.42857143       0.14285714       0.25000000 </v>
   <v>      -0.42857143       0.14285714       0.25000000 </v>
   <v>      -0.28571429       0.14285714       0.25000000 </v>
   <v>      -0.14285714       0.14285714       0.25000000 </v>
   <v>       0.28571429       0.28571429       0.25000000 </v>
   <v>       0.42857143       0.28571429       0.25000000 </v>
   <v>      -0.42857143       0.28571429       0.25000000 </v>
   <v>      -0.28571429       0.28571429       0.25000000 </v>
   <v>      -0.14285714       0.28571429       0.25000000 </v>
   <v>       0.42857143       0.42857143       0.25000000 </v>
   <v>      -0.42857143       0.42857143       0.25000000 </v>
   <v>      -0.28571429       0.42857143       0.25000000 </v>
   <v>      -0.14285714       0.42857143       0.25000000 </v>
   <v>      -0.42857143      -0.42857143       0.25000000 </v>
   <v>      -0.28571429      -0.42857143       0.25000000 </v>
   <v>      -0.14285714      -0.42857143       0.25000000 </v>
   <v>      -0.28571429      -0.28571429       0.25000000 </v>
   <v>      -0.14285714      -0.28571429       0.25000000 </v>
   <v>      -0.14285714      -0.14285714       0.25000000 </v>
   <v>       0.00000000       0.00000000       0.37500000 </v>
   <v>       0.14285714       0.00000000       0.37500000 </v>
   <v>       0.28571429       0.00000000       0.37500000 </v>
   <v>       0.42857143       0.00000000       0.37500000 </v>
   <v>      -0.42857143       0.00000000       0.37500000 </v>
   <v>      -0.28571429       0.00000000       0.37500000 </v>
   <v>      -0.14285714       0.00000000       0.37500000 </v>
   <v>       0.14285714       0.14285714       0.37500000 </v>
   <v>       0.28571429       0.14285714       0.37500000 </v>
   <v>       0.42857143       0.14285714       0.37500000 </v>
   <v>      -0.42857143       0.14285714       0.37500000 </v>
   <v>      -0.28571429       0.14285714       0.37500000 </v>
   <v>      -0.14285714       0.14285714       0.37500000 </v>
   <v>       0.28571429       0.28571429       0.37500000 </v>
   <v>       0.42857143       0.28571429       0.37500000 </v>
   <v>      -0.42857143       0.28571429       0.37500000 </v>
   <v>      -0.28571429       0.28571429       0.37500000 </v>
   <v>      -0.14285714       0.28571429       0.37500000 </v>
   <v>       0.42857143       0.42857143       0.37500000 </v>
   <v>      -0.42857143       0.42857143       0.37500000 </v>
   <v>      -0.28571429       0.42857143       0.37500000 </v>
   <v>      -0.14285714       0.42857143       0.37500000 </v>
   <v>      -0.42857143      -0.42857143       0.37500000 </v>
   <v>      -0.28571429      -0.42857143       0.37500000 </v>
   <v>      -0.14285714      -0.42857143       0.37500000 </v>
   <v>      -0.28571429      -0.28571429       0.37500000 </v>
   <v>      -0.14285714      -0.28571429       0.37500000 </v>
   <v>      -0.14285714      -0.14285714       0.37500000 </v>
   <v>       0.00000000       0.00000000       0.50000000 </v>
   <v>       0.14285714       0.00000000       0.50000000 </v>
   <v>       0.28571429       0.00000000       0.50000000 </v>
   <v>       0.42857143       0.00000000       0.50000000 </v>
   <v>       0.14285714       0.14285714       0.50000000 </v>
   <v>       0.28571429       0.14285714       0.50000000 </v>
   <v>       0.42857143       0.14285714       0.50000000 </v>
   <v>      -0.42857143       0.14285714       0.50000000 </v>
   <v>      -0.28571429       0.14285714       0.50000000 </v>
   <v>      -0.14285714       0.14285714       0.50000000 </v>
   <v>       0.28571429       0.28571429       0.50000000 </v>
   <v>       0.42857143       0.28571429       0.50000000 </v>
   <v>      -0.42857143       0.28571429       0.50000000 </v>
   <v>      -0.28571429       0.28571429       0.50000000 </v>
   <v>       0.42857143       0.42857143       0.50000000 </v>
   <v>      -0.42857143       0.42857143       0.50000000 </v>
  </varray>
  <varray name="weights" >
   <v>       0.00255102 </v>
   <v>       0.01020408 </v>
   <v>       0.01020408 </v>
   <v>       0.01020408 </v>
   <v>       0.00510204 </v>
   <v>       0.01020408 </v>
   <v>       0.01020408 </v>
   <v>       0.01020408 </v>
   <v>       0.01020408 </v>
   <v>       0.00510204 </v>
   <v>       0.00510204 </v>
   <v>       0.01020408 </v>
   <v>       0.01020408 </v>
   <v>       0.00510204 </v>
   <v>       0.00510204 </v>
   <v>       0.00510204 </v>
   <v>       0.00510204 </v>
   <v>       0.01020408 </v>
   <v>       0.01020408 </v>
   <v>       0.01020408 </v>
   <v>       0.01020408 </v>
   <v>       0.01020408 </v>
   <v>       0.01020408 </v>
   <v>       0.00510204 </v>
   <v>       0.01020408 </v>
   <v>       0.01020408 </v>
   <v>       0.01020408 </v>
   <v>       0.01020408 </v>
   <v>       0.01020408 </v>
   <v>       0.00510204 </v>
   <v>       0.01020408 </v>
   <v>       0.01020408 </v>
   <v>       0.01020408 </v>
   <v>       0.01020408 </v>
   <v>       0.00510204 </v>
   <v>       0.01020408 </v>
   <v>       0.01020408 </v>
   <v>       0.01020408 </v>
   <v>       0.00510204 </v>
   <v>       0.01020408 </v>
   <v>       0.01020408 </v>
   <v>       0.00510204 </v>
   <v>       0.01020408 </v>
   <v>       0.00510204 </v>
   <v>       0.00510204 </v>
   <v>       0.01020408 </v>
   <v>       0.01020408 </v>
   <v>       0.01020408 </v>
   <v>       0.01020408 </v>
   <v>       0.01020408 </v>
   <v>       0.01020408 </v>
   <v>       0.00510204 </v>
   <v>       0.01020408 </v>
   <v>       0.01020408 </v>
   <v>       0.01020408 </v>
   <v>       0.01020408 </v>
   <v>       0.01020408 </v>
   <v>       0.00510204 </v>
   <v>       0.01020408 </v>
   <v>       0.01020408 </v>
   <v>       0.01020408 </v>
   <v>       0.01020408 </v>
   <v>       0.00510204 </v>
   <v>       0.01020408 </v>
   <v>       0.01020408 </v>
   <v>       0.01020408 </v>
   <v>       0.00510204 </v>
   <v>       0.01020408 </v>
   <v>       0.01020408 </v>
   <v>       0.00510204 </v>
   <v>       0.01020408 </v>
   <v>       0.00510204 </v>
   <v>       0.00510204 </v>
   <v>       0.01020408 </v>
   <v>       0.01020408 </v>
   <v>       0.01020408 </v>
   <v>       0.01020408 </v>
   <v>       0.01020408 </v>
   <v>       0.01020408 </v>
   <v>       0.00510204 </v>
   <v>       0.01020408 </v>
   <v>       0.01020408 </v>
   <v>       0.01020408 </v>
   <v>       0.01020408 </v>
   <v>       0.01020408 </v>
   <v>       0.00510204 </v>
   <v>       0.01020408 </v>
   <v>       0.01020408 </v>
   <v>       0.01020408 </v>
   <v>       0.01020408 </v>
   <v>       0.00510204 </v>
   <v>       0.01020408 </v>
   <v>       0.01020408 </v>
   <v>       0.01020408 </v>
   <v>       0.00510204 </v>
   <v>       0.01020408 </v>
   <v>       0.01020408 </v>
   <v>       0.00510204 </v>
   <v>       0.01020408 </v>
   <v>       0.00510204 </v>
   <v>       0.00255102 </v>
   <v>       0.01020408 </v>
   <v>       0.01020408 </v>
   <v>       0.01020408 </v>
   <v>       0.00510204 </v>
   <v>       0.01020408 </v>
   <v>       0.01020408 </v>
   <v>       0.01020408 </v>
   <v>       0.01020408 </v>
   <v>       0.00510204 </v>
   <v>       0.00510204 </v>
   <v>       0.01020408 </v>
   <v>       0.01020408 </v>
   <v>       0.00510204 </v>
   <v>       0.00510204 </v>
   <v>       0.00510204 </v>
  </varray>
 </kpoints>
 <parameters>
  <separator name="general" >
   <i type="string" name="SYSTEM">routine with relax: pwdword</i>
   <i type="logical" name="LCOMPAT"> F  </i>
  </separator>
  <separator name="electronic" >
   <i type="string" name="PREC">acc</i>
   <i name="ENMAX">    600.00000000</i>
   <i name="ENAUG">    535.51400000</i>
   <i name="EDIFF">      0.00000000</i>
   <i type="int" name="IALGO">    58</i>
   <i type="int" name="IWAVPR">    10</i>
   <i type="int" name="NBANDS">    96</i>
   <i type="int" name="NBANDSLOW">    -1</i>
   <i type="int" name="NBANDSHIGH">    -1</i>
   <i name="NELECT">    160.00000000</i>
   <i type="int" name="TURBO">     0</i>
   <i type="int" name="IRESTART">     0</i>
   <i type="int" name="NREBOOT">     0</i>
   <i type="int" name="NMIN">     0</i>
   <i name="EREF">      0.00000000</i>
   <separator name="electronic smearing" >
    <i type="int" name="ISMEAR">     0</i>
    <i name="SIGMA">      0.02000000</i>
    <i name="KSPACING">      0.50000000</i>
    <i type="logical" name="KGAMMA"> T  </i>
    <i type="logical" name="KBLOWUP"> F  </i>
   </separator>
   <separator name="electronic projectors" >
    <i type="logical" name="LREAL"> F  </i>
    <v name="ROPT">      0.00000000      0.00000000      0.00000000</v>
    <i type="int" name="LMAXPAW">  -100</i>
    <i type="int" name="LMAXMIX">     2</i>
    <i type="logical" name="NLSPLINE"> F  </i>
   </separator>
   <separator name="electronic startup" >
    <i type="int" name="ISTART">     0</i>
    <i type="int" name="ICHARG">     2</i>
    <i type="int" name="INIWAV">     1</i>
   </separator>
   <separator name="electronic spin" >
    <i type="int" name="ISPIN">     1</i>
    <i type="logical" name="LNONCOLLINEAR"> F  </i>
    <v name="MAGMOM">      1.00000000      1.00000000      1.00000000      1.00000000      1.00000000      1.00000000      1.00000000      1.00000000      1.00000000      1.00000000      1.00000000      1.00000000      1.00000000      1.00000000      1.00000000      1.00000000</v>
    <i name="NUPDOWN">     -1.00000000</i>
    <i type="logical" name="LSORBIT"> F  </i>
    <v name="SAXIS">      0.00000000      0.00000000      1.00000000</v>
    <i type="logical" name="LSPIRAL"> F  </i>
    <v name="QSPIRAL">      0.00000000      0.00000000      0.00000000</v>
    <i type="logical" name="LZEROZ"> F  </i>
   </separator>
   <separator name="electronic exchange-correlation" >
    <i type="logical" name="LASPH"> T  </i>
    <i type="logical" name="LMETAGGA"> F  </i>
   </separator>
   <separator name="electronic convergence" >
    <i type="int" name="NELM">   100</i>
    <i type="int" name="NELMDL">     0</i>
    <i type="int" name="NELMIN">     6</i>
    <i name="ENINI">    600.00000000</i>
    <separator name="electronic convergence detail" >
     <i type="logical" name="LDIAG"> T  </i>
     <i type="logical" name="LSUBROT"> F  </i>
     <i name="WEIMIN">      0.00000000</i>
     <i name="EBREAK">      0.00000000</i>
     <i name="DEPER">      0.30000000</i>
     <i type="int" name="NRMM">     4</i>
     <i name="TIME">      0.40000000</i>
    </separator>
   </separator>
   <separator name="electronic mixer" >
    <i name="AMIX">      0.40000000</i>
    <i name="BMIX">      1.00000000</i>
    <i name="AMIN">      0.10000000</i>
    <i name="AMIX_MAG">      1.60000000</i>
    <i name="BMIX_MAG">      1.00000000</i>
    <separator name="electronic mixer details" >
     <i type="int" name="IMIX">     4</i>
     <i type="logical" name="MIXFIRST"> F  </i>
     <i type="int" name="MAXMIX">   -45</i>
     <i name="WC">    100.00000000</i>
     <i type="int" name="INIMIX">     1</i>
     <i type="int" name="MIXPRE">     1</i>
     <i type="int" name="MREMOVE">     5</i>
    </separator>
   </separator>
   <separator name="electronic dipolcorrection" >
    <i type="logical" name="LDIPOL"> F  </i>
    <i type="logical" name="LMONO"> F  </i>
    <i type="int" name="IDIPOL">     0</i>
    <i name="EPSILON">      1.00000000</i>
    <v name="DIPOL">   -100.00000000   -100.00000000   -100.00000000</v>
    <i name="EFIELD">      0.00000000</i>
   </separator>
  </separator>
  <separator name="grids" >
   <i type="int" name="NGX">    56</i>
   <i type="int" name="NGY">    56</i>
   <i type="int" name="NGZ">    56</i>
   <i type="int" name="NGXF">   112</i>
   <i type="int" name="NGYF">   112</i>
   <i type="int" name="NGZF">   112</i>
   <i type="logical" name="ADDGRID"> T  </i>
  </separator>
  <separator name="ionic" >
   <i type="int" name="NSW">     0</i>
   <i type="int" name="IBRION">    -1</i>
   <i type="int" name="MDALGO">     0</i>
   <i type="int" name="ISIF">    -1</i>
   <i name="PSTRESS">      0.00000000</i>
   <i name="EDIFFG">      0.00000001</i>
   <i type="int" name="NFREE">     0</i>
   <i name="POTIM">      0.50000000</i>
   <i name="SMASS">     -3.00000000</i>
   <i name="SCALEE">      1.00000000</i>
  </separator>
  <separator name="ionic md" >
   <i name="TEBEG">      0.00010000</i>
   <i name="TEEND">      0.00010000</i>
   <i type="int" name="NBLOCK">     1</i>
   <i type="int" name="KBLOCK">     1</i>
   <i type="int" name="NPACO">   256</i>
   <i name="APACO">     16.00000000</i>
  </separator>
  <separator name="symmetry" >
   <i type="int" name="ISYM">     2</i>
   <i name="SYMPREC">      0.00010000</i>
  </separator>
  <separator name="dos" >
   <i type="int" name="LORBIT">     0</i>
   <v name="RWIGS">     -1.00000000     -1.00000000     -1.00000000</v>
   <i type="int" name="NEDOS">   301</i>
   <i name="EMIN">     10.00000000</i>
   <i name="EMAX">    -10.00000000</i>
   <i name="EFERMI">      0.00000000</i>
  </separator>
  <separator name="writing" >
   <i type="int" name="NWRITE">     2</i>
   <i type="logical" name="LWAVE"> T  </i>
   <i type="logical" name="LDOWNSAMPLE"> F  </i>
   <i type="logical" name="LCHARG"> T  </i>
   <i type="logical" name="LPARD"> F  </i>
   <i type="logical" name="LVTOT"> F  </i>
   <i type="logical" name="LVHAR"> F  </i>
   <i type="logical" name="LELF"> F  </i>
   <i type="logical" name="LOPTICS"> F  </i>
   <v name="STM">      0.00000000      0.00000000      0.00000000      0.00000000      0.00000000      0.00000000      0.00000000</v>
  </separator>
  <separator name="performance" >
   <i type="int" name="NPAR">     6</i>
   <i type="int" name="NSIM">     4</i>
   <i type="int" name="NBLK">    -1</i>
   <i type="logical" name="LPLANE"> T  </i>
   <i type="logical" name="LSCALAPACK"> T  </i>
   <i type="logical" name="LSCAAWARE"> F  </i>
   <i type="logical" name="LSCALU"> F  </i>
   <i type="logical" name="LASYNC"> F  </i>
   <i type="logical" name="LORBITALREAL"> F  </i>
  </separator>
  <separator name="miscellaneous" >
   <i type="int" name="IDIOT">     3</i>
   <i type="int" name="PHON_NSTRUCT">    -1</i>
   <i type="logical" name="LMUSIC"> F  </i>
   <v name="POMASS">     10.81100000     95.94000000     28.08500000</v>
   <v name="DARWINR">      0.00000000      0.00000000      0.00000000</v>
   <v name="DARWINV">      1.00000000      1.00000000      1.00000000</v>
   <i type="logical" name="LCORR"> T  </i>
  </separator>
  <i type="logical" name="GGA_COMPAT"> T  </i>
  <i type="logical" name="LBERRY"> F  </i>
  <i type="int" name="ICORELEVEL">     0</i>
  <i type="logical" name="LDAU"> F  </i>
  <i type="int" name="I_CONSTRAINED_M">     0</i>
  <separator name="electronic exchange-correlation" >
   <i type="string" name="GGA">--</i>
   <i type="int" name="VOSKOWN">     0</i>
   <i type="logical" name="LHFCALC"> F  </i>
   <i type="string" name="PRECFOCK"></i>
   <i type="logical" name="LSYMGRAD"> F  </i>
   <i type="logical" name="LHFONE"> F  </i>
   <i type="logical" name="LRHFCALC"> F  </i>
   <i type="logical" name="LTHOMAS"> F  </i>
   <i type="logical" name="LMODELHF"> F  </i>
   <i type="logical" name="LFOCKACE"> F  </i>
   <i name="ENCUT4O">     -1.00000000</i>
   <i type="int" name="EXXOEP">     0</i>
   <i type="int" name="FOURORBIT">     0</i>
   <i name="AEXX">      0.00000000</i>
   <i name="HFALPHA">      0.00000000</i>
   <i name="MCALPHA">      0.00000000</i>
   <i name="ALDAX">      1.00000000</i>
   <i name="AGGAX">      1.00000000</i>
   <i name="ALDAC">      1.00000000</i>
   <i name="AGGAC">      1.00000000</i>
   <i type="int" name="NKREDX">     1</i>
   <i type="int" name="NKREDY">     1</i>
   <i type="int" name="NKREDZ">     1</i>
   <i type="logical" name="SHIFTRED"> F  </i>
   <i type="logical" name="ODDONLY"> F  </i>
   <i type="logical" name="EVENONLY"> F  </i>
   <i type="int" name="LMAXFOCK">     0</i>
   <i type="int" name="NMAXFOCKAE">     0</i>
   <i type="logical" name="LFOCKAEDFT"> F  </i>
   <i name="HFSCREEN">      0.00000000</i>
   <i name="HFSCREENC">      0.00000000</i>
   <i type="int" name="NBANDSGWLOW">     0</i>
  </separator>
  <separator name="vdW DFT" >
   <i type="logical" name="LUSE_VDW"> F  </i>
   <i name="Zab_VDW">     -0.84910000</i>
   <i name="PARAM1">      0.12340000</i>
   <i name="PARAM2">      1.00000000</i>
   <i name="PARAM3">      0.00000000</i>
  </separator>
  <separator name="model GW" >
   <i type="int" name="MODEL_GW">     0</i>
   <i name="MODEL_EPS0">      7.66697861</i>
   <i name="MODEL_ALPHA">      1.00000000</i>
  </separator>
  <separator name="linear response parameters" >
   <i type="logical" name="LEPSILON"> F  </i>
   <i type="logical" name="LRPA"> F  </i>
   <i type="logical" name="LNABLA"> F  </i>
   <i type="logical" name="LVEL"> F  </i>
   <i type="int" name="KINTER">     0</i>
   <i name="CSHIFT">      0.10000000</i>
   <i name="OMEGAMAX">     -1.00000000</i>
   <i name="DEG_THRESHOLD">      0.00200000</i>
   <i name="RTIME">     -0.10000000</i>
   <i name="WPLASMAI">      0.00000000</i>
   <v name="DFIELD">      0.00000000      0.00000000      0.00000000</v>
   <v name="WPLASMA">      0.00000000      0.00000000      0.00000000      0.00000000      0.00000000      0.00000000      0.00000000      0.00000000      0.00000000</v>
  </separator>
  <separator name="orbital magnetization" >
   <i type="logical" name="NUCIND"> F  </i>
   <v name="MAGPOS">      0.00000000      0.00000000      0.00000000</v>
   <i type="logical" name="LNICSALL"> T  </i>
   <i type="logical" name="ORBITALMAG"> F  </i>
   <i type="logical" name="LMAGBLOCH"> F  </i>
   <i type="logical" name="LCHIMAG"> F  </i>
   <i type="logical" name="LGAUGE"> T  </i>
   <i type="int" name="MAGATOM">     0</i>
   <v name="MAGDIPOL">      0.00000000      0.00000000      0.00000000</v>
   <v name="AVECCONST">      0.00000000      0.00000000      0.00000000</v>
  </separator>
  <separator name="response functions" >
   <i type="logical" name="LFINITE_TEMPERATURE"> F  </i>
   <i type="logical" name="LADDER"> F  </i>
   <i type="logical" name="LRPAFORCE"> F  </i>
   <i type="logical" name="LFXC"> F  </i>
   <i type="logical" name="LHARTREE"> T  </i>
   <i type="int" name="IBSE">     0</i>
   <v type="int" name="KPOINT">    -1     0     0     0</v>
   <i type="logical" name="LTCTC"> F  </i>
   <i type="logical" name="LTCTE"> F  </i>
   <i type="logical" name="LTETE"> F  </i>
   <i type="logical" name="LTRIPLET"> F  </i>
   <i type="logical" name="LFXCEPS"> F  </i>
   <i type="logical" name="LFXHEG"> F  </i>
   <i type="int" name="NATURALO">     2</i>
   <i type="logical" name="LHOLEGF"> F  </i>
   <i type="logical" name="L2ORDER"> F  </i>
   <i type="logical" name="LDMP1"> F  </i>
   <i type="logical" name="LMP2LT"> F  </i>
   <i type="logical" name="LSMP2LT"> F  </i>
   <i type="logical" name="LGWLF"> F  </i>
   <i name="ENCUTGW">     -2.00000000</i>
   <i name="ENCUTGWSOFT">     -2.00000000</i>
   <i name="ENCUTLF">     -1.00000000</i>
   <i type="logical" name="LESF_SPLINES"> F  </i>
   <i type="int" name="LMAXMP2">    -1</i>
   <i name="SCISSOR">      0.00000000</i>
   <i type="int" name="NOMEGA">     0</i>
   <i type="int" name="NOMEGAR">     0</i>
   <i type="int" name="NBANDSGW">    -1</i>
   <i type="int" name="NBANDSO">    -1</i>
   <i type="int" name="NBANDSV">    -1</i>
   <i type="int" name="NELM">   100</i>
   <i type="int" name="NELMHF">     1</i>
   <i type="int" name="DIM">     3</i>
   <i type="int" name="IESPILON">     4</i>
   <i type="int" name="ANTIRES">     0</i>
   <i name="OMEGAMAX">    -30.00000000</i>
   <i name="OMEGAMIN">    -30.00000000</i>
   <i name="OMEGATL">   -200.00000000</i>
   <i type="int" name="OMEGAGRID">     0</i>
   <i name="CSHIFT">     -0.10000000</i>
   <i type="logical" name="LSELFENERGY"> F  </i>
   <i type="logical" name="LSPECTRAL"> F  </i>
   <i type="logical" name="LSPECTRALGW"> F  </i>
   <i type="logical" name="LSINGLES"> F  </i>
   <i type="logical" name="LFERMIGW"> F  </i>
   <i type="logical" name="ODDONLYGW"> F  </i>
   <i type="logical" name="EVENONLYGW"> F  </i>
   <i type="int" name="NKREDLFX">     1</i>
   <i type="int" name="NKREDLFY">     1</i>
   <i type="int" name="NKREDLFZ">     1</i>
   <i type="int" name="MAXMEM">  2800</i>
   <i type="int" name="TELESCOPE">     0</i>
   <i type="int" name="NTAUPAR">    -1</i>
   <i type="int" name="NOMEGAPAR">    -1</i>
   <i name="DAMP_NEWTON">      0.80000001</i>
   <i name="LAMBDA">      1.00000000</i>
  </separator>
  <separator name="External order field" >
   <i name="OFIELD_KAPPA">      0.00000000</i>
   <v name="OFIELD_K">      0.00000000      0.00000000      0.00000000</v>
   <i name="OFIELD_Q6_NEAR">      0.00000000</i>
   <i name="OFIELD_Q6_FAR">      0.00000000</i>
   <i name="OFIELD_A">      0.00000000</i>
  </separator>
 </parameters>
 <atominfo>
  <atoms>      16 </atoms>
  <types>       3 </types>
  <array name="atoms" >
   <dimension dim="1">ion</dimension>
   <field type="string">element</field>
   <field type="int">atomtype</field>
   <set>
    <rc><c>B </c><c>   1</c></rc>
    <rc><c>B </c><c>   1</c></rc>
    <rc><c>B </c><c>   1</c></rc>
    <rc><c>B </c><c>   1</c></rc>
    <rc><c>Mo</c><c>   2</c></rc>
    <rc><c>Mo</c><c>   2</c></rc>
    <rc><c>Mo</c><c>   2</c></rc>
    <rc><c>Mo</c><c>   2</c></rc>
    <rc><c>Mo</c><c>   2</c></rc>
    <rc><c>Mo</c><c>   2</c></rc>
    <rc><c>Mo</c><c>   2</c></rc>
    <rc><c>Mo</c><c>   2</c></rc>
    <rc><c>Mo</c><c>   2</c></rc>
    <rc><c>Mo</c><c>   2</c></rc>
    <rc><c>Si</c><c>   3</c></rc>
    <rc><c>Si</c><c>   3</c></rc>
   </set>
  </array>
  <array name="atomtypes" >
   <dimension dim="1">type</dimension>
   <field type="int">atomspertype</field>
   <field type="string">element</field>
   <field>mass</field>
   <field>valence</field>
   <field type="string">pseudopotential</field>
   <set>
    <rc><c>   4</c><c>B </c><c>     10.81100000</c><c>      3.00000000</c><c>  PAW_PBE B 06Sep2000                   </c></rc>
    <rc><c>  10</c><c>Mo</c><c>     95.94000000</c><c>     14.00000000</c><c>  PAW_PBE Mo_sv 02Feb2006               </c></rc>
    <rc><c>   2</c><c>Si</c><c>     28.08500000</c><c>      4.00000000</c><c>  PAW_PBE Si 05Jan2001                  </c></rc>
   </set>
  </array>
 </atominfo>
 <structure name="initialpos" >
  <crystal>
   <varray name="basis" >
    <v>      -3.02663100       3.02663100       5.57974100 </v>
    <v>       3.02663100      -3.02663100       5.57974100 </v>
    <v>       3.02663100       3.02663100      -5.57974100 </v>
   </varray>
   <i name="volume">    204.45276282 </i>
   <varray name="rec_basis" >
    <v>       0.00000000       0.16520018       0.08960989 </v>
    <v>       0.16520018       0.00000000       0.08960989 </v>
    <v>       0.16520018       0.16520018       0.00000000 </v>
   </varray>
  </crystal>
  <varray name="positions" >
   <v>       0.37904800       0.87904800       0.25809700 </v>
   <v>       0.87904800       0.62095200       0.50000000 </v>
   <v>       0.62095200       0.12095200       0.74190300 </v>
   <v>       0.12095200       0.37904800       0.50000000 </v>
   <v>       0.00000000       0.00000000       0.00000000 </v>
   <v>       0.80380800       0.97570900       0.50000000 </v>
   <v>       0.30380800       0.80380800       0.82809900 </v>
   <v>       0.19619200       0.02429100       0.50000000 </v>
   <v>       0.52429100       0.69619200       0.50000000 </v>
   <v>       0.02429100       0.52429100       0.82809900 </v>
   <v>       0.69619200       0.19619200       0.17190100 </v>
   <v>       0.97570900       0.47570900       0.17190100 </v>
   <v>       0.50000000       0.50000000       0.00000000 </v>
   <v>       0.47570900       0.30380800       0.50000000 </v>
   <v>       0.75000000       0.75000000       0.00000000 </v>
   <v>       0.25000000       0.25000000       0.00000000 </v>
  </varray>
 </structure>
 <calculation>
  <scstep>
   <time name="total">   47.01   47.32</time>
   <energy>
    <i name="alphaZ">   1115.08645167 </i>
    <i name="ewald"> -16385.11924544 </i>
    <i name="hartreedc">  -3418.17742106 </i>
    <i name="XCdc">    792.80501068 </i>
    <i name="pawpsdc">  15195.10980530 </i>
    <i name="pawaedc"> -15141.88575711 </i>
    <i name="eentropy">     -0.00125984 </i>
    <i name="bandstr">    573.90751603 </i>
    <i name="atom">  19113.63672979 </i>
    <i name="e_fr_energy">   1845.36183001 </i>
    <i name="e_wo_entrp">   1845.36308985 </i>
    <i name="e_0_energy">   1845.36245993 </i>
   </energy>
  </scstep>
  <scstep>
   <time name="total">   47.74   48.06</time>
   <energy>
    <i name="e_fr_energy">   -281.98020828 </i>
    <i name="e_wo_entrp">   -281.97864792 </i>
    <i name="e_0_energy">   -281.97942810 </i>
   </energy>
  </scstep>
  <scstep>
   <time name="total">   55.81   56.16</time>
   <energy>
    <i name="e_fr_energy">   -383.78721234 </i>
    <i name="e_wo_entrp">   -383.78579817 </i>
    <i name="e_0_energy">   -383.78650526 </i>
   </energy>
  </scstep>
  <scstep>
   <time name="total">   51.30   51.63</time>
   <energy>
    <i name="e_fr_energy">   -386.46861743 </i>
    <i name="e_wo_entrp">   -386.46680277 </i>
    <i name="e_0_energy">   -386.46771010 </i>
   </energy>
  </scstep>
  <scstep>
   <time name="total">   55.85   56.22</time>
   <energy>
    <i name="e_fr_energy">   -386.52434126 </i>
    <i name="e_wo_entrp">   -386.52253193 </i>
    <i name="e_0_energy">   -386.52343659 </i>
   </energy>
  </scstep>
  <scstep>
   <time name="total">   63.77   64.31</time>
   <energy>
    <i name="e_fr_energy">   -282.71682910 </i>
    <i name="e_wo_entrp">   -282.71561286 </i>
    <i name="e_0_energy">   -282.71622098 </i>
   </energy>
  </scstep>
  <scstep>
   <time name="total">   59.81   60.17</time>
   <energy>
    <i name="e_fr_energy">   -307.64748248 </i>
    <i name="e_wo_entrp">   -307.64626002 </i>
    <i name="e_0_energy">   -307.64687125 </i>
   </energy>
  </scstep>
  <scstep>
   <time name="total">   63.79   64.15</time>
   <energy>
    <i name="e_fr_energy">   -312.29387530 </i>
    <i name="e_wo_entrp">   -312.29268249 </i>
    <i name="e_0_energy">   -312.29327890 </i>
   </energy>
  </scstep>
  <scstep>
   <time name="total">   62.39   62.75</time>
   <energy>
    <i name="e_fr_energy">   -313.70762622 </i>
    <i name="e_wo_entrp">   -313.70631499 </i>
    <i name="e_0_energy">   -313.70697061 </i>
   </energy>
  </scstep>
  <scstep>
   <time name="total">   60.19   60.53</time>
   <energy>
    <i name="e_fr_energy">   -314.13467988 </i>
    <i name="e_wo_entrp">   -314.13335231 </i>
    <i name="e_0_energy">   -314.13401609 </i>
   </energy>
  </scstep>
  <scstep>
   <time name="total">   64.29   64.66</time>
   <energy>
    <i name="e_fr_energy">   -314.27979836 </i>
    <i name="e_wo_entrp">   -314.27841732 </i>
    <i name="e_0_energy">   -314.27910784 </i>
   </energy>
  </scstep>
  <scstep>
   <time name="total">   59.91   60.26</time>
   <energy>
    <i name="e_fr_energy">   -314.33084156 </i>
    <i name="e_wo_entrp">   -314.32946032 </i>
    <i name="e_0_energy">   -314.33015094 </i>
   </energy>
  </scstep>
  <scstep>
   <time name="total">   60.36   60.71</time>
   <energy>
    <i name="e_fr_energy">   -314.35258616 </i>
    <i name="e_wo_entrp">   -314.35121889 </i>
    <i name="e_0_energy">   -314.35190252 </i>
   </energy>
  </scstep>
  <scstep>
   <time name="total">   63.84   64.20</time>
   <energy>
    <i name="e_fr_energy">   -314.36225380 </i>
    <i name="e_wo_entrp">   -314.36091841 </i>
    <i name="e_0_energy">   -314.36158610 </i>
   </energy>
  </scstep>
  <scstep>
   <time name="total">   62.30   62.67</time>
   <energy>
    <i name="e_fr_energy">   -314.36686934 </i>
    <i name="e_wo_entrp">   -314.36554626 </i>
    <i name="e_0_energy">   -314.36620780 </i>
   </energy>
  </scstep>
  <scstep>
   <time name="total">   63.54   63.91</time>
   <energy>
    <i name="e_fr_energy">   -314.36863887 </i>
    <i name="e_wo_entrp">   -314.36732518 </i>
    <i name="e_0_energy">   -314.36798202 </i>
   </energy>
  </scstep>
  <scstep>
   <time name="total">   60.13   60.48</time>
   <energy>
    <i name="e_fr_energy">   -314.36933745 </i>
    <i name="e_wo_entrp">   -314.36802418 </i>
    <i name="e_0_energy">   -314.36868081 </i>
   </energy>
  </scstep>
  <scstep>
   <time name="total">   66.12   66.50</time>
   <energy>
    <i name="e_fr_energy">   -314.36964253 </i>
    <i name="e_wo_entrp">   -314.36832953 </i>
    <i name="e_0_energy">   -314.36898603 </i>
   </energy>
  </scstep>
  <scstep>
   <time name="total">   62.80   63.17</time>
   <energy>
    <i name="e_fr_energy">   -314.36977628 </i>
    <i name="e_wo_entrp">   -314.36846154 </i>
    <i name="e_0_energy">   -314.36911891 </i>
   </energy>
  </scstep>
  <scstep>
   <time name="total">   62.63   62.99</time>
   <energy>
    <i name="e_fr_energy">   -314.36983554 </i>
    <i name="e_wo_entrp">   -314.36851998 </i>
    <i name="e_0_energy">   -314.36917776 </i>
   </energy>
  </scstep>
  <scstep>
   <time name="total">   62.76   63.13</time>
   <energy>
    <i name="e_fr_energy">   -314.36986026 </i>
    <i name="e_wo_entrp">   -314.36854321 </i>
    <i name="e_0_energy">   -314.36920174 </i>
   </energy>
  </scstep>
  <scstep>
   <time name="total">   60.24   60.60</time>
   <energy>
    <i name="e_fr_energy">   -314.36987197 </i>
    <i name="e_wo_entrp">   -314.36855443 </i>
    <i name="e_0_energy">   -314.36921320 </i>
   </energy>
  </scstep>
  <scstep>
   <time name="total">   60.62   60.97</time>
   <energy>
    <i name="e_fr_energy">   -314.36987607 </i>
    <i name="e_wo_entrp">   -314.36855798 </i>
    <i name="e_0_energy">   -314.36921702 </i>
   </energy>
  </scstep>
  <scstep>
   <time name="total">   60.41   60.76</time>
   <energy>
    <i name="e_fr_energy">   -314.36987823 </i>
    <i name="e_wo_entrp">   -314.36856007 </i>
    <i name="e_0_energy">   -314.36921915 </i>
   </energy>
  </scstep>
  <scstep>
   <time name="total">   62.24   62.60</time>
   <energy>
    <i name="e_fr_energy">   -314.36987918 </i>
    <i name="e_wo_entrp">   -314.36856111 </i>
    <i name="e_0_energy">   -314.36922015 </i>
   </energy>
  </scstep>
  <scstep>
   <time name="total">   60.36   60.71</time>
   <energy>
    <i name="e_fr_energy">   -314.36987954 </i>
    <i name="e_wo_entrp">   -314.36856152 </i>
    <i name="e_0_energy">   -314.36922053 </i>
   </energy>
  </scstep>
  <scstep>
   <time name="total">   60.54   60.89</time>
   <energy>
    <i name="e_fr_energy">   -314.36987972 </i>
    <i name="e_wo_entrp">   -314.36856178 </i>
    <i name="e_0_energy">   -314.36922075 </i>
   </energy>
  </scstep>
  <scstep>
   <time name="total">   57.93   58.26</time>
   <energy>
    <i name="e_fr_energy">   -314.36987980 </i>
    <i name="e_wo_entrp">   -314.36856195 </i>
    <i name="e_0_energy">   -314.36922087 </i>
   </energy>
  </scstep>
  <scstep>
   <time name="total">   60.79   61.15</time>
   <energy>
    <i name="e_fr_energy">   -314.36987985 </i>
    <i name="e_wo_entrp">   -314.36856218 </i>
    <i name="e_0_energy">   -314.36922101 </i>
   </energy>
  </scstep>
  <scstep>
   <time name="total">   60.79   61.15</time>
   <energy>
    <i name="e_fr_energy">   -314.36987975 </i>
    <i name="e_wo_entrp">   -314.36856212 </i>
    <i name="e_0_energy">   -314.36922094 </i>
   </energy>
  </scstep>
  <scstep>
   <time name="total">   64.52   64.89</time>
   <energy>
    <i name="e_fr_energy">   -314.36987984 </i>
    <i name="e_wo_entrp">   -314.36856218 </i>
    <i name="e_0_energy">   -314.36922101 </i>
   </energy>
  </scstep>
  <scstep>
   <time name="total">   65.19   65.57</time>
   <energy>
    <i name="e_fr_energy">   -314.36987987 </i>
    <i name="e_wo_entrp">   -314.36856217 </i>
    <i name="e_0_energy">   -314.36922102 </i>
   </energy>
  </scstep>
  <scstep>
   <time name="total">   66.52   66.90</time>
   <energy>
    <i name="e_fr_energy">   -314.36987988 </i>
    <i name="e_wo_entrp">   -314.36856209 </i>
    <i name="e_0_energy">   -314.36922099 </i>
   </energy>
  </scstep>
  <scstep>
   <time name="total">   63.37   63.74</time>
   <energy>
    <i name="e_fr_energy">   -314.36987988 </i>
    <i name="e_wo_entrp">   -314.36856208 </i>
    <i name="e_0_energy">   -314.36922098 </i>
   </energy>
  </scstep>
  <scstep>
   <time name="total">   63.13   63.50</time>
   <energy>
    <i name="e_fr_energy">   -314.36987990 </i>
    <i name="e_wo_entrp">   -314.36856213 </i>
    <i name="e_0_energy">   -314.36922101 </i>
   </energy>
  </scstep>
  <scstep>
   <time name="total">   63.57   63.96</time>
   <energy>
    <i name="e_fr_energy">   -314.36987991 </i>
    <i name="e_wo_entrp">   -314.36856212 </i>
    <i name="e_0_energy">   -314.36922101 </i>
   </energy>
  </scstep>
  <scstep>
   <time name="total">   61.32   61.70</time>
   <energy>
    <i name="e_fr_energy">   -314.36987992 </i>
    <i name="e_wo_entrp">   -314.36856214 </i>
    <i name="e_0_energy">   -314.36922103 </i>
   </energy>
  </scstep>
  <scstep>
   <time name="total">   74.05   74.49</time>
   <energy>
    <i name="alphaZ">   1115.08645167 </i>
    <i name="ewald"> -16385.11924544 </i>
    <i name="hartreedc">  -3131.69582126 </i>
    <i name="XCdc">    804.37716000 </i>
    <i name="pawpsdc">  19545.14710261 </i>
    <i name="pawaedc"> -19529.16134396 </i>
    <i name="eentropy">     -0.00131778 </i>
    <i name="bandstr">  -1846.63959554 </i>
    <i name="atom">  19113.63672979 </i>
    <i name="e_fr_energy">   -314.36987992 </i>
    <i name="e_wo_entrp">   -314.36856214 </i>
    <i name="e_0_energy">   -314.36922103 </i>
   </energy>
  </scstep>
  <structure>
   <crystal>
    <varray name="basis" >
     <v>      -3.02663100       3.02663100       5.57974100 </v>
     <v>       3.02663100      -3.02663100       5.57974100 </v>
     <v>       3.02663100       3.02663100      -5.57974100 </v>
    </varray>
    <i name="volume">    204.45276282 </i>
    <varray name="rec_basis" >
     <v>       0.00000000       0.16520018       0.08960989 </v>
     <v>       0.16520018       0.00000000       0.08960989 </v>
     <v>       0.16520018       0.16520018       0.00000000 </v>
    </varray>
   </crystal>
   <varray name="positions" >
    <v>       0.37904800       0.87904800       0.25809700 </v>
    <v>       0.87904800       0.62095200       0.50000000 </v>
    <v>       0.62095200       0.12095200       0.74190300 </v>
    <v>       0.12095200       0.37904800       0.50000000 </v>
    <v>       0.00000000       0.00000000       0.00000000 </v>
    <v>       0.80380800       0.97570900       0.50000000 </v>
    <v>       0.30380800       0.80380800       0.82809900 </v>
    <v>       0.19619200       0.02429100       0.50000000 </v>
    <v>       0.52429100       0.69619200       0.50000000 </v>
    <v>       0.02429100       0.52429100       0.82809900 </v>
    <v>       0.69619200       0.19619200       0.17190100 </v>
    <v>       0.97570900       0.47570900       0.17190100 </v>
    <v>       0.50000000       0.50000000       0.00000000 </v>
    <v>       0.47570900       0.30380800       0.50000000 </v>
    <v>       0.75000000       0.75000000       0.00000000 </v>
    <v>       0.25000000       0.25000000       0.00000000 </v>
   </varray>
  </structure>
  <varray name="forces" >
   <v>       0.00000000       0.00000000       0.00000000 </v>
   <v>       0.00000000       0.00000000       0.00000000 </v>
   <v>       0.00000000       0.00000000       0.00000000 </v>
   <v>       0.00000000       0.00000000       0.00000000 </v>
   <v>       0.00000000       0.00000000       0.00000000 </v>
   <v>       0.00000000       0.00000000       0.00000000 </v>
   <v>       0.00000000       0.00000000       0.00000000 </v>
   <v>       0.00000000       0.00000000       0.00000000 </v>
   <v>       0.00000000       0.00000000       0.00000000 </v>
   <v>       0.00000000       0.00000000       0.00000000 </v>
   <v>       0.00000000       0.00000000       0.00000000 </v>
   <v>       0.00000000       0.00000000       0.00000000 </v>
   <v>       0.00000000       0.00000000       0.00000000 </v>
   <v>       0.00000000       0.00000000       0.00000000 </v>
   <v>       0.00000000       0.00000000       0.00000000 </v>
   <v>       0.00000000       0.00000000       0.00000000 </v>
  </varray>
  <varray name="stress" >
   <v>       0.00000000       0.00000000       0.00000000 </v>
   <v>       0.00000000       0.00000000       0.00000000 </v>
   <v>       0.00000000       0.00000000       0.00000000 </v>
  </varray>
  <energy>
   <i name="e_fr_energy">   -314.36987992 </i>
   <i name="e_wo_entrp">   -314.36856214 </i>
   <i name="e_0_energy">   -314.36922103 </i>
  </energy>
  <time name="totalsc"> 2329.29 2343.23</time>
  <eigenvalues>
   <array>
    <dimension dim="1">band</dimension>
    <dimension dim="2">kpoint</dimension>
    <dimension dim="3">spin</dimension>
    <field>eigene</field>
    <field>occ</field>
    <set>
     <set comment="spin 1">
      <set comment="kpoint 1">
       <r>  -51.1373    1.0000 </r>
       <r>  -51.0302    1.0000 </r>
       <r>  -50.9493    1.0000 </r>
       <r>  -50.9380    1.0000 </r>
       <r>  -50.9207    1.0000 </r>
       <r>  -50.9199    1.0000 </r>
       <r>  -50.9199    1.0000 </r>
       <r>  -50.9012    1.0000 </r>
       <r>  -50.8979    1.0000 </r>
       <r>  -50.8978    1.0000 </r>
       <r>  -24.9591    1.0000 </r>
       <r>  -24.9154    1.0000 </r>
       <r>  -24.9154    1.0000 </r>
       <r>  -24.7530    1.0000 </r>
       <r>  -24.7530    1.0000 </r>
       <r>  -24.7325    1.0000 </r>
       <r>  -24.7005    1.0000 </r>
       <r>  -24.6500    1.0000 </r>
       <r>  -24.6191    1.0000 </r>
       <r>  -24.4657    1.0000 </r>
       <r>  -24.4657    1.0000 </r>
       <r>  -24.4509    1.0000 </r>
       <r>  -24.4110    1.0000 </r>
       <r>  -24.3702    1.0000 </r>
       <r>  -24.3078    1.0000 </r>
       <r>  -24.3078    1.0000 </r>
       <r>  -24.2753    1.0000 </r>
       <r>  -24.2512    1.0000 </r>
       <r>  -24.2125    1.0000 </r>
       <r>  -24.1856    1.0000 </r>
       <r>  -24.0660    1.0000 </r>
       <r>  -24.0659    1.0000 </r>
       <r>  -24.0567    1.0000 </r>
       <r>  -24.0566    1.0000 </r>
       <r>  -24.0245    1.0000 </r>
       <r>  -24.0245    1.0000 </r>
       <r>  -23.9885    1.0000 </r>
       <r>  -23.9756    1.0000 </r>
       <r>  -23.9472    1.0000 </r>
       <r>  -23.9472    1.0000 </r>
       <r>    0.4365    1.0000 </r>
       <r>    1.9669    1.0000 </r>
       <r>    2.8776    1.0000 </r>
       <r>    3.1500    1.0000 </r>
       <r>    4.6648    1.0000 </r>
       <r>    4.6648    1.0000 </r>
       <r>    5.6803    1.0000 </r>
       <r>    6.1206    1.0000 </r>
       <r>    6.2960    1.0000 </r>
       <r>    6.2961    1.0000 </r>
       <r>    6.6601    1.0000 </r>
       <r>    6.6927    1.0000 </r>
       <r>    7.5681    1.0000 </r>
       <r>    7.6161    1.0000 </r>
       <r>    7.8618    1.0000 </r>
       <r>    7.8618    1.0000 </r>
       <r>    8.1053    1.0000 </r>
       <r>    8.2065    1.0000 </r>
       <r>    8.2065    1.0000 </r>
       <r>    8.3674    1.0000 </r>
       <r>    8.3675    1.0000 </r>
       <r>    8.4763    1.0000 </r>
       <r>    8.8126    1.0000 </r>
       <r>    8.8439    1.0000 </r>
       <r>    8.8439    1.0000 </r>
       <r>    8.9852    1.0000 </r>
       <r>    9.0948    1.0000 </r>
       <r>    9.1843    1.0000 </r>
       <r>    9.3882    1.0000 </r>
       <r>    9.3882    1.0000 </r>
       <r>    9.4941    1.0000 </r>
       <r>   10.2861    1.0000 </r>
       <r>   10.4369    1.0000 </r>
       <r>   10.4369    1.0000 </r>
       <r>   10.4889    1.0000 </r>
       <r>   10.5655    1.0000 </r>
       <r>   10.7161    1.0000 </r>
       <r>   11.9497    1.0000 </r>
       <r>   11.9498    1.0000 </r>
       <r>   12.6639    0.0000 </r>
       <r>   12.6639    0.0000 </r>
       <r>   12.7672    0.0000 </r>
       <r>   13.0012    0.0000 </r>
       <r>   13.0226    0.0000 </r>
       <r>   13.1657    0.0000 </r>
       <r>   13.1657    0.0000 </r>
       <r>   13.1729    0.0000 </r>
       <r>   13.3668    0.0000 </r>
       <r>   13.4773    0.0000 </r>
       <r>   13.4773    0.0000 </r>
       <r>   13.7506    0.0000 </r>
       <r>   13.9859    0.0000 </r>
       <r>   14.0470    0.0000 </r>
       <r>   14.1669    0.0000 </r>
       <r>   14.1832    0.0000 </r>
       <r>   14.4992    0.0000 </r>
      </set>
      <set comment="kpoint 2">
       <r>  -51.1321    1.0000 </r>
       <r>  -51.0354    1.0000 </r>
       <r>  -50.9493    1.0000 </r>
       <r>  -50.9424    1.0000 </r>
       <r>  -50.9339    1.0000 </r>
       <r>  -50.9208    1.0000 </r>
       <r>  -50.9095    1.0000 </r>
       <r>  -50.9049    1.0000 </r>
       <r>  -50.8938    1.0000 </r>
       <r>  -50.8902    1.0000 </r>
       <r>  -24.9457    1.0000 </r>
       <r>  -24.9173    1.0000 </r>
       <r>  -24.9032    1.0000 </r>
       <r>  -24.7833    1.0000 </r>
       <r>  -24.7698    1.0000 </r>
       <r>  -24.7190    1.0000 </r>
       <r>  -24.6903    1.0000 </r>
       <r>  -24.6614    1.0000 </r>
       <r>  -24.6181    1.0000 </r>
       <r>  -24.4640    1.0000 </r>
       <r>  -24.4522    1.0000 </r>
       <r>  -24.4255    1.0000 </r>
       <r>  -24.4142    1.0000 </r>
       <r>  -24.3666    1.0000 </r>
       <r>  -24.3167    1.0000 </r>
       <r>  -24.3144    1.0000 </r>
       <r>  -24.2782    1.0000 </r>
       <r>  -24.2511    1.0000 </r>
       <r>  -24.2200    1.0000 </r>
       <r>  -24.1799    1.0000 </r>
       <r>  -24.0818    1.0000 </r>
       <r>  -24.0687    1.0000 </r>
       <r>  -24.0556    1.0000 </r>
       <r>  -24.0482    1.0000 </r>
       <r>  -24.0253    1.0000 </r>
       <r>  -24.0148    1.0000 </r>
       <r>  -23.9817    1.0000 </r>
       <r>  -23.9802    1.0000 </r>
       <r>  -23.9607    1.0000 </r>
       <r>  -23.9478    1.0000 </r>
       <r>    0.5579    1.0000 </r>
       <r>    1.9930    1.0000 </r>
       <r>    2.8415    1.0000 </r>
       <r>    3.0751    1.0000 </r>
       <r>    4.4983    1.0000 </r>
       <r>    4.5755    1.0000 </r>
       <r>    5.7326    1.0000 </r>
       <r>    6.1166    1.0000 </r>
       <r>    6.3032    1.0000 </r>
       <r>    6.3052    1.0000 </r>
       <r>    6.7450    1.0000 </r>
       <r>    6.7768    1.0000 </r>
       <r>    7.2660    1.0000 </r>
       <r>    7.4672    1.0000 </r>
       <r>    7.8717    1.0000 </r>
       <r>    8.1010    1.0000 </r>
       <r>    8.1119    1.0000 </r>
       <r>    8.2603    1.0000 </r>
       <r>    8.2752    1.0000 </r>
       <r>    8.3104    1.0000 </r>
       <r>    8.4434    1.0000 </r>
       <r>    8.5170    1.0000 </r>
       <r>    8.7643    1.0000 </r>
       <r>    8.8036    1.0000 </r>
       <r>    8.8495    1.0000 </r>
       <r>    8.9142    1.0000 </r>
       <r>    9.1673    1.0000 </r>
       <r>    9.3196    1.0000 </r>
       <r>    9.4225    1.0000 </r>
       <r>    9.4423    1.0000 </r>
       <r>    9.4697    1.0000 </r>
       <r>    9.8857    1.0000 </r>
       <r>   10.0741    1.0000 </r>
       <r>   10.4629    1.0000 </r>
       <r>   10.6065    1.0000 </r>
       <r>   11.0224    1.0000 </r>
       <r>   11.1601    1.0000 </r>
       <r>   11.7116    1.0000 </r>
       <r>   11.8981    1.0000 </r>
       <r>   12.3123    0.0000 </r>
       <r>   12.5239    0.0000 </r>
       <r>   12.5534    0.0000 </r>
       <r>   12.7482    0.0000 </r>
       <r>   12.8692    0.0000 </r>
       <r>   13.1766    0.0000 </r>
       <r>   13.2585    0.0000 </r>
       <r>   13.3834    0.0000 </r>
       <r>   13.5417    0.0000 </r>
       <r>   13.6415    0.0000 </r>
       <r>   13.7269    0.0000 </r>
       <r>   13.8852    0.0000 </r>
       <r>   13.9271    0.0000 </r>
       <r>   14.0429    0.0000 </r>
       <r>   14.2138    0.0000 </r>
       <r>   14.4138    0.0000 </r>
       <r>   14.6838    0.0000 </r>
      </set>
      <set comment="kpoint 3">
       <r>  -51.1175    1.0000 </r>
       <r>  -51.0502    1.0000 </r>
       <r>  -50.9497    1.0000 </r>
       <r>  -50.9491    1.0000 </r>
       <r>  -50.9452    1.0000 </r>
       <r>  -50.9287    1.0000 </r>
       <r>  -50.9008    1.0000 </r>
       <r>  -50.9003    1.0000 </r>
       <r>  -50.8871    1.0000 </r>
       <r>  -50.8837    1.0000 </r>
       <r>  -24.9146    1.0000 </r>
       <r>  -24.9123    1.0000 </r>
       <r>  -24.8772    1.0000 </r>
       <r>  -24.8258    1.0000 </r>
       <r>  -24.8077    1.0000 </r>
       <r>  -24.7442    1.0000 </r>
       <r>  -24.6896    1.0000 </r>
       <r>  -24.6112    1.0000 </r>
       <r>  -24.5930    1.0000 </r>
       <r>  -24.5012    1.0000 </r>
       <r>  -24.4534    1.0000 </r>
       <r>  -24.4100    1.0000 </r>
       <r>  -24.4071    1.0000 </r>
       <r>  -24.3405    1.0000 </r>
       <r>  -24.3200    1.0000 </r>
       <r>  -24.3053    1.0000 </r>
       <r>  -24.2831    1.0000 </r>
       <r>  -24.2424    1.0000 </r>
       <r>  -24.2331    1.0000 </r>
       <r>  -24.1745    1.0000 </r>
       <r>  -24.1088    1.0000 </r>
       <r>  -24.0837    1.0000 </r>
       <r>  -24.0713    1.0000 </r>
       <r>  -24.0592    1.0000 </r>
       <r>  -24.0109    1.0000 </r>
       <r>  -24.0029    1.0000 </r>
       <r>  -23.9857    1.0000 </r>
       <r>  -23.9734    1.0000 </r>
       <r>  -23.9680    1.0000 </r>
       <r>  -23.9486    1.0000 </r>
       <r>    0.8996    1.0000 </r>
       <r>    2.0180    1.0000 </r>
       <r>    2.7668    1.0000 </r>
       <r>    2.8799    1.0000 </r>
       <r>    4.1854    1.0000 </r>
       <r>    4.3488    1.0000 </r>
       <r>    5.8848    1.0000 </r>
       <r>    5.9950    1.0000 </r>
       <r>    6.1822    1.0000 </r>
       <r>    6.3285    1.0000 </r>
       <r>    7.0071    1.0000 </r>
       <r>    7.0147    1.0000 </r>
       <r>    7.0562    1.0000 </r>
       <r>    7.4242    1.0000 </r>
       <r>    7.7537    1.0000 </r>
       <r>    8.0442    1.0000 </r>
       <r>    8.1236    1.0000 </r>
       <r>    8.2204    1.0000 </r>
       <r>    8.2265    1.0000 </r>
       <r>    8.4257    1.0000 </r>
       <r>    8.4450    1.0000 </r>
       <r>    8.5960    1.0000 </r>
       <r>    8.7564    1.0000 </r>
       <r>    8.8659    1.0000 </r>
       <r>    8.9576    1.0000 </r>
       <r>    9.0729    1.0000 </r>
       <r>    9.1858    1.0000 </r>
       <r>    9.2930    1.0000 </r>
       <r>    9.4791    1.0000 </r>
       <r>    9.5380    1.0000 </r>
       <r>    9.6073    1.0000 </r>
       <r>    9.7441    1.0000 </r>
       <r>    9.9442    1.0000 </r>
       <r>   10.3116    1.0000 </r>
       <r>   10.4851    1.0000 </r>
       <r>   10.8859    1.0000 </r>
       <r>   11.5033    1.0000 </r>
       <r>   11.8929    1.0000 </r>
       <r>   11.8975    1.0000 </r>
       <r>   12.1106    1.0000 </r>
       <r>   12.3719    0.0000 </r>
       <r>   12.6061    0.0000 </r>
       <r>   12.6360    0.0000 </r>
       <r>   12.7528    0.0000 </r>
       <r>   13.1099    0.0000 </r>
       <r>   13.1443    0.0000 </r>
       <r>   13.3252    0.0000 </r>
       <r>   13.5965    0.0000 </r>
       <r>   13.6248    0.0000 </r>
       <r>   13.7525    0.0000 </r>
       <r>   13.9053    0.0000 </r>
       <r>   14.1409    0.0000 </r>
       <r>   14.1833    0.0000 </r>
       <r>   14.4000    0.0000 </r>
       <r>   14.4104    0.0000 </r>
       <r>   14.7572    0.0000 </r>
      </set>
      <set comment="kpoint 4">
       <r>  -51.0961    1.0000 </r>
       <r>  -51.0720    1.0000 </r>
       <r>  -50.9544    1.0000 </r>
       <r>  -50.9541    1.0000 </r>
       <r>  -50.9436    1.0000 </r>
       <r>  -50.9373    1.0000 </r>
       <r>  -50.8955    1.0000 </r>
       <r>  -50.8953    1.0000 </r>
       <r>  -50.8828    1.0000 </r>
       <r>  -50.8813    1.0000 </r>
       <r>  -24.8965    1.0000 </r>
       <r>  -24.8780    1.0000 </r>
       <r>  -24.8555    1.0000 </r>
       <r>  -24.8509    1.0000 </r>
       <r>  -24.8464    1.0000 </r>
       <r>  -24.8038    1.0000 </r>
       <r>  -24.6397    1.0000 </r>
       <r>  -24.5753    1.0000 </r>
       <r>  -24.5480    1.0000 </r>
       <r>  -24.5440    1.0000 </r>
       <r>  -24.4761    1.0000 </r>
       <r>  -24.4529    1.0000 </r>
       <r>  -24.3654    1.0000 </r>
       <r>  -24.3176    1.0000 </r>
       <r>  -24.3096    1.0000 </r>
       <r>  -24.2907    1.0000 </r>
       <r>  -24.2905    1.0000 </r>
       <r>  -24.2667    1.0000 </r>
       <r>  -24.2078    1.0000 </r>
       <r>  -24.1873    1.0000 </r>
       <r>  -24.1309    1.0000 </r>
       <r>  -24.1270    1.0000 </r>
       <r>  -24.0722    1.0000 </r>
       <r>  -24.0670    1.0000 </r>
       <r>  -23.9945    1.0000 </r>
       <r>  -23.9885    1.0000 </r>
       <r>  -23.9792    1.0000 </r>
       <r>  -23.9741    1.0000 </r>
       <r>  -23.9691    1.0000 </r>
       <r>  -23.9558    1.0000 </r>
       <r>    1.3848    1.0000 </r>
       <r>    1.8407    1.0000 </r>
       <r>    2.7080    1.0000 </r>
       <r>    2.7163    1.0000 </r>
       <r>    4.0140    1.0000 </r>
       <r>    4.1032    1.0000 </r>
       <r>    5.9049    1.0000 </r>
       <r>    5.9475    1.0000 </r>
       <r>    6.1724    1.0000 </r>
       <r>    6.3086    1.0000 </r>
       <r>    7.0730    1.0000 </r>
       <r>    7.1436    1.0000 </r>
       <r>    7.1884    1.0000 </r>
       <r>    7.3504    1.0000 </r>
       <r>    7.7705    1.0000 </r>
       <r>    8.0319    1.0000 </r>
       <r>    8.0413    1.0000 </r>
       <r>    8.0838    1.0000 </r>
       <r>    8.1409    1.0000 </r>
       <r>    8.3149    1.0000 </r>
       <r>    8.5133    1.0000 </r>
       <r>    8.6178    1.0000 </r>
       <r>    8.9613    1.0000 </r>
       <r>    9.0557    1.0000 </r>
       <r>    9.0886    1.0000 </r>
       <r>    9.1370    1.0000 </r>
       <r>    9.2614    1.0000 </r>
       <r>    9.3515    1.0000 </r>
       <r>    9.4553    1.0000 </r>
       <r>    9.5672    1.0000 </r>
       <r>    9.7315    1.0000 </r>
       <r>    9.8682    1.0000 </r>
       <r>    9.8709    1.0000 </r>
       <r>   10.0892    1.0000 </r>
       <r>   10.3577    1.0000 </r>
       <r>   10.3979    1.0000 </r>
       <r>   11.3708    1.0000 </r>
       <r>   11.8956    1.0000 </r>
       <r>   12.1094    1.0000 </r>
       <r>   12.3372    0.0000 </r>
       <r>   12.4018    0.0000 </r>
       <r>   12.6661    0.0000 </r>
       <r>   12.8047    0.0000 </r>
       <r>   12.8566    0.0000 </r>
       <r>   12.9700    0.0000 </r>
       <r>   13.1108    0.0000 </r>
       <r>   13.2647    0.0000 </r>
       <r>   13.3490    0.0000 </r>
       <r>   13.4767    0.0000 </r>
       <r>   13.5853    0.0000 </r>
       <r>   14.0787    0.0000 </r>
       <r>   14.0838    0.0000 </r>
       <r>   14.3196    0.0000 </r>
       <r>   14.5736    0.0000 </r>
       <r>   14.6745    0.0000 </r>
       <r>   14.7505    0.0000 </r>
      </set>
      <set comment="kpoint 5">
       <r>  -51.1255    1.0000 </r>
       <r>  -51.0399    1.0000 </r>
       <r>  -50.9533    1.0000 </r>
       <r>  -50.9477    1.0000 </r>
       <r>  -50.9404    1.0000 </r>
       <r>  -50.9203    1.0000 </r>
       <r>  -50.9141    1.0000 </r>
       <r>  -50.8985    1.0000 </r>
       <r>  -50.8876    1.0000 </r>
       <r>  -50.8850    1.0000 </r>
       <r>  -24.9306    1.0000 </r>
       <r>  -24.9100    1.0000 </r>
       <r>  -24.8911    1.0000 </r>
       <r>  -24.8123    1.0000 </r>
       <r>  -24.7895    1.0000 </r>
       <r>  -24.7199    1.0000 </r>
       <r>  -24.6973    1.0000 </r>
       <r>  -24.6458    1.0000 </r>
       <r>  -24.5939    1.0000 </r>
       <r>  -24.4851    1.0000 </r>
       <r>  -24.4595    1.0000 </r>
       <r>  -24.4164    1.0000 </r>
       <r>  -24.3897    1.0000 </r>
       <r>  -24.3580    1.0000 </r>
       <r>  -24.3311    1.0000 </r>
       <r>  -24.3134    1.0000 </r>
       <r>  -24.2830    1.0000 </r>
       <r>  -24.2440    1.0000 </r>
       <r>  -24.2296    1.0000 </r>
       <r>  -24.1806    1.0000 </r>
       <r>  -24.0910    1.0000 </r>
       <r>  -24.0813    1.0000 </r>
       <r>  -24.0597    1.0000 </r>
       <r>  -24.0392    1.0000 </r>
       <r>  -24.0229    1.0000 </r>
       <r>  -24.0100    1.0000 </r>
       <r>  -23.9873    1.0000 </r>
       <r>  -23.9715    1.0000 </r>
       <r>  -23.9601    1.0000 </r>
       <r>  -23.9537    1.0000 </r>
       <r>    0.7287    1.0000 </r>
       <r>    2.0278    1.0000 </r>
       <r>    2.7753    1.0000 </r>
       <r>    2.9781    1.0000 </r>
       <r>    4.3919    1.0000 </r>
       <r>    4.4570    1.0000 </r>
       <r>    5.7407    1.0000 </r>
       <r>    6.0301    1.0000 </r>
       <r>    6.1875    1.0000 </r>
       <r>    6.4414    1.0000 </r>
       <r>    6.7057    1.0000 </r>
       <r>    6.8528    1.0000 </r>
       <r>    7.2743    1.0000 </r>
       <r>    7.6054    1.0000 </r>
       <r>    7.6400    1.0000 </r>
       <r>    8.0802    1.0000 </r>
       <r>    8.1634    1.0000 </r>
       <r>    8.1664    1.0000 </r>
       <r>    8.3479    1.0000 </r>
       <r>    8.3797    1.0000 </r>
       <r>    8.4045    1.0000 </r>
       <r>    8.5017    1.0000 </r>
       <r>    8.7197    1.0000 </r>
       <r>    8.7448    1.0000 </r>
       <r>    8.9009    1.0000 </r>
       <r>    9.0116    1.0000 </r>
       <r>    9.1016    1.0000 </r>
       <r>    9.3509    1.0000 </r>
       <r>    9.5296    1.0000 </r>
       <r>    9.6384    1.0000 </r>
       <r>    9.6392    1.0000 </r>
       <r>    9.8406    1.0000 </r>
       <r>   10.0219    1.0000 </r>
       <r>   10.5304    1.0000 </r>
       <r>   10.5441    1.0000 </r>
       <r>   11.1694    1.0000 </r>
       <r>   11.3064    1.0000 </r>
       <r>   11.6136    1.0000 </r>
       <r>   11.7130    1.0000 </r>
       <r>   12.1152    1.0000 </r>
       <r>   12.2573    0.0100 </r>
       <r>   12.4380    0.0000 </r>
       <r>   12.7601    0.0000 </r>
       <r>   12.7778    0.0000 </r>
       <r>   13.1568    0.0000 </r>
       <r>   13.1977    0.0000 </r>
       <r>   13.4570    0.0000 </r>
       <r>   13.4854    0.0000 </r>
       <r>   13.5690    0.0000 </r>
       <r>   13.7285    0.0000 </r>
       <r>   13.8691    0.0000 </r>
       <r>   13.9636    0.0000 </r>
       <r>   14.2863    0.0000 </r>
       <r>   14.3107    0.0000 </r>
       <r>   14.7471    0.0000 </r>
       <r>   14.8536    0.0000 </r>
      </set>
      <set comment="kpoint 6">
       <r>  -51.1105    1.0000 </r>
       <r>  -51.0533    1.0000 </r>
       <r>  -50.9612    1.0000 </r>
       <r>  -50.9533    1.0000 </r>
       <r>  -50.9444    1.0000 </r>
       <r>  -50.9262    1.0000 </r>
       <r>  -50.9084    1.0000 </r>
       <r>  -50.8956    1.0000 </r>
       <r>  -50.8820    1.0000 </r>
       <r>  -50.8775    1.0000 </r>
       <r>  -24.9048    1.0000 </r>
       <r>  -24.8967    1.0000 </r>
       <r>  -24.8682    1.0000 </r>
       <r>  -24.8470    1.0000 </r>
       <r>  -24.8190    1.0000 </r>
       <r>  -24.7545    1.0000 </r>
       <r>  -24.6726    1.0000 </r>
       <r>  -24.6134    1.0000 </r>
       <r>  -24.5464    1.0000 </r>
       <r>  -24.5307    1.0000 </r>
       <r>  -24.4713    1.0000 </r>
       <r>  -24.4145    1.0000 </r>
       <r>  -24.3941    1.0000 </r>
       <r>  -24.3483    1.0000 </r>
       <r>  -24.3398    1.0000 </r>
       <r>  -24.2844    1.0000 </r>
       <r>  -24.2761    1.0000 </r>
       <r>  -24.2566    1.0000 </r>
       <r>  -24.2155    1.0000 </r>
       <r>  -24.1822    1.0000 </r>
       <r>  -24.1110    1.0000 </r>
       <r>  -24.1087    1.0000 </r>
       <r>  -24.0848    1.0000 </r>
       <r>  -24.0396    1.0000 </r>
       <r>  -24.0080    1.0000 </r>
       <r>  -24.0025    1.0000 </r>
       <r>  -23.9801    1.0000 </r>
       <r>  -23.9750    1.0000 </r>
       <r>  -23.9650    1.0000 </r>
       <r>  -23.9492    1.0000 </r>
       <r>    1.1002    1.0000 </r>
       <r>    2.0460    1.0000 </r>
       <r>    2.6884    1.0000 </r>
       <r>    2.7894    1.0000 </r>
       <r>    4.1028    1.0000 </r>
       <r>    4.2582    1.0000 </r>
       <r>    5.7589    1.0000 </r>
       <r>    5.8956    1.0000 </r>
       <r>    6.1491    1.0000 </r>
       <r>    6.5319    1.0000 </r>
       <r>    6.7415    1.0000 </r>
       <r>    7.0378    1.0000 </r>
       <r>    7.3460    1.0000 </r>
       <r>    7.4829    1.0000 </r>
       <r>    7.7659    1.0000 </r>
       <r>    7.8686    1.0000 </r>
       <r>    8.1015    1.0000 </r>
       <r>    8.1891    1.0000 </r>
       <r>    8.2294    1.0000 </r>
       <r>    8.3328    1.0000 </r>
       <r>    8.4918    1.0000 </r>
       <r>    8.5663    1.0000 </r>
       <r>    8.8567    1.0000 </r>
       <r>    8.9022    1.0000 </r>
       <r>    9.0104    1.0000 </r>
       <r>    9.0740    1.0000 </r>
       <r>    9.1009    1.0000 </r>
       <r>    9.2823    1.0000 </r>
       <r>    9.5697    1.0000 </r>
       <r>    9.6674    1.0000 </r>
       <r>    9.6881    1.0000 </r>
       <r>    9.9712    1.0000 </r>
       <r>   10.0006    1.0000 </r>
       <r>   10.2860    1.0000 </r>
       <r>   10.5107    1.0000 </r>
       <r>   10.7870    1.0000 </r>
       <r>   11.1803    1.0000 </r>
       <r>   11.8385    1.0000 </r>
       <r>   12.1546    1.0000 </r>
       <r>   12.2199    0.6255 </r>
       <r>   12.3002    0.0000 </r>
       <r>   12.3634    0.0000 </r>
       <r>   12.5185    0.0000 </r>
       <r>   12.7428    0.0000 </r>
       <r>   12.9617    0.0000 </r>
       <r>   13.1566    0.0000 </r>
       <r>   13.3382    0.0000 </r>
       <r>   13.4812    0.0000 </r>
       <r>   13.5546    0.0000 </r>
       <r>   13.7507    0.0000 </r>
       <r>   13.9354    0.0000 </r>
       <r>   14.1353    0.0000 </r>
       <r>   14.2886    0.0000 </r>
       <r>   14.4846    0.0000 </r>
       <r>   14.6145    0.0000 </r>
       <r>   15.0249    0.0000 </r>
      </set>
      <set comment="kpoint 7">
       <r>  -51.0903    1.0000 </r>
       <r>  -51.0737    1.0000 </r>
       <r>  -50.9641    1.0000 </r>
       <r>  -50.9577    1.0000 </r>
       <r>  -50.9411    1.0000 </r>
       <r>  -50.9343    1.0000 </r>
       <r>  -50.9002    1.0000 </r>
       <r>  -50.8975    1.0000 </r>
       <r>  -50.8798    1.0000 </r>
       <r>  -50.8737    1.0000 </r>
       <r>  -24.8879    1.0000 </r>
       <r>  -24.8811    1.0000 </r>
       <r>  -24.8595    1.0000 </r>
       <r>  -24.8473    1.0000 </r>
       <r>  -24.8371    1.0000 </r>
       <r>  -24.8051    1.0000 </r>
       <r>  -24.6215    1.0000 </r>
       <r>  -24.5962    1.0000 </r>
       <r>  -24.5584    1.0000 </r>
       <r>  -24.5240    1.0000 </r>
       <r>  -24.4789    1.0000 </r>
       <r>  -24.4445    1.0000 </r>
       <r>  -24.3724    1.0000 </r>
       <r>  -24.3438    1.0000 </r>
       <r>  -24.3272    1.0000 </r>
       <r>  -24.2983    1.0000 </r>
       <r>  -24.2712    1.0000 </r>
       <r>  -24.2618    1.0000 </r>
       <r>  -24.2014    1.0000 </r>
       <r>  -24.1942    1.0000 </r>
       <r>  -24.1310    1.0000 </r>
       <r>  -24.1227    1.0000 </r>
       <r>  -24.0835    1.0000 </r>
       <r>  -24.0469    1.0000 </r>
       <r>  -23.9959    1.0000 </r>
       <r>  -23.9890    1.0000 </r>
       <r>  -23.9841    1.0000 </r>
       <r>  -23.9763    1.0000 </r>
       <r>  -23.9640    1.0000 </r>
       <r>  -23.9567    1.0000 </r>
       <r>    1.5771    1.0000 </r>
       <r>    1.8249    1.0000 </r>
       <r>    2.6447    1.0000 </r>
       <r>    2.6791    1.0000 </r>
       <r>    3.9306    1.0000 </r>
       <r>    4.0529    1.0000 </r>
       <r>    5.6811    1.0000 </r>
       <r>    5.9312    1.0000 </r>
       <r>    6.2438    1.0000 </r>
       <r>    6.5075    1.0000 </r>
       <r>    6.8822    1.0000 </r>
       <r>    7.1885    1.0000 </r>
       <r>    7.2452    1.0000 </r>
       <r>    7.3318    1.0000 </r>
       <r>    7.7352    1.0000 </r>
       <r>    7.9107    1.0000 </r>
       <r>    8.0801    1.0000 </r>
       <r>    8.1454    1.0000 </r>
       <r>    8.2961    1.0000 </r>
       <r>    8.3294    1.0000 </r>
       <r>    8.4557    1.0000 </r>
       <r>    8.5590    1.0000 </r>
       <r>    8.9474    1.0000 </r>
       <r>    8.9725    1.0000 </r>
       <r>    9.1316    1.0000 </r>
       <r>    9.1599    1.0000 </r>
       <r>    9.2768    1.0000 </r>
       <r>    9.3005    1.0000 </r>
       <r>    9.4286    1.0000 </r>
       <r>    9.6746    1.0000 </r>
       <r>    9.8314    1.0000 </r>
       <r>    9.8444    1.0000 </r>
       <r>   10.0442    1.0000 </r>
       <r>   10.1718    1.0000 </r>
       <r>   10.2653    1.0000 </r>
       <r>   10.3447    1.0000 </r>
       <r>   11.4495    1.0000 </r>
       <r>   11.5902    1.0000 </r>
       <r>   12.1027    1.0000 </r>
       <r>   12.3197    0.0000 </r>
       <r>   12.4291    0.0000 </r>
       <r>   12.6457    0.0000 </r>
       <r>   12.7846    0.0000 </r>
       <r>   12.8658    0.0000 </r>
       <r>   12.9964    0.0000 </r>
       <r>   13.1073    0.0000 </r>
       <r>   13.2171    0.0000 </r>
       <r>   13.3617    0.0000 </r>
       <r>   13.5668    0.0000 </r>
       <r>   13.8210    0.0000 </r>
       <r>   14.0210    0.0000 </r>
       <r>   14.1332    0.0000 </r>
       <r>   14.2110    0.0000 </r>
       <r>   14.5812    0.0000 </r>
       <r>   14.6935    0.0000 </r>
       <r>   14.9889    0.0000 </r>
      </set>
      <set comment="kpoint 8">
       <r>  -51.0965    1.0000 </r>
       <r>  -51.0691    1.0000 </r>
       <r>  -50.9611    1.0000 </r>
       <r>  -50.9549    1.0000 </r>
       <r>  -50.9400    1.0000 </r>
       <r>  -50.9348    1.0000 </r>
       <r>  -50.9046    1.0000 </r>
       <r>  -50.8949    1.0000 </r>
       <r>  -50.8820    1.0000 </r>
       <r>  -50.8745    1.0000 </r>
       <r>  -24.9065    1.0000 </r>
       <r>  -24.8673    1.0000 </r>
       <r>  -24.8617    1.0000 </r>
       <r>  -24.8463    1.0000 </r>
       <r>  -24.8238    1.0000 </r>
       <r>  -24.8039    1.0000 </r>
       <r>  -24.6573    1.0000 </r>
       <r>  -24.5765    1.0000 </r>
       <r>  -24.5512    1.0000 </r>
       <r>  -24.5314    1.0000 </r>
       <r>  -24.4734    1.0000 </r>
       <r>  -24.4452    1.0000 </r>
       <r>  -24.3884    1.0000 </r>
       <r>  -24.3450    1.0000 </r>
       <r>  -24.3145    1.0000 </r>
       <r>  -24.2949    1.0000 </r>
       <r>  -24.2863    1.0000 </r>
       <r>  -24.2387    1.0000 </r>
       <r>  -24.2182    1.0000 </r>
       <r>  -24.1736    1.0000 </r>
       <r>  -24.1354    1.0000 </r>
       <r>  -24.1148    1.0000 </r>
       <r>  -24.0758    1.0000 </r>
       <r>  -24.0516    1.0000 </r>
       <r>  -23.9973    1.0000 </r>
       <r>  -23.9928    1.0000 </r>
       <r>  -23.9892    1.0000 </r>
       <r>  -23.9810    1.0000 </r>
       <r>  -23.9661    1.0000 </r>
       <r>  -23.9535    1.0000 </r>
       <r>    1.3594    1.0000 </r>
       <r>    1.9550    1.0000 </r>
       <r>    2.6998    1.0000 </r>
       <r>    2.7189    1.0000 </r>
       <r>    3.9793    1.0000 </r>
       <r>    4.0141    1.0000 </r>
       <r>    5.7634    1.0000 </r>
       <r>    5.9700    1.0000 </r>
       <r>    6.2519    1.0000 </r>
       <r>    6.4839    1.0000 </r>
       <r>    6.8587    1.0000 </r>
       <r>    7.0662    1.0000 </r>
       <r>    7.2535    1.0000 </r>
       <r>    7.4353    1.0000 </r>
       <r>    7.7622    1.0000 </r>
       <r>    7.9377    1.0000 </r>
       <r>    8.0429    1.0000 </r>
       <r>    8.1619    1.0000 </r>
       <r>    8.2482    1.0000 </r>
       <r>    8.3964    1.0000 </r>
       <r>    8.5153    1.0000 </r>
       <r>    8.5871    1.0000 </r>
       <r>    8.8617    1.0000 </r>
       <r>    8.9373    1.0000 </r>
       <r>    9.0579    1.0000 </r>
       <r>    9.1372    1.0000 </r>
       <r>    9.2544    1.0000 </r>
       <r>    9.3325    1.0000 </r>
       <r>    9.4056    1.0000 </r>
       <r>    9.5477    1.0000 </r>
       <r>    9.7666    1.0000 </r>
       <r>    9.8493    1.0000 </r>
       <r>    9.8773    1.0000 </r>
       <r>   10.0981    1.0000 </r>
       <r>   10.3306    1.0000 </r>
       <r>   10.6068    1.0000 </r>
       <r>   11.1376    1.0000 </r>
       <r>   12.0068    1.0000 </r>
       <r>   12.1533    1.0000 </r>
       <r>   12.3272    0.0000 </r>
       <r>   12.5183    0.0000 </r>
       <r>   12.6073    0.0000 </r>
       <r>   12.7470    0.0000 </r>
       <r>   12.9413    0.0000 </r>
       <r>   13.0833    0.0000 </r>
       <r>   13.2171    0.0000 </r>
       <r>   13.2733    0.0000 </r>
       <r>   13.3164    0.0000 </r>
       <r>   13.5915    0.0000 </r>
       <r>   13.8229    0.0000 </r>
       <r>   13.9529    0.0000 </r>
       <r>   14.1543    0.0000 </r>
       <r>   14.2777    0.0000 </r>
       <r>   14.4561    0.0000 </r>
       <r>   14.6621    0.0000 </r>
       <r>   14.9417    0.0000 </r>
      </set>
      <set comment="kpoint 9">
       <r>  -51.1162    1.0000 </r>
       <r>  -51.0511    1.0000 </r>
       <r>  -50.9537    1.0000 </r>
       <r>  -50.9498    1.0000 </r>
       <r>  -50.9385    1.0000 </r>
       <r>  -50.9265    1.0000 </r>
       <r>  -50.9136    1.0000 </r>
       <r>  -50.8963    1.0000 </r>
       <r>  -50.8865    1.0000 </r>
       <r>  -50.8800    1.0000 </r>
       <r>  -24.9167    1.0000 </r>
       <r>  -24.9051    1.0000 </r>
       <r>  -24.8742    1.0000 </r>
       <r>  -24.8281    1.0000 </r>
       <r>  -24.7932    1.0000 </r>
       <r>  -24.7585    1.0000 </r>
       <r>  -24.6980    1.0000 </r>
       <r>  -24.6099    1.0000 </r>
       <r>  -24.5793    1.0000 </r>
       <r>  -24.4902    1.0000 </r>
       <r>  -24.4537    1.0000 </r>
       <r>  -24.4323    1.0000 </r>
       <r>  -24.4119    1.0000 </r>
       <r>  -24.3568    1.0000 </r>
       <r>  -24.3241    1.0000 </r>
       <r>  -24.2973    1.0000 </r>
       <r>  -24.2554    1.0000 </r>
       <r>  -24.2527    1.0000 </r>
       <r>  -24.2425    1.0000 </r>
       <r>  -24.1593    1.0000 </r>
       <r>  -24.1022    1.0000 </r>
       <r>  -24.0922    1.0000 </r>
       <r>  -24.0586    1.0000 </r>
       <r>  -24.0547    1.0000 </r>
       <r>  -24.0215    1.0000 </r>
       <r>  -24.0005    1.0000 </r>
       <r>  -23.9877    1.0000 </r>
       <r>  -23.9771    1.0000 </r>
       <r>  -23.9711    1.0000 </r>
       <r>  -23.9545    1.0000 </r>
       <r>    0.9099    1.0000 </r>
       <r>    2.0456    1.0000 </r>
       <r>    2.7756    1.0000 </r>
       <r>    2.9046    1.0000 </r>
       <r>    4.1388    1.0000 </r>
       <r>    4.2411    1.0000 </r>
       <r>    5.9400    1.0000 </r>
       <r>    6.0307    1.0000 </r>
       <r>    6.1035    1.0000 </r>
       <r>    6.6064    1.0000 </r>
       <r>    6.6711    1.0000 </r>
       <r>    6.8885    1.0000 </r>
       <r>    7.2811    1.0000 </r>
       <r>    7.4472    1.0000 </r>
       <r>    7.7251    1.0000 </r>
       <r>    8.0158    1.0000 </r>
       <r>    8.1949    1.0000 </r>
       <r>    8.2198    1.0000 </r>
       <r>    8.3369    1.0000 </r>
       <r>    8.4521    1.0000 </r>
       <r>    8.4955    1.0000 </r>
       <r>    8.6281    1.0000 </r>
       <r>    8.8023    1.0000 </r>
       <r>    8.8656    1.0000 </r>
       <r>    8.9200    1.0000 </r>
       <r>    9.0302    1.0000 </r>
       <r>    9.1269    1.0000 </r>
       <r>    9.1705    1.0000 </r>
       <r>    9.3786    1.0000 </r>
       <r>    9.3954    1.0000 </r>
       <r>    9.5581    1.0000 </r>
       <r>    9.6710    1.0000 </r>
       <r>   10.0335    1.0000 </r>
       <r>   10.2440    1.0000 </r>
       <r>   10.3328    1.0000 </r>
       <r>   11.1849    1.0000 </r>
       <r>   11.4479    1.0000 </r>
       <r>   11.8401    1.0000 </r>
       <r>   11.9866    1.0000 </r>
       <r>   12.1559    1.0000 </r>
       <r>   12.5299    0.0000 </r>
       <r>   12.6352    0.0000 </r>
       <r>   12.7600    0.0000 </r>
       <r>   12.8539    0.0000 </r>
       <r>   13.0421    0.0000 </r>
       <r>   13.2859    0.0000 </r>
       <r>   13.4612    0.0000 </r>
       <r>   13.5715    0.0000 </r>
       <r>   13.6481    0.0000 </r>
       <r>   13.6979    0.0000 </r>
       <r>   13.7672    0.0000 </r>
       <r>   14.0294    0.0000 </r>
       <r>   14.4564    0.0000 </r>
       <r>   14.5137    0.0000 </r>
       <r>   14.7328    0.0000 </r>
       <r>   15.3343    0.0000 </r>
      </set>
      <set comment="kpoint 10">
       <r>  -51.1288    1.0000 </r>
       <r>  -51.0394    1.0000 </r>
       <r>  -50.9504    1.0000 </r>
       <r>  -50.9429    1.0000 </r>
       <r>  -50.9323    1.0000 </r>
       <r>  -50.9199    1.0000 </r>
       <r>  -50.9164    1.0000 </r>
       <r>  -50.9034    1.0000 </r>
       <r>  -50.8902    1.0000 </r>
       <r>  -50.8885    1.0000 </r>
       <r>  -24.9364    1.0000 </r>
       <r>  -24.9167    1.0000 </r>
       <r>  -24.9003    1.0000 </r>
       <r>  -24.7925    1.0000 </r>
       <r>  -24.7698    1.0000 </r>
       <r>  -24.7197    1.0000 </r>
       <r>  -24.7129    1.0000 </r>
       <r>  -24.6456    1.0000 </r>
       <r>  -24.6058    1.0000 </r>
       <r>  -24.4607    1.0000 </r>
       <r>  -24.4541    1.0000 </r>
       <r>  -24.4388    1.0000 </r>
       <r>  -24.4107    1.0000 </r>
       <r>  -24.3680    1.0000 </r>
       <r>  -24.3135    1.0000 </r>
       <r>  -24.3028    1.0000 </r>
       <r>  -24.2770    1.0000 </r>
       <r>  -24.2552    1.0000 </r>
       <r>  -24.2277    1.0000 </r>
       <r>  -24.1690    1.0000 </r>
       <r>  -24.0822    1.0000 </r>
       <r>  -24.0656    1.0000 </r>
       <r>  -24.0609    1.0000 </r>
       <r>  -24.0531    1.0000 </r>
       <r>  -24.0248    1.0000 </r>
       <r>  -24.0136    1.0000 </r>
       <r>  -23.9800    1.0000 </r>
       <r>  -23.9767    1.0000 </r>
       <r>  -23.9675    1.0000 </r>
       <r>  -23.9550    1.0000 </r>
       <r>    0.6221    1.0000 </r>
       <r>    2.0090    1.0000 </r>
       <r>    2.8363    1.0000 </r>
       <r>    3.0508    1.0000 </r>
       <r>    4.3981    1.0000 </r>
       <r>    4.4577    1.0000 </r>
       <r>    5.8155    1.0000 </r>
       <r>    6.1737    1.0000 </r>
       <r>    6.1799    1.0000 </r>
       <r>    6.5789    1.0000 </r>
       <r>    6.6036    1.0000 </r>
       <r>    6.7106    1.0000 </r>
       <r>    7.3007    1.0000 </r>
       <r>    7.4333    1.0000 </r>
       <r>    7.7849    1.0000 </r>
       <r>    8.0478    1.0000 </r>
       <r>    8.2431    1.0000 </r>
       <r>    8.3092    1.0000 </r>
       <r>    8.3220    1.0000 </r>
       <r>    8.4302    1.0000 </r>
       <r>    8.5416    1.0000 </r>
       <r>    8.5906    1.0000 </r>
       <r>    8.6892    1.0000 </r>
       <r>    8.8222    1.0000 </r>
       <r>    8.8507    1.0000 </r>
       <r>    8.9376    1.0000 </r>
       <r>    9.0957    1.0000 </r>
       <r>    9.2570    1.0000 </r>
       <r>    9.3232    1.0000 </r>
       <r>    9.3341    1.0000 </r>
       <r>    9.4564    1.0000 </r>
       <r>    9.6328    1.0000 </r>
       <r>   10.1241    1.0000 </r>
       <r>   10.3713    1.0000 </r>
       <r>   10.4921    1.0000 </r>
       <r>   11.2564    1.0000 </r>
       <r>   11.4160    1.0000 </r>
       <r>   11.6643    1.0000 </r>
       <r>   12.0064    1.0000 </r>
       <r>   12.2234    0.5278 </r>
       <r>   12.5426    0.0000 </r>
       <r>   12.5531    0.0000 </r>
       <r>   12.9070    0.0000 </r>
       <r>   12.9586    0.0000 </r>
       <r>   12.9909    0.0000 </r>
       <r>   13.1269    0.0000 </r>
       <r>   13.3651    0.0000 </r>
       <r>   13.6430    0.0000 </r>
       <r>   13.6694    0.0000 </r>
       <r>   13.7376    0.0000 </r>
       <r>   13.8702    0.0000 </r>
       <r>   13.9523    0.0000 </r>
       <r>   14.2913    0.0000 </r>
       <r>   14.3776    0.0000 </r>
       <r>   14.5666    0.0000 </r>
       <r>   14.8090    0.0000 </r>
      </set>
      <set comment="kpoint 11">
       <r>  -51.0974    1.0000 </r>
       <r>  -51.0607    1.0000 </r>
       <r>  -50.9697    1.0000 </r>
       <r>  -50.9649    1.0000 </r>
       <r>  -50.9419    1.0000 </r>
       <r>  -50.9231    1.0000 </r>
       <r>  -50.9100    1.0000 </r>
       <r>  -50.8986    1.0000 </r>
       <r>  -50.8770    1.0000 </r>
       <r>  -50.8691    1.0000 </r>
       <r>  -24.8946    1.0000 </r>
       <r>  -24.8785    1.0000 </r>
       <r>  -24.8691    1.0000 </r>
[...]
       <r>  -24.8665    1.0000 </r>
       <r>  -24.8600    1.0000 </r>
       <r>  -24.8581    1.0000 </r>
       <r>  -24.7349    1.0000 </r>
       <r>  -24.6638    1.0000 </r>
       <r>  -24.6367    1.0000 </r>
       <r>  -24.5409    1.0000 </r>
       <r>  -24.5179    1.0000 </r>
       <r>  -24.4542    1.0000 </r>
       <r>  -24.4300    1.0000 </r>
       <r>  -24.3945    1.0000 </r>
       <r>  -24.3534    1.0000 </r>
       <r>  -24.3170    1.0000 </r>
       <r>  -24.3024    1.0000 </r>
       <r>  -24.2569    1.0000 </r>
       <r>  -24.2362    1.0000 </r>
       <r>  -24.2352    1.0000 </r>
       <r>  -24.2120    1.0000 </r>
       <r>  -24.1855    1.0000 </r>
       <r>  -24.1207    1.0000 </r>
       <r>  -24.0986    1.0000 </r>
       <r>  -24.0010    1.0000 </r>
       <r>  -23.9989    1.0000 </r>
       <r>  -23.9946    1.0000 </r>
       <r>  -23.9903    1.0000 </r>
       <r>  -23.9453    1.0000 </r>
       <r>  -23.9452    1.0000 </r>
       <r>  -23.9351    1.0000 </r>
       <r>    1.4203    1.0000 </r>
       <r>    2.0324    1.0000 </r>
       <r>    2.1066    1.0000 </r>
       <r>    2.7851    1.0000 </r>
       <r>    4.5656    1.0000 </r>
       <r>    4.5898    1.0000 </r>
       <r>    5.5129    1.0000 </r>
       <r>    6.0811    1.0000 </r>
       <r>    6.3461    1.0000 </r>
       <r>    6.3532    1.0000 </r>
       <r>    6.5283    1.0000 </r>
       <r>    6.7208    1.0000 </r>
       <r>    6.7256    1.0000 </r>
       <r>    7.2906    1.0000 </r>
       <r>    7.3383    1.0000 </r>
       <r>    7.4629    1.0000 </r>
       <r>    7.8949    1.0000 </r>
       <r>    8.1218    1.0000 </r>
       <r>    8.4224    1.0000 </r>
       <r>    8.4487    1.0000 </r>
       <r>    8.6041    1.0000 </r>
       <r>    8.7176    1.0000 </r>
       <r>    9.0023    1.0000 </r>
       <r>    9.1134    1.0000 </r>
       <r>    9.2487    1.0000 </r>
       <r>    9.3382    1.0000 </r>
       <r>    9.4902    1.0000 </r>
       <r>    9.7449    1.0000 </r>
       <r>   10.0739    1.0000 </r>
       <r>   10.1486    1.0000 </r>
       <r>   10.2826    1.0000 </r>
       <r>   10.4700    1.0000 </r>
       <r>   10.6371    1.0000 </r>
       <r>   10.6493    1.0000 </r>
       <r>   10.7200    1.0000 </r>
       <r>   10.9635    1.0000 </r>
       <r>   11.0235    1.0000 </r>
       <r>   11.1544    1.0000 </r>
       <r>   11.1820    1.0000 </r>
       <r>   11.2850    1.0000 </r>
       <r>   11.8644    1.0000 </r>
       <r>   11.9007    1.0000 </r>
       <r>   12.0248    1.0000 </r>
       <r>   12.2730    0.0003 </r>
       <r>   12.6132    0.0000 </r>
       <r>   12.7081    0.0000 </r>
       <r>   12.7731    0.0000 </r>
       <r>   12.8938    0.0000 </r>
       <r>   13.0854    0.0000 </r>
       <r>   13.7220    0.0000 </r>
       <r>   14.2486    0.0000 </r>
       <r>   14.2659    0.0000 </r>
       <r>   14.4186    0.0000 </r>
       <r>   14.6076    0.0000 </r>
       <r>   14.8243    0.0000 </r>
       <r>   14.8733    0.0000 </r>
      </set>
     </set>
    </set>
   </array>
  </eigenvalues>
  <separator name="orbital magnetization" >
   <v name="MAGDIPOLOUT">      0.00000000      0.00000000      0.00000000</v>
  </separator>
  <dos>
   <i name="efermi">     12.22441973 </i>
   <total>
    <array>
     <dimension dim="1">gridpoints</dimension>
     <dimension dim="2">spin</dimension>
     <field>energy</field>
     <field>total</field>
     <field>integrated</field>
     <set>
      <set comment="spin 1">
       <r>   -54.4608     0.0000     0.0000 </r>
       <r>   -54.2171     0.0000     0.0000 </r>
       <r>   -53.9734     0.0000     0.0000 </r>
       <r>   -53.7296     0.0000     0.0000 </r>
       <r>   -53.4859     0.0000     0.0000 </r>
       <r>   -53.2422     0.0000     0.0000 </r>
       <r>   -52.9985     0.0000     0.0000 </r>
       <r>   -52.7547     0.0000     0.0000 </r>
       <r>   -52.5110     0.0000     0.0000 </r>
       <r>   -52.2673     0.0000     0.0000 </r>
       <r>   -52.0235     0.0000     0.0000 </r>
       <r>   -51.7798     0.0000     0.0000 </r>
       <r>   -51.5361     0.0000     0.0000 </r>
       <r>   -51.2924     0.0000     0.0000 </r>
       <r>   -51.0486    14.1119     3.4395 </r>
       <r>   -50.8049    58.7805    20.0000 </r>
       <r>   -50.5612     0.0000    20.0000 </r>
       <r>   -50.3174     0.0000    20.0000 </r>
       <r>   -50.0737     0.0000    20.0000 </r>
       <r>   -49.8300     0.0000    20.0000 </r>
       <r>   -49.5863     0.0000    20.0000 </r>
       <r>   -49.3425     0.0000    20.0000 </r>
       <r>   -49.0988     0.0000    20.0000 </r>
       <r>   -48.8551     0.0000    20.0000 </r>
       <r>   -48.6113     0.0000    20.0000 </r>
       <r>   -48.3676     0.0000    20.0000 </r>
       <r>   -48.1239     0.0000    20.0000 </r>
       <r>   -47.8801     0.0000    20.0000 </r>
       <r>   -47.6364     0.0000    20.0000 </r>
       <r>   -47.3927     0.0000    20.0000 </r>
       <r>   -47.1490     0.0000    20.0000 </r>
       <r>   -46.9052     0.0000    20.0000 </r>
       <r>   -46.6615     0.0000    20.0000 </r>
       <r>   -46.4178     0.0000    20.0000 </r>
       <r>   -46.1740     0.0000    20.0000 </r>
       <r>   -45.9303     0.0000    20.0000 </r>
       <r>   -45.6866     0.0000    20.0000 </r>
       <r>   -45.4429     0.0000    20.0000 </r>
       <r>   -45.1991     0.0000    20.0000 </r>
       <r>   -44.9554     0.0000    20.0000 </r>
       <r>   -44.7117     0.0000    20.0000 </r>
       <r>   -44.4679     0.0000    20.0000 </r>
       <r>   -44.2242     0.0000    20.0000 </r>
       <r>   -43.9805     0.0000    20.0000 </r>
       <r>   -43.7368     0.0000    20.0000 </r>
       <r>   -43.4930     0.0000    20.0000 </r>
       <r>   -43.2493     0.0000    20.0000 </r>
       <r>   -43.0056     0.0000    20.0000 </r>
       <r>   -42.7618     0.0000    20.0000 </r>
       <r>   -42.5181     0.0000    20.0000 </r>
       <r>   -42.2744     0.0000    20.0000 </r>
       <r>   -42.0307     0.0000    20.0000 </r>
       <r>   -41.7869     0.0000    20.0000 </r>
       <r>   -41.5432     0.0000    20.0000 </r>
       <r>   -41.2995     0.0000    20.0000 </r>
       <r>   -41.0557     0.0000    20.0000 </r>
       <r>   -40.8120     0.0000    20.0000 </r>
       <r>   -40.5683     0.0000    20.0000 </r>
       <r>   -40.3246     0.0000    20.0000 </r>
       <r>   -40.0808     0.0000    20.0000 </r>
       <r>   -39.8371     0.0000    20.0000 </r>
       <r>   -39.5934     0.0000    20.0000 </r>
       <r>   -39.3496     0.0000    20.0000 </r>
       <r>   -39.1059     0.0000    20.0000 </r>
       <r>   -38.8622     0.0000    20.0000 </r>
       <r>   -38.6184     0.0000    20.0000 </r>
       <r>   -38.3747     0.0000    20.0000 </r>
       <r>   -38.1310     0.0000    20.0000 </r>
       <r>   -37.8873     0.0000    20.0000 </r>
       <r>   -37.6435     0.0000    20.0000 </r>
       <r>   -37.3998     0.0000    20.0000 </r>
       <r>   -37.1561     0.0000    20.0000 </r>
       <r>   -36.9123     0.0000    20.0000 </r>
       <r>   -36.6686     0.0000    20.0000 </r>
       <r>   -36.4249     0.0000    20.0000 </r>
       <r>   -36.1812     0.0000    20.0000 </r>
       <r>   -35.9374     0.0000    20.0000 </r>
       <r>   -35.6937     0.0000    20.0000 </r>
       <r>   -35.4500     0.0000    20.0000 </r>
       <r>   -35.2062     0.0000    20.0000 </r>
       <r>   -34.9625     0.0000    20.0000 </r>
       <r>   -34.7188     0.0000    20.0000 </r>
       <r>   -34.4751     0.0000    20.0000 </r>
       <r>   -34.2313     0.0000    20.0000 </r>
       <r>   -33.9876     0.0000    20.0000 </r>
       <r>   -33.7439     0.0000    20.0000 </r>
       <r>   -33.5001     0.0000    20.0000 </r>
       <r>   -33.2564     0.0000    20.0000 </r>
       <r>   -33.0127     0.0000    20.0000 </r>
       <r>   -32.7690     0.0000    20.0000 </r>
       <r>   -32.5252     0.0000    20.0000 </r>
       <r>   -32.2815     0.0000    20.0000 </r>
       <r>   -32.0378     0.0000    20.0000 </r>
       <r>   -31.7940     0.0000    20.0000 </r>
       <r>   -31.5503     0.0000    20.0000 </r>
       <r>   -31.3066     0.0000    20.0000 </r>
       <r>   -31.0629     0.0000    20.0000 </r>
       <r>   -30.8191     0.0000    20.0000 </r>
       <r>   -30.5754     0.0000    20.0000 </r>
       <r>   -30.3317     0.0000    20.0000 </r>
       <r>   -30.0879     0.0000    20.0000 </r>
       <r>   -29.8442     0.0000    20.0000 </r>
       <r>   -29.6005     0.0000    20.0000 </r>
       <r>   -29.3567     0.0000    20.0000 </r>
       <r>   -29.1130     0.0000    20.0000 </r>
       <r>   -28.8693     0.0000    20.0000 </r>
       <r>   -28.6256     0.0000    20.0000 </r>
       <r>   -28.3818     0.0000    20.0000 </r>
       <r>   -28.1381     0.0000    20.0000 </r>
       <r>   -27.8944     0.0000    20.0000 </r>
       <r>   -27.6506     0.0000    20.0000 </r>
       <r>   -27.4069     0.0000    20.0000 </r>
       <r>   -27.1632     0.0000    20.0000 </r>
       <r>   -26.9195     0.0000    20.0000 </r>
       <r>   -26.6757     0.0000    20.0000 </r>
       <r>   -26.4320     0.0000    20.0000 </r>
       <r>   -26.1883     0.0000    20.0000 </r>
       <r>   -25.9445     0.0000    20.0000 </r>
       <r>   -25.7008     0.0000    20.0000 </r>
       <r>   -25.4571     0.0000    20.0000 </r>
       <r>   -25.2134     0.0000    20.0000 </r>
       <r>   -24.9696     0.0206    20.0050 </r>
       <r>   -24.7259    37.1120    31.8310 </r>
       <r>   -24.4822    29.0943    40.3462 </r>
       <r>   -24.2384    43.7640    55.7023 </r>
       <r>   -23.9947    46.3048    71.2450 </r>
       <r>   -23.7510     0.0000    80.0000 </r>
       <r>   -23.5073     0.0000    80.0000 </r>
       <r>   -23.2635     0.0000    80.0000 </r>
       <r>   -23.0198     0.0000    80.0000 </r>
       <r>   -22.7761     0.0000    80.0000 </r>
       <r>   -22.5323     0.0000    80.0000 </r>
       <r>   -22.2886     0.0000    80.0000 </r>
       <r>   -22.0449     0.0000    80.0000 </r>
       <r>   -21.8012     0.0000    80.0000 </r>
       <r>   -21.5574     0.0000    80.0000 </r>
       <r>   -21.3137     0.0000    80.0000 </r>
       <r>   -21.0700     0.0000    80.0000 </r>
       <r>   -20.8262     0.0000    80.0000 </r>
       <r>   -20.5825     0.0000    80.0000 </r>
       <r>   -20.3388     0.0000    80.0000 </r>
       <r>   -20.0951     0.0000    80.0000 </r>
       <r>   -19.8513     0.0000    80.0000 </r>
       <r>   -19.6076     0.0000    80.0000 </r>
       <r>   -19.3639     0.0000    80.0000 </r>
       <r>   -19.1201     0.0000    80.0000 </r>
       <r>   -18.8764     0.0000    80.0000 </r>
       <r>   -18.6327     0.0000    80.0000 </r>
       <r>   -18.3889     0.0000    80.0000 </r>
       <r>   -18.1452     0.0000    80.0000 </r>
       <r>   -17.9015     0.0000    80.0000 </r>
       <r>   -17.6578     0.0000    80.0000 </r>
       <r>   -17.4140     0.0000    80.0000 </r>
       <r>   -17.1703     0.0000    80.0000 </r>
       <r>   -16.9266     0.0000    80.0000 </r>
       <r>   -16.6828     0.0000    80.0000 </r>
       <r>   -16.4391     0.0000    80.0000 </r>
       <r>   -16.1954     0.0000    80.0000 </r>
       <r>   -15.9517     0.0000    80.0000 </r>
       <r>   -15.7079     0.0000    80.0000 </r>
       <r>   -15.4642     0.0000    80.0000 </r>
       <r>   -15.2205     0.0000    80.0000 </r>
       <r>   -14.9767     0.0000    80.0000 </r>
       <r>   -14.7330     0.0000    80.0000 </r>
       <r>   -14.4893     0.0000    80.0000 </r>
       <r>   -14.2456     0.0000    80.0000 </r>
       <r>   -14.0018     0.0000    80.0000 </r>
       <r>   -13.7581     0.0000    80.0000 </r>
       <r>   -13.5144     0.0000    80.0000 </r>
       <r>   -13.2706     0.0000    80.0000 </r>
       <r>   -13.0269     0.0000    80.0000 </r>
       <r>   -12.7832     0.0000    80.0000 </r>
       <r>   -12.5395     0.0000    80.0000 </r>
       <r>   -12.2957     0.0000    80.0000 </r>
       <r>   -12.0520     0.0000    80.0000 </r>
       <r>   -11.8083     0.0000    80.0000 </r>
       <r>   -11.5645     0.0000    80.0000 </r>
       <r>   -11.3208     0.0000    80.0000 </r>
       <r>   -11.0771     0.0000    80.0000 </r>
       <r>   -10.8334     0.0000    80.0000 </r>
       <r>   -10.5896     0.0000    80.0000 </r>
       <r>   -10.3459     0.0000    80.0000 </r>
       <r>   -10.1022     0.0000    80.0000 </r>
       <r>    -9.8584     0.0000    80.0000 </r>
       <r>    -9.6147     0.0000    80.0000 </r>
       <r>    -9.3710     0.0000    80.0000 </r>
       <r>    -9.1272     0.0000    80.0000 </r>
       <r>    -8.8835     0.0000    80.0000 </r>
       <r>    -8.6398     0.0000    80.0000 </r>
       <r>    -8.3961     0.0000    80.0000 </r>
       <r>    -8.1523     0.0000    80.0000 </r>
       <r>    -7.9086     0.0000    80.0000 </r>
       <r>    -7.6649     0.0000    80.0000 </r>
       <r>    -7.4211     0.0000    80.0000 </r>
       <r>    -7.1774     0.0000    80.0000 </r>
       <r>    -6.9337     0.0000    80.0000 </r>
       <r>    -6.6900     0.0000    80.0000 </r>
       <r>    -6.4462     0.0000    80.0000 </r>
       <r>    -6.2025     0.0000    80.0000 </r>
       <r>    -5.9588     0.0000    80.0000 </r>
       <r>    -5.7150     0.0000    80.0000 </r>
       <r>    -5.4713     0.0000    80.0000 </r>
       <r>    -5.2276     0.0000    80.0000 </r>
       <r>    -4.9839     0.0000    80.0000 </r>
       <r>    -4.7401     0.0000    80.0000 </r>
       <r>    -4.4964     0.0000    80.0000 </r>
       <r>    -4.2527     0.0000    80.0000 </r>
       <r>    -4.0089     0.0000    80.0000 </r>
       <r>    -3.7652     0.0000    80.0000 </r>
       <r>    -3.5215     0.0000    80.0000 </r>
       <r>    -3.2778     0.0000    80.0000 </r>
       <r>    -3.0340     0.0000    80.0000 </r>
       <r>    -2.7903     0.0000    80.0000 </r>
       <r>    -2.5466     0.0000    80.0000 </r>
       <r>    -2.3028     0.0000    80.0000 </r>
       <r>    -2.0591     0.0000    80.0000 </r>
       <r>    -1.8154     0.0000    80.0000 </r>
       <r>    -1.5717     0.0000    80.0000 </r>
       <r>    -1.3279     0.0000    80.0000 </r>
       <r>    -1.0842     0.0000    80.0000 </r>
       <r>    -0.8405     0.0000    80.0000 </r>
       <r>    -0.5967     0.0000    80.0000 </r>
       <r>    -0.3530     0.0000    80.0000 </r>
       <r>    -0.1093     0.0000    80.0000 </r>
       <r>     0.1345     0.0000    80.0000 </r>
       <r>     0.3782     0.0000    80.0000 </r>
       <r>     0.6219     0.2727    80.0716 </r>
       <r>     0.8656     0.6334    80.2411 </r>
       <r>     1.1094     0.5093    80.4660 </r>
       <r>     1.3531     1.0249    80.8467 </r>
       <r>     1.5968     1.6012    81.3545 </r>
       <r>     1.8406     1.4356    81.9162 </r>
       <r>     2.0843     5.3958    83.5753 </r>
       <r>     2.3280     0.6734    84.1692 </r>
       <r>     2.5717     2.5625    84.9358 </r>
       <r>     2.8155     6.9348    87.4912 </r>
       <r>     3.0592     0.9767    87.9370 </r>
       <r>     3.3029     0.0209    88.0000 </r>
       <r>     3.5467     0.0007    88.0002 </r>
       <r>     3.7904     1.9644    88.5247 </r>
       <r>     4.0341     4.0591    89.8669 </r>
       <r>     4.2778     2.7584    91.0805 </r>
       <r>     4.5216     1.4524    91.6601 </r>
       <r>     4.7653     0.4605    92.0000 </r>
       <r>     5.0090     0.0000    92.0000 </r>
       <r>     5.2528     0.0000    92.0000 </r>
       <r>     5.4965     1.8199    92.4436 </r>
       <r>     5.7402     2.5825    93.3641 </r>
       <r>     5.9839     4.9159    95.0298 </r>
       <r>     6.2277     5.2372    96.7509 </r>
       <r>     6.4714     4.6271    98.8216 </r>
       <r>     6.7151     5.1632   100.6921 </r>
       <r>     6.9589     5.3773   102.6116 </r>
       <r>     7.2026     5.9794   104.5594 </r>
       <r>     7.4463     7.3336   107.1956 </r>
       <r>     7.6900     3.4530   108.6630 </r>
       <r>     7.9338     6.5228   111.2174 </r>
       <r>     8.1775    11.1651   115.3896 </r>
       <r>     8.4212    11.1912   119.7072 </r>
       <r>     8.6650     8.6515   123.2413 </r>
       <r>     8.9087     9.4307   126.2067 </r>
       <r>     9.1524    14.9172   131.6153 </r>
       <r>     9.3962     9.7561   135.6584 </r>
       <r>     9.6399     9.0345   138.9673 </r>
       <r>     9.8836     8.9240   142.4965 </r>
       <r>    10.1273     8.9436   145.4910 </r>
       <r>    10.3711     8.1056   148.3633 </r>
       <r>    10.6148     4.7737   150.3829 </r>
       <r>    10.8585     2.1306   151.4478 </r>
       <r>    11.1023     2.4276   152.2396 </r>
       <r>    11.3460     4.0403   153.7449 </r>
       <r>    11.5897     3.3373   154.9307 </r>
       <r>    11.8334     5.3134   156.6165 </r>
       <r>    12.0772     5.3802   158.5613 </r>
       <r>    12.3209     5.0770   160.7884 </r>
       <r>    12.5646     7.9811   163.5677 </r>
       <r>    12.8084     8.4811   166.7099 </r>
       <r>    13.0521     7.0545   169.2041 </r>
       <r>    13.2958     8.5826   172.2959 </r>
       <r>    13.5395    11.6048   176.3080 </r>
       <r>    13.7833     7.7889   179.5973 </r>
       <r>    14.0270     6.4206   181.9118 </r>
       <r>    14.2707     5.8421   184.1433 </r>
       <r>    14.5145     7.7037   186.8725 </r>
       <r>    14.7582     6.4396   189.0797 </r>
       <r>    15.0019     4.9368   191.2747 </r>
       <r>    15.2456     1.1208   191.9773 </r>
       <r>    15.4894     0.0837   192.0000 </r>
       <r>    15.7331     0.0000   192.0000 </r>
       <r>    15.9768     0.0000   192.0000 </r>
       <r>    16.2206     0.0000   192.0000 </r>
       <r>    16.4643     0.0000   192.0000 </r>
       <r>    16.7080     0.0000   192.0000 </r>
       <r>    16.9517     0.0000   192.0000 </r>
       <r>    17.1955     0.0000   192.0000 </r>
       <r>    17.4392     0.0000   192.0000 </r>
       <r>    17.6829     0.0000   192.0000 </r>
       <r>    17.9267     0.0000   192.0000 </r>
       <r>    18.1704     0.0000   192.0000 </r>
       <r>    18.4141     0.0000   192.0000 </r>
       <r>    18.6579     0.0000   192.0000 </r>
      </set>
     </set>
    </array>
   </total>
  </dos>
 </calculation>
 <structure name="finalpos" >
  <crystal>
   <varray name="basis" >
    <v>      -3.02663100       3.02663100       5.57974100 </v>
    <v>       3.02663100      -3.02663100       5.57974100 </v>
    <v>       3.02663100       3.02663100      -5.57974100 </v>
   </varray>
   <i name="volume">    204.45276282 </i>
   <varray name="rec_basis" >
    <v>       0.00000000       0.16520018       0.08960989 </v>
    <v>       0.16520018       0.00000000       0.08960989 </v>
    <v>       0.16520018       0.16520018       0.00000000 </v>
   </varray>
  </crystal>
  <varray name="positions" >
   <v>       0.37904800       0.87904800       0.25809700 </v>
   <v>       0.87904800       0.62095200       0.50000000 </v>
   <v>       0.62095200       0.12095200       0.74190300 </v>
   <v>       0.12095200       0.37904800       0.50000000 </v>
   <v>       0.00000000       0.00000000       0.00000000 </v>
   <v>       0.80380800       0.97570900       0.50000000 </v>
   <v>       0.30380800       0.80380800       0.82809900 </v>
   <v>       0.19619200       0.02429100       0.50000000 </v>
   <v>       0.52429100       0.69619200       0.50000000 </v>
   <v>       0.02429100       0.52429100       0.82809900 </v>
   <v>       0.69619200       0.19619200       0.17190100 </v>
   <v>       0.97570900       0.47570900       0.17190100 </v>
   <v>       0.50000000       0.50000000       0.00000000 </v>
   <v>       0.47570900       0.30380800       0.50000000 </v>
   <v>       0.75000000       0.75000000       0.00000000 </v>
   <v>       0.25000000       0.25000000       0.00000000 </v>
  </varray>
 </structure>
</modeling>
