<?xml version="1.0" encoding="ISO-8859-1"?>
<modeling>
 <generator>
  <i name="program" type="string">vasp </i>
  <i name="version" type="string">6.2.0  </i>
  <i name="subversion" type="string">18Jan21 (build Jan 05 2022 15:41:44) complex                          parallel </i>
  <i name="platform" type="string">LinuxIFC </i>
  <i name="date" type="string">2025 05 07 </i>
  <i name="time" type="string">21:18:30 </i>
 </generator>
 <incar>
  <i type="string" name="SYSTEM">routine with relax: pwdword</i>
  <i type="string" name="PREC">Acc</i>
  <i type="int" name="IALGO">    38</i>
  <i type="string" name="ALGO">A</i>
  <i type="logical" name="ADDGRID"> T  </i>
  <i type="int" name="ICHARG">     2</i>
  <i type="int" name="NELM">   100</i>
  <i type="int" name="NELMIN">     6</i>
  <i name="EDIFF">      0.00000000</i>
  <i type="int" name="NSW">     0</i>
  <i type="int" name="ISIF">    -1</i>
  <i name="ENCUT">    600.00000000</i>
  <i type="logical" name="LREAL"> F  </i>
  <i type="int" name="ISMEAR">     0</i>
  <i name="SIGMA">      0.02000000</i>
  <i type="logical" name="LASPH"> T  </i>
  <i type="string" name="METAGGA">R2SCAN</i>
  <i type="logical" name="LMIXTAU"> F  </i>
 </incar>
 <primitive_cell>
  <structure name="primitive_cell" >
   <crystal>
    <varray name="basis" >
     <v>       2.94284020      -0.00303544       6.54214232 </v>
     <v>       1.40124907       2.58782000       6.54214232 </v>
     <v>      -0.00509999      -0.00303544       7.17355649 </v>
    </varray>
    <i name="volume">     54.77808054 </i>
    <varray name="rec_basis" >
     <v>       0.33925488      -0.18411204       0.00016329 </v>
     <v>       0.00003499       0.38599372       0.00016336 </v>
     <v>      -0.30942568      -0.18411212       0.13910298 </v>
    </varray>
   </crystal>
   <varray name="positions" >
    <v>       0.81833097       0.81833097       0.81833097 </v>
    <v>       0.18166903       0.18166903       0.18166903 </v>
    <v>       0.33210285       0.33210285       0.33210285 </v>
    <v>       0.66789715       0.66789715       0.66789715 </v>
    <v>       0.92434714       0.92434714       0.92434714 </v>
    <v>       0.07565286       0.07565286       0.07565286 </v>
   </varray>
  </structure>
  <varray name="primitive_index" >
   <v type="int" >        1 </v>
   <v type="int" >        2 </v>
   <v type="int" >        3 </v>
   <v type="int" >        4 </v>
   <v type="int" >        5 </v>
   <v type="int" >        6 </v>
  </varray>
 </primitive_cell>
 <kpoints>
  <generation param="Gamma">
   <v type="int" name="divisions">      13       13       13 </v>
   <v name="usershift">      0.00000000       0.00000000       0.00000000 </v>
   <v name="genvec1">      0.07692308      -0.00000000       0.00000000 </v>
   <v name="genvec2">      0.00000000       0.07692308      -0.00000000 </v>
   <v name="genvec3">      0.00000000       0.00000000       0.07692308 </v>
   <v name="shift">      0.00000000       0.00000000       0.00000000 </v>
  </generation>
  <varray name="kpointlist" >
   <v>       0.00000000       0.00000000       0.00000000 </v>
   <v>       0.07692308       0.00000000      -0.00000000 </v>
   <v>       0.15384615       0.00000000       0.00000000 </v>
   <v>       0.23076923       0.00000000      -0.00000000 </v>
   <v>       0.30769231       0.00000000       0.00000000 </v>
   <v>       0.38461538       0.00000000       0.00000000 </v>
   <v>       0.46153846       0.00000000      -0.00000000 </v>
   <v>       0.07692308       0.07692308       0.00000000 </v>
   <v>       0.15384615       0.07692308       0.00000000 </v>
   <v>       0.23076923       0.07692308       0.00000000 </v>
   <v>       0.30769231       0.07692308       0.00000000 </v>
   <v>       0.38461538       0.07692308       0.00000000 </v>
   <v>       0.46153846       0.07692308       0.00000000 </v>
   <v>      -0.46153846       0.07692308       0.00000000 </v>
   <v>      -0.38461538       0.07692308       0.00000000 </v>
   <v>      -0.30769231       0.07692308       0.00000000 </v>
   <v>      -0.23076923       0.07692308       0.00000000 </v>
   <v>      -0.15384615       0.07692308      -0.00000000 </v>
   <v>      -0.07692308       0.07692308       0.00000000 </v>
   <v>       0.15384615       0.15384615       0.00000000 </v>
   <v>       0.23076923       0.15384615       0.00000000 </v>
   <v>       0.30769231       0.15384615       0.00000000 </v>
   <v>       0.38461538       0.15384615       0.00000000 </v>
   <v>       0.46153846       0.15384615       0.00000000 </v>
   <v>      -0.46153846       0.15384615       0.00000000 </v>
   <v>      -0.38461538       0.15384615       0.00000000 </v>
   <v>      -0.30769231       0.15384615      -0.00000000 </v>
   <v>      -0.23076923       0.15384615      -0.00000000 </v>
   <v>      -0.15384615       0.15384615      -0.00000000 </v>
   <v>       0.23076923       0.23076923       0.00000000 </v>
   <v>       0.30769231       0.23076923       0.00000000 </v>
   <v>       0.38461538       0.23076923       0.00000000 </v>
   <v>       0.46153846       0.23076923       0.00000000 </v>
   <v>      -0.46153846       0.23076923       0.00000000 </v>
   <v>      -0.38461538       0.23076923       0.00000000 </v>
   <v>      -0.30769231       0.23076923      -0.00000000 </v>
   <v>      -0.23076923       0.23076923      -0.00000000 </v>
   <v>       0.30769231       0.30769231       0.00000000 </v>
   <v>       0.38461538       0.30769231      -0.00000000 </v>
   <v>       0.46153846       0.30769231      -0.00000000 </v>
   <v>      -0.46153846       0.30769231       0.00000000 </v>
   <v>      -0.38461538       0.30769231      -0.00000000 </v>
   <v>      -0.30769231       0.30769231      -0.00000000 </v>
   <v>       0.38461538       0.38461538       0.00000000 </v>
   <v>       0.46153846       0.38461538       0.00000000 </v>
   <v>      -0.46153846       0.38461538       0.00000000 </v>
   <v>      -0.38461538       0.38461538      -0.00000000 </v>
   <v>       0.46153846       0.46153846       0.00000000 </v>
   <v>      -0.46153846       0.46153846       0.00000000 </v>
   <v>       0.07692308       0.07692308       0.07692308 </v>
   <v>       0.15384615       0.07692308       0.07692308 </v>
   <v>       0.23076923       0.07692308       0.07692308 </v>
   <v>       0.30769231       0.07692308       0.07692308 </v>
   <v>       0.38461538       0.07692308       0.07692308 </v>
   <v>       0.46153846       0.07692308       0.07692308 </v>
   <v>      -0.46153846       0.07692308       0.07692308 </v>
   <v>      -0.38461538       0.07692308       0.07692308 </v>
   <v>      -0.30769231       0.07692308       0.07692308 </v>
   <v>      -0.23076923       0.07692308       0.07692308 </v>
   <v>      -0.15384615       0.07692308       0.07692308 </v>
   <v>      -0.07692308       0.07692308       0.07692308 </v>
   <v>       0.15384615       0.15384615       0.07692308 </v>
   <v>       0.23076923       0.15384615       0.07692308 </v>
   <v>       0.30769231       0.15384615       0.07692308 </v>
   <v>       0.38461538       0.15384615       0.07692308 </v>
   <v>       0.46153846       0.15384615       0.07692308 </v>
   <v>      -0.46153846       0.15384615       0.07692308 </v>
   <v>      -0.38461538       0.15384615       0.07692308 </v>
   <v>      -0.30769231       0.15384615       0.07692308 </v>
   <v>      -0.23076923       0.15384615       0.07692308 </v>
   <v>      -0.15384615       0.15384615       0.07692308 </v>
   <v>      -0.07692308       0.15384615       0.07692308 </v>
   <v>       0.23076923       0.23076923       0.07692308 </v>
   <v>       0.30769231       0.23076923       0.07692308 </v>
   <v>       0.38461538       0.23076923       0.07692308 </v>
   <v>       0.46153846       0.23076923       0.07692308 </v>
   <v>      -0.46153846       0.23076923       0.07692308 </v>
   <v>      -0.38461538       0.23076923       0.07692308 </v>
   <v>      -0.30769231       0.23076923       0.07692308 </v>
   <v>      -0.23076923       0.23076923       0.07692308 </v>
   <v>      -0.15384615       0.23076923       0.07692308 </v>
   <v>      -0.07692308       0.23076923       0.07692308 </v>
   <v>       0.30769231       0.30769231       0.07692308 </v>
   <v>       0.38461538       0.30769231       0.07692308 </v>
   <v>       0.46153846       0.30769231       0.07692308 </v>
   <v>      -0.46153846       0.30769231       0.07692308 </v>
   <v>      -0.38461538       0.30769231       0.07692308 </v>
   <v>      -0.30769231       0.30769231       0.07692308 </v>
   <v>      -0.23076923       0.30769231       0.07692308 </v>
   <v>      -0.15384615       0.30769231       0.07692308 </v>
   <v>      -0.07692308       0.30769231       0.07692308 </v>
   <v>       0.38461538       0.38461538       0.07692308 </v>
   <v>       0.46153846       0.38461538       0.07692308 </v>
   <v>      -0.46153846       0.38461538       0.07692308 </v>
   <v>      -0.38461538       0.38461538       0.07692308 </v>
   <v>      -0.30769231       0.38461538       0.07692308 </v>
   <v>      -0.23076923       0.38461538       0.07692308 </v>
   <v>      -0.15384615       0.38461538       0.07692308 </v>
   <v>      -0.07692308       0.38461538       0.07692308 </v>
   <v>       0.46153846       0.46153846       0.07692308 </v>
   <v>      -0.46153846       0.46153846       0.07692308 </v>
   <v>      -0.38461538       0.46153846       0.07692308 </v>
   <v>      -0.30769231       0.46153846       0.07692308 </v>
   <v>      -0.23076923       0.46153846       0.07692308 </v>
   <v>      -0.15384615       0.46153846       0.07692308 </v>
   <v>      -0.07692308       0.46153846       0.07692308 </v>
   <v>      -0.46153846      -0.46153846       0.07692308 </v>
   <v>      -0.38461538      -0.46153846       0.07692308 </v>
   <v>      -0.30769231      -0.46153846       0.07692308 </v>
   <v>      -0.23076923      -0.46153846       0.07692308 </v>
   <v>      -0.15384615      -0.46153846       0.07692308 </v>
   <v>      -0.38461538      -0.38461538       0.07692308 </v>
   <v>      -0.30769231      -0.38461538       0.07692308 </v>
   <v>      -0.23076923      -0.38461538       0.07692308 </v>
   <v>      -0.15384615      -0.38461538       0.07692308 </v>
   <v>      -0.30769231      -0.30769231       0.07692308 </v>
   <v>      -0.23076923      -0.30769231       0.07692308 </v>
   <v>      -0.15384615      -0.30769231       0.07692308 </v>
   <v>      -0.23076923      -0.23076923       0.07692308 </v>
   <v>      -0.15384615      -0.23076923       0.07692308 </v>
   <v>      -0.15384615      -0.15384615       0.07692308 </v>
   <v>       0.15384615       0.15384615       0.15384615 </v>
   <v>       0.23076923       0.15384615       0.15384615 </v>
   <v>       0.30769231       0.15384615       0.15384615 </v>
   <v>       0.38461538       0.15384615       0.15384615 </v>
   <v>       0.46153846       0.15384615       0.15384615 </v>
   <v>      -0.46153846       0.15384615       0.15384615 </v>
   <v>      -0.38461538       0.15384615       0.15384615 </v>
   <v>      -0.30769231       0.15384615       0.15384615 </v>
   <v>      -0.23076923       0.15384615       0.15384615 </v>
   <v>      -0.15384615       0.15384615       0.15384615 </v>
   <v>       0.23076923       0.23076923       0.15384615 </v>
   <v>       0.30769231       0.23076923       0.15384615 </v>
   <v>       0.38461538       0.23076923       0.15384615 </v>
   <v>       0.46153846       0.23076923       0.15384615 </v>
   <v>      -0.46153846       0.23076923       0.15384615 </v>
   <v>      -0.38461538       0.23076923       0.15384615 </v>
   <v>      -0.30769231       0.23076923       0.15384615 </v>
   <v>      -0.23076923       0.23076923       0.15384615 </v>
   <v>      -0.15384615       0.23076923       0.15384615 </v>
   <v>       0.30769231       0.30769231       0.15384615 </v>
   <v>       0.38461538       0.30769231       0.15384615 </v>
   <v>       0.46153846       0.30769231       0.15384615 </v>
   <v>      -0.46153846       0.30769231       0.15384615 </v>
   <v>      -0.38461538       0.30769231       0.15384615 </v>
   <v>      -0.30769231       0.30769231       0.15384615 </v>
   <v>      -0.23076923       0.30769231       0.15384615 </v>
   <v>      -0.15384615       0.30769231       0.15384615 </v>
   <v>       0.38461538       0.38461538       0.15384615 </v>
   <v>       0.46153846       0.38461538       0.15384615 </v>
   <v>      -0.46153846       0.38461538       0.15384615 </v>
   <v>      -0.38461538       0.38461538       0.15384615 </v>
   <v>      -0.30769231       0.38461538       0.15384615 </v>
   <v>      -0.23076923       0.38461538       0.15384615 </v>
   <v>      -0.15384615       0.38461538       0.15384615 </v>
   <v>       0.46153846       0.46153846       0.15384615 </v>
   <v>      -0.46153846       0.46153846       0.15384615 </v>
   <v>      -0.38461538       0.46153846       0.15384615 </v>
   <v>      -0.30769231       0.46153846       0.15384615 </v>
   <v>      -0.23076923       0.46153846       0.15384615 </v>
   <v>      -0.15384615       0.46153846       0.15384615 </v>
   <v>      -0.46153846      -0.46153846       0.15384615 </v>
   <v>      -0.38461538      -0.46153846       0.15384615 </v>
   <v>      -0.30769231      -0.46153846       0.15384615 </v>
   <v>      -0.23076923      -0.46153846       0.15384615 </v>
   <v>      -0.38461538      -0.38461538       0.15384615 </v>
   <v>      -0.30769231      -0.38461538       0.15384615 </v>
   <v>      -0.23076923      -0.38461538       0.15384615 </v>
   <v>      -0.30769231      -0.30769231       0.15384615 </v>
   <v>      -0.23076923      -0.30769231       0.15384615 </v>
   <v>      -0.23076923      -0.23076923       0.15384615 </v>
   <v>       0.23076923       0.23076923       0.23076923 </v>
   <v>       0.30769231       0.23076923       0.23076923 </v>
   <v>       0.38461538       0.23076923       0.23076923 </v>
   <v>       0.46153846       0.23076923       0.23076923 </v>
   <v>      -0.46153846       0.23076923       0.23076923 </v>
   <v>      -0.38461538       0.23076923       0.23076923 </v>
   <v>      -0.30769231       0.23076923       0.23076923 </v>
   <v>      -0.23076923       0.23076923       0.23076923 </v>
   <v>       0.30769231       0.30769231       0.23076923 </v>
   <v>       0.38461538       0.30769231       0.23076923 </v>
   <v>       0.46153846       0.30769231       0.23076923 </v>
   <v>      -0.46153846       0.30769231       0.23076923 </v>
   <v>      -0.38461538       0.30769231       0.23076923 </v>
   <v>      -0.30769231       0.30769231       0.23076923 </v>
   <v>      -0.23076923       0.30769231       0.23076923 </v>
   <v>       0.38461538       0.38461538       0.23076923 </v>
   <v>       0.46153846       0.38461538       0.23076923 </v>
   <v>      -0.46153846       0.38461538       0.23076923 </v>
   <v>      -0.38461538       0.38461538       0.23076923 </v>
   <v>      -0.30769231       0.38461538       0.23076923 </v>
   <v>      -0.23076923       0.38461538       0.23076923 </v>
   <v>       0.46153846       0.46153846       0.23076923 </v>
   <v>      -0.46153846       0.46153846       0.23076923 </v>
   <v>      -0.38461538       0.46153846       0.23076923 </v>
   <v>      -0.30769231       0.46153846       0.23076923 </v>
   <v>      -0.23076923       0.46153846       0.23076923 </v>
   <v>      -0.46153846      -0.46153846       0.23076923 </v>
   <v>      -0.38461538      -0.46153846       0.23076923 </v>
   <v>      -0.30769231      -0.46153846       0.23076923 </v>
   <v>      -0.38461538      -0.38461538       0.23076923 </v>
   <v>      -0.30769231      -0.38461538       0.23076923 </v>
   <v>      -0.30769231      -0.30769231       0.23076923 </v>
   <v>       0.30769231       0.30769231       0.30769231 </v>
   <v>       0.38461538       0.30769231       0.30769231 </v>
   <v>       0.46153846       0.30769231       0.30769231 </v>
   <v>      -0.46153846       0.30769231       0.30769231 </v>
   <v>      -0.38461538       0.30769231       0.30769231 </v>
   <v>      -0.30769231       0.30769231       0.30769231 </v>
   <v>       0.38461538       0.38461538       0.30769231 </v>
   <v>       0.46153846       0.38461538       0.30769231 </v>
   <v>      -0.46153846       0.38461538       0.30769231 </v>
   <v>      -0.38461538       0.38461538       0.30769231 </v>
   <v>      -0.30769231       0.38461538       0.30769231 </v>
   <v>       0.46153846       0.46153846       0.30769231 </v>
   <v>      -0.46153846       0.46153846       0.30769231 </v>
   <v>      -0.38461538       0.46153846       0.30769231 </v>
   <v>      -0.30769231       0.46153846       0.30769231 </v>
   <v>      -0.46153846      -0.46153846       0.30769231 </v>
   <v>      -0.38461538      -0.46153846       0.30769231 </v>
   <v>      -0.38461538      -0.38461538       0.30769231 </v>
   <v>       0.38461538       0.38461538       0.38461538 </v>
   <v>       0.46153846       0.38461538       0.38461538 </v>
   <v>      -0.46153846       0.38461538       0.38461538 </v>
   <v>      -0.38461538       0.38461538       0.38461538 </v>
   <v>       0.46153846       0.46153846       0.38461538 </v>
   <v>      -0.46153846       0.46153846       0.38461538 </v>
   <v>      -0.38461538       0.46153846       0.38461538 </v>
   <v>      -0.46153846      -0.46153846       0.38461538 </v>
   <v>       0.46153846       0.46153846       0.46153846 </v>
   <v>      -0.46153846       0.46153846       0.46153846 </v>
  </varray>
  <varray name="weights" >
   <v>       0.00045517 </v>
   <v>       0.00273100 </v>
   <v>       0.00273100 </v>
   <v>       0.00273100 </v>
   <v>       0.00273100 </v>
   <v>       0.00273100 </v>
   <v>       0.00273100 </v>
   <v>       0.00273100 </v>
   <v>       0.00546199 </v>
   <v>       0.00546199 </v>
   <v>       0.00546199 </v>
   <v>       0.00546199 </v>
   <v>       0.00546199 </v>
   <v>       0.00546199 </v>
   <v>       0.00546199 </v>
   <v>       0.00546199 </v>
   <v>       0.00546199 </v>
   <v>       0.00546199 </v>
   <v>       0.00273100 </v>
   <v>       0.00273100 </v>
   <v>       0.00546199 </v>
   <v>       0.00546199 </v>
   <v>       0.00546199 </v>
   <v>       0.00546199 </v>
   <v>       0.00546199 </v>
   <v>       0.00546199 </v>
   <v>       0.00546199 </v>
   <v>       0.00546199 </v>
   <v>       0.00273100 </v>
   <v>       0.00273100 </v>
   <v>       0.00546199 </v>
   <v>       0.00546199 </v>
   <v>       0.00546199 </v>
   <v>       0.00546199 </v>
   <v>       0.00546199 </v>
   <v>       0.00546199 </v>
   <v>       0.00273100 </v>
   <v>       0.00273100 </v>
   <v>       0.00546199 </v>
   <v>       0.00546199 </v>
   <v>       0.00546199 </v>
   <v>       0.00546199 </v>
   <v>       0.00273100 </v>
   <v>       0.00273100 </v>
   <v>       0.00546199 </v>
   <v>       0.00546199 </v>
   <v>       0.00273100 </v>
   <v>       0.00273100 </v>
   <v>       0.00273100 </v>
   <v>       0.00091033 </v>
   <v>       0.00273100 </v>
   <v>       0.00273100 </v>
   <v>       0.00273100 </v>
   <v>       0.00273100 </v>
   <v>       0.00273100 </v>
   <v>       0.00273100 </v>
   <v>       0.00273100 </v>
   <v>       0.00273100 </v>
   <v>       0.00273100 </v>
   <v>       0.00273100 </v>
   <v>       0.00273100 </v>
   <v>       0.00273100 </v>
   <v>       0.00546199 </v>
   <v>       0.00546199 </v>
   <v>       0.00546199 </v>
   <v>       0.00546199 </v>
   <v>       0.00546199 </v>
   <v>       0.00546199 </v>
   <v>       0.00546199 </v>
   <v>       0.00546199 </v>
   <v>       0.00546199 </v>
   <v>       0.00546199 </v>
   <v>       0.00273100 </v>
   <v>       0.00546199 </v>
   <v>       0.00546199 </v>
   <v>       0.00546199 </v>
   <v>       0.00546199 </v>
   <v>       0.00546199 </v>
   <v>       0.00546199 </v>
   <v>       0.00546199 </v>
   <v>       0.00546199 </v>
   <v>       0.00546199 </v>
   <v>       0.00273100 </v>
   <v>       0.00546199 </v>
   <v>       0.00546199 </v>
   <v>       0.00546199 </v>
   <v>       0.00546199 </v>
   <v>       0.00546199 </v>
   <v>       0.00546199 </v>
   <v>       0.00546199 </v>
   <v>       0.00546199 </v>
   <v>       0.00273100 </v>
   <v>       0.00546199 </v>
   <v>       0.00546199 </v>
   <v>       0.00546199 </v>
   <v>       0.00546199 </v>
   <v>       0.00546199 </v>
   <v>       0.00546199 </v>
   <v>       0.00546199 </v>
   <v>       0.00273100 </v>
   <v>       0.00546199 </v>
   <v>       0.00546199 </v>
   <v>       0.00546199 </v>
   <v>       0.00546199 </v>
   <v>       0.00546199 </v>
   <v>       0.00546199 </v>
   <v>       0.00273100 </v>
   <v>       0.00546199 </v>
   <v>       0.00546199 </v>
   <v>       0.00546199 </v>
   <v>       0.00546199 </v>
   <v>       0.00273100 </v>
   <v>       0.00546199 </v>
   <v>       0.00546199 </v>
   <v>       0.00546199 </v>
   <v>       0.00273100 </v>
   <v>       0.00546199 </v>
   <v>       0.00546199 </v>
   <v>       0.00273100 </v>
   <v>       0.00546199 </v>
   <v>       0.00273100 </v>
   <v>       0.00091033 </v>
   <v>       0.00273100 </v>
   <v>       0.00273100 </v>
   <v>       0.00273100 </v>
   <v>       0.00273100 </v>
   <v>       0.00273100 </v>
   <v>       0.00273100 </v>
   <v>       0.00273100 </v>
   <v>       0.00273100 </v>
   <v>       0.00273100 </v>
   <v>       0.00273100 </v>
   <v>       0.00546199 </v>
   <v>       0.00546199 </v>
   <v>       0.00546199 </v>
   <v>       0.00546199 </v>
   <v>       0.00546199 </v>
   <v>       0.00546199 </v>
   <v>       0.00546199 </v>
   <v>       0.00546199 </v>
   <v>       0.00273100 </v>
   <v>       0.00546199 </v>
   <v>       0.00546199 </v>
   <v>       0.00546199 </v>
   <v>       0.00546199 </v>
   <v>       0.00546199 </v>
   <v>       0.00546199 </v>
   <v>       0.00546199 </v>
   <v>       0.00273100 </v>
   <v>       0.00546199 </v>
   <v>       0.00546199 </v>
   <v>       0.00546199 </v>
   <v>       0.00546199 </v>
   <v>       0.00546199 </v>
   <v>       0.00546199 </v>
   <v>       0.00273100 </v>
   <v>       0.00546199 </v>
   <v>       0.00546199 </v>
   <v>       0.00546199 </v>
   <v>       0.00546199 </v>
   <v>       0.00546199 </v>
   <v>       0.00273100 </v>
   <v>       0.00546199 </v>
   <v>       0.00546199 </v>
   <v>       0.00546199 </v>
   <v>       0.00273100 </v>
   <v>       0.00546199 </v>
   <v>       0.00546199 </v>
   <v>       0.00273100 </v>
   <v>       0.00546199 </v>
   <v>       0.00273100 </v>
   <v>       0.00091033 </v>
   <v>       0.00273100 </v>
   <v>       0.00273100 </v>
   <v>       0.00273100 </v>
   <v>       0.00273100 </v>
   <v>       0.00273100 </v>
   <v>       0.00273100 </v>
   <v>       0.00273100 </v>
   <v>       0.00273100 </v>
   <v>       0.00546199 </v>
   <v>       0.00546199 </v>
   <v>       0.00546199 </v>
   <v>       0.00546199 </v>
   <v>       0.00546199 </v>
   <v>       0.00546199 </v>
   <v>       0.00273100 </v>
   <v>       0.00546199 </v>
   <v>       0.00546199 </v>
   <v>       0.00546199 </v>
   <v>       0.00546199 </v>
   <v>       0.00546199 </v>
   <v>       0.00273100 </v>
   <v>       0.00546199 </v>
   <v>       0.00546199 </v>
   <v>       0.00546199 </v>
   <v>       0.00546199 </v>
   <v>       0.00273100 </v>
   <v>       0.00546199 </v>
   <v>       0.00546199 </v>
   <v>       0.00273100 </v>
   <v>       0.00546199 </v>
   <v>       0.00273100 </v>
   <v>       0.00091033 </v>
   <v>       0.00273100 </v>
   <v>       0.00273100 </v>
   <v>       0.00273100 </v>
   <v>       0.00273100 </v>
   <v>       0.00273100 </v>
   <v>       0.00273100 </v>
   <v>       0.00546199 </v>
   <v>       0.00546199 </v>
   <v>       0.00546199 </v>
   <v>       0.00546199 </v>
   <v>       0.00273100 </v>
   <v>       0.00546199 </v>
   <v>       0.00546199 </v>
   <v>       0.00546199 </v>
   <v>       0.00273100 </v>
   <v>       0.00546199 </v>
   <v>       0.00273100 </v>
   <v>       0.00091033 </v>
   <v>       0.00273100 </v>
   <v>       0.00273100 </v>
   <v>       0.00273100 </v>
   <v>       0.00273100 </v>
   <v>       0.00546199 </v>
   <v>       0.00546199 </v>
   <v>       0.00273100 </v>
   <v>       0.00091033 </v>
   <v>       0.00273100 </v>
  </varray>
 </kpoints>
 <parameters>
  <separator name="general" >
   <i type="string" name="SYSTEM">routine with relax: pwdword</i>
   <i type="logical" name="LCOMPAT"> F  </i>
  </separator>
  <separator name="electronic" >
   <i type="string" name="PREC">acc</i>
   <i name="ENMAX">    600.00000000</i>
   <i name="ENAUG">    535.51400000</i>
   <i name="EDIFF">      0.00000000</i>
   <i type="int" name="IALGO">    58</i>
   <i type="int" name="IWAVPR">    10</i>
   <i type="int" name="NBANDS">    24</i>
   <i type="int" name="NBANDSLOW">    -1</i>
   <i type="int" name="NBANDSHIGH">    -1</i>
   <i name="NELECT">     40.00000000</i>
   <i type="int" name="TURBO">     0</i>
   <i type="int" name="IRESTART">     0</i>
   <i type="int" name="NREBOOT">     0</i>
   <i type="int" name="NMIN">     0</i>
   <i name="EREF">      0.00000000</i>
   <separator name="electronic smearing" >
    <i type="int" name="ISMEAR">     0</i>
    <i name="SIGMA">      0.02000000</i>
    <i name="KSPACING">      0.50000000</i>
    <i type="logical" name="KGAMMA"> T  </i>
    <i type="logical" name="KBLOWUP"> T  </i>
   </separator>
   <separator name="electronic projectors" >
    <i type="logical" name="LREAL"> F  </i>
    <v name="ROPT">      0.00000000      0.00000000</v>
    <i type="int" name="LMAXPAW">  -100</i>
    <i type="int" name="LMAXMIX">     2</i>
    <i type="logical" name="NLSPLINE"> F  </i>
   </separator>
   <separator name="electronic startup" >
    <i type="int" name="ISTART">     0</i>
    <i type="int" name="ICHARG">     2</i>
    <i type="int" name="INIWAV">     1</i>
   </separator>
   <separator name="electronic spin" >
    <i type="int" name="ISPIN">     1</i>
    <i type="logical" name="LNONCOLLINEAR"> F  </i>
    <v name="MAGMOM">      1.00000000      1.00000000      1.00000000      1.00000000      1.00000000      1.00000000</v>
    <i name="NUPDOWN">     -1.00000000</i>
    <i type="logical" name="LSORBIT"> F  </i>
    <v name="SAXIS">      0.00000000      0.00000000      1.00000000</v>
    <i type="logical" name="LSPIRAL"> F  </i>
    <v name="QSPIRAL">      0.00000000      0.00000000      0.00000000</v>
    <i type="logical" name="LZEROZ"> F  </i>
   </separator>
   <separator name="electronic exchange-correlation" >
    <i type="logical" name="LASPH"> T  </i>
    <i type="logical" name="LMETAGGA"> F  </i>
   </separator>
   <separator name="electronic convergence" >
    <i type="int" name="NELM">   100</i>
    <i type="int" name="NELMDL">    -5</i>
    <i type="int" name="NELMIN">     6</i>
    <i name="ENINI">    600.00000000</i>
    <separator name="electronic convergence detail" >
     <i type="logical" name="LDIAG"> T  </i>
     <i type="logical" name="LSUBROT"> F  </i>
     <i name="WEIMIN">      0.00000000</i>
     <i name="EBREAK">      0.00000000</i>
     <i name="DEPER">      0.30000000</i>
     <i type="int" name="NRMM">     4</i>
     <i name="TIME">      0.40000000</i>
    </separator>
   </separator>
   <separator name="electronic mixer" >
    <i name="AMIX">      0.40000000</i>
    <i name="BMIX">      1.00000000</i>
    <i name="AMIN">      0.10000000</i>
    <i name="AMIX_MAG">      1.60000000</i>
    <i name="BMIX_MAG">      1.00000000</i>
    <separator name="electronic mixer details" >
     <i type="int" name="IMIX">     4</i>
     <i type="logical" name="MIXFIRST"> F  </i>
     <i type="int" name="MAXMIX">   -45</i>
     <i name="WC">    100.00000000</i>
     <i type="int" name="INIMIX">     1</i>
     <i type="int" name="MIXPRE">     1</i>
     <i type="int" name="MREMOVE">     5</i>
    </separator>
   </separator>
   <separator name="electronic dipolcorrection" >
    <i type="logical" name="LDIPOL"> F  </i>
    <i type="logical" name="LMONO"> F  </i>
    <i type="int" name="IDIPOL">     0</i>
    <i name="EPSILON">      1.00000000</i>
    <v name="DIPOL">   -100.00000000   -100.00000000   -100.00000000</v>
    <i name="EFIELD">      0.00000000</i>
   </separator>
  </separator>
  <separator name="grids" >
   <i type="int" name="NGX">    60</i>
   <i type="int" name="NGY">    60</i>
   <i type="int" name="NGZ">    60</i>
   <i type="int" name="NGXF">   120</i>
   <i type="int" name="NGYF">   120</i>
   <i type="int" name="NGZF">   120</i>
   <i type="logical" name="ADDGRID"> T  </i>
  </separator>
  <separator name="ionic" >
   <i type="int" name="NSW">     0</i>
   <i type="int" name="IBRION">    -1</i>
   <i type="int" name="MDALGO">     0</i>
   <i type="int" name="ISIF">    -1</i>
   <i name="PSTRESS">      0.00000000</i>
   <i name="EDIFFG">      0.00000001</i>
   <i type="int" name="NFREE">     0</i>
   <i name="POTIM">      0.50000000</i>
   <i name="SMASS">     -3.00000000</i>
   <i name="SCALEE">      1.00000000</i>
  </separator>
  <separator name="ionic md" >
   <i name="TEBEG">      0.00010000</i>
   <i name="TEEND">      0.00010000</i>
   <i type="int" name="NBLOCK">     1</i>
   <i type="int" name="KBLOCK">     1</i>
   <i type="int" name="NPACO">   256</i>
   <i name="APACO">     16.00000000</i>
  </separator>
  <separator name="symmetry" >
   <i type="int" name="ISYM">     2</i>
   <i name="SYMPREC">      0.00001000</i>
  </separator>
  <separator name="dos" >
   <i type="int" name="LORBIT">     0</i>
   <v name="RWIGS">     -1.00000000     -1.00000000</v>
   <i type="int" name="NEDOS">   301</i>
   <i name="EMIN">     10.00000000</i>
   <i name="EMAX">    -10.00000000</i>
   <i name="EFERMI">      0.00000000</i>
  </separator>
  <separator name="writing" >
   <i type="int" name="NWRITE">     2</i>
   <i type="logical" name="LWAVE"> T  </i>
   <i type="logical" name="LDOWNSAMPLE"> F  </i>
   <i type="logical" name="LCHARG"> T  </i>
   <i type="logical" name="LPARD"> F  </i>
   <i type="logical" name="LVTOT"> F  </i>
   <i type="logical" name="LVHAR"> F  </i>
   <i type="logical" name="LELF"> F  </i>
   <i type="logical" name="LOPTICS"> F  </i>
   <v name="STM">      0.00000000      0.00000000      0.00000000      0.00000000      0.00000000      0.00000000      0.00000000</v>
  </separator>
  <separator name="performance" >
   <i type="int" name="NPAR">     6</i>
   <i type="int" name="NSIM">     4</i>
   <i type="int" name="NBLK">    -1</i>
   <i type="logical" name="LPLANE"> T  </i>
   <i type="logical" name="LSCALAPACK"> T  </i>
   <i type="logical" name="LSCAAWARE"> F  </i>
   <i type="logical" name="LSCALU"> F  </i>
   <i type="logical" name="LASYNC"> F  </i>
   <i type="logical" name="LORBITALREAL"> F  </i>
  </separator>
  <separator name="miscellaneous" >
   <i type="int" name="IDIOT">     3</i>
   <i type="int" name="PHON_NSTRUCT">    -1</i>
   <i type="logical" name="LMUSIC"> F  </i>
   <v name="POMASS">     10.81100000     95.94000000</v>
   <v name="DARWINR">      0.00000000      0.00000000</v>
   <v name="DARWINV">      1.00000000      1.00000000</v>
   <i type="logical" name="LCORR"> T  </i>
  </separator>
  <i type="logical" name="GGA_COMPAT"> T  </i>
  <i type="logical" name="LBERRY"> F  </i>
  <i type="int" name="ICORELEVEL">     0</i>
  <i type="logical" name="LDAU"> F  </i>
  <i type="int" name="I_CONSTRAINED_M">     0</i>
  <separator name="electronic exchange-correlation" >
   <i type="string" name="GGA">--</i>
   <i type="int" name="VOSKOWN">     0</i>
   <i type="logical" name="LHFCALC"> F  </i>
   <i type="string" name="PRECFOCK"></i>
   <i type="logical" name="LSYMGRAD"> F  </i>
   <i type="logical" name="LHFONE"> F  </i>
   <i type="logical" name="LRHFCALC"> F  </i>
   <i type="logical" name="LTHOMAS"> F  </i>
   <i type="logical" name="LMODELHF"> F  </i>
   <i type="logical" name="LFOCKACE"> F  </i>
   <i name="ENCUT4O">     -1.00000000</i>
   <i type="int" name="EXXOEP">     0</i>
   <i type="int" name="FOURORBIT">     0</i>
   <i name="AEXX">      0.00000000</i>
   <i name="HFALPHA">      0.00000000</i>
   <i name="MCALPHA">      0.00000000</i>
   <i name="ALDAX">      1.00000000</i>
   <i name="AGGAX">      1.00000000</i>
   <i name="ALDAC">      1.00000000</i>
   <i name="AGGAC">      1.00000000</i>
   <i type="int" name="NKREDX">     1</i>
   <i type="int" name="NKREDY">     1</i>
   <i type="int" name="NKREDZ">     1</i>
   <i type="logical" name="SHIFTRED"> F  </i>
   <i type="logical" name="ODDONLY"> F  </i>
   <i type="logical" name="EVENONLY"> F  </i>
   <i type="int" name="LMAXFOCK">     0</i>
   <i type="int" name="NMAXFOCKAE">     0</i>
   <i type="logical" name="LFOCKAEDFT"> F  </i>
   <i name="HFSCREEN">      0.00000000</i>
   <i name="HFSCREENC">      0.00000000</i>
   <i type="int" name="NBANDSGWLOW">     0</i>
  </separator>
  <separator name="vdW DFT" >
   <i type="logical" name="LUSE_VDW"> F  </i>
   <i name="Zab_VDW">     -0.84910000</i>
   <i name="PARAM1">      0.12340000</i>
   <i name="PARAM2">      1.00000000</i>
   <i name="PARAM3">      0.00000000</i>
  </separator>
  <separator name="model GW" >
   <i type="int" name="MODEL_GW">     0</i>
   <i name="MODEL_EPS0">      5.47780805</i>
   <i name="MODEL_ALPHA">      1.00000000</i>
  </separator>
  <separator name="linear response parameters" >
   <i type="logical" name="LEPSILON"> F  </i>
   <i type="logical" name="LRPA"> F  </i>
   <i type="logical" name="LNABLA"> F  </i>
   <i type="logical" name="LVEL"> F  </i>
   <i type="int" name="KINTER">     0</i>
   <i name="CSHIFT">      0.10000000</i>
   <i name="OMEGAMAX">     -1.00000000</i>
   <i name="DEG_THRESHOLD">      0.00200000</i>
   <i name="RTIME">     -0.10000000</i>
   <i name="WPLASMAI">      0.00000000</i>
   <v name="DFIELD">      0.00000000      0.00000000      0.00000000</v>
   <v name="WPLASMA">      0.00000000      0.00000000      0.00000000      0.00000000      0.00000000      0.00000000      0.00000000      0.00000000      0.00000000</v>
  </separator>
  <separator name="orbital magnetization" >
   <i type="logical" name="NUCIND"> F  </i>
   <v name="MAGPOS">      0.00000000      0.00000000      0.00000000</v>
   <i type="logical" name="LNICSALL"> T  </i>
   <i type="logical" name="ORBITALMAG"> F  </i>
   <i type="logical" name="LMAGBLOCH"> F  </i>
   <i type="logical" name="LCHIMAG"> F  </i>
   <i type="logical" name="LGAUGE"> T  </i>
   <i type="int" name="MAGATOM">     0</i>
   <v name="MAGDIPOL">      0.00000000      0.00000000      0.00000000</v>
   <v name="AVECCONST">      0.00000000      0.00000000      0.00000000</v>
  </separator>
  <separator name="response functions" >
   <i type="logical" name="LFINITE_TEMPERATURE"> F  </i>
   <i type="logical" name="LADDER"> F  </i>
   <i type="logical" name="LRPAFORCE"> F  </i>
   <i type="logical" name="LFXC"> F  </i>
   <i type="logical" name="LHARTREE"> T  </i>
   <i type="int" name="IBSE">     0</i>
   <v type="int" name="KPOINT">    -1     0     0     0</v>
   <i type="logical" name="LTCTC"> F  </i>
   <i type="logical" name="LTCTE"> F  </i>
   <i type="logical" name="LTETE"> F  </i>
   <i type="logical" name="LTRIPLET"> F  </i>
   <i type="logical" name="LFXCEPS"> F  </i>
   <i type="logical" name="LFXHEG"> F  </i>
   <i type="int" name="NATURALO">     2</i>
   <i type="logical" name="LHOLEGF"> F  </i>
   <i type="logical" name="L2ORDER"> F  </i>
   <i type="logical" name="LDMP1"> F  </i>
   <i type="logical" name="LMP2LT"> F  </i>
   <i type="logical" name="LSMP2LT"> F  </i>
   <i type="logical" name="LGWLF"> F  </i>
   <i name="ENCUTGW">     -2.00000000</i>
   <i name="ENCUTGWSOFT">     -2.00000000</i>
   <i name="ENCUTLF">     -1.00000000</i>
   <i type="logical" name="LESF_SPLINES"> F  </i>
   <i type="int" name="LMAXMP2">    -1</i>
   <i name="SCISSOR">      0.00000000</i>
   <i type="int" name="NOMEGA">     0</i>
   <i type="int" name="NOMEGAR">     0</i>
   <i type="int" name="NBANDSGW">    -1</i>
   <i type="int" name="NBANDSO">    -1</i>
   <i type="int" name="NBANDSV">    -1</i>
   <i type="int" name="NELM">   100</i>
   <i type="int" name="NELMHF">     1</i>
   <i type="int" name="DIM">     3</i>
   <i type="int" name="IESPILON">     4</i>
   <i type="int" name="ANTIRES">     0</i>
   <i name="OMEGAMAX">    -30.00000000</i>
   <i name="OMEGAMIN">    -30.00000000</i>
   <i name="OMEGATL">   -200.00000000</i>
   <i type="int" name="OMEGAGRID">     0</i>
   <i name="CSHIFT">     -0.10000000</i>
   <i type="logical" name="LSELFENERGY"> F  </i>
   <i type="logical" name="LSPECTRAL"> F  </i>
   <i type="logical" name="LSPECTRALGW"> F  </i>
   <i type="logical" name="LSINGLES"> F  </i>
   <i type="logical" name="LFERMIGW"> F  </i>
   <i type="logical" name="ODDONLYGW"> F  </i>
   <i type="logical" name="EVENONLYGW"> F  </i>
   <i type="int" name="NKREDLFX">     1</i>
   <i type="int" name="NKREDLFY">     1</i>
   <i type="int" name="NKREDLFZ">     1</i>
   <i type="int" name="MAXMEM">  2800</i>
   <i type="int" name="TELESCOPE">     0</i>
   <i type="int" name="NTAUPAR">    -1</i>
   <i type="int" name="NOMEGAPAR">    -1</i>
   <i name="DAMP_NEWTON">      0.80000001</i>
   <i name="LAMBDA">      1.00000000</i>
  </separator>
  <separator name="External order field" >
   <i name="OFIELD_KAPPA">      0.00000000</i>
   <v name="OFIELD_K">      0.00000000      0.00000000      0.00000000</v>
   <i name="OFIELD_Q6_NEAR">      0.00000000</i>
   <i name="OFIELD_Q6_FAR">      0.00000000</i>
   <i name="OFIELD_A">      0.00000000</i>
  </separator>
 </parameters>
 <atominfo>
  <atoms>       6 </atoms>
  <types>       2 </types>
  <array name="atoms" >
   <dimension dim="1">ion</dimension>
   <field type="string">element</field>
   <field type="int">atomtype</field>
   <set>
    <rc><c>B </c><c>   1</c></rc>
    <rc><c>B </c><c>   1</c></rc>
    <rc><c>B </c><c>   1</c></rc>
    <rc><c>B </c><c>   1</c></rc>
    <rc><c>Mo</c><c>   2</c></rc>
    <rc><c>Mo</c><c>   2</c></rc>
   </set>
  </array>
  <array name="atomtypes" >
   <dimension dim="1">type</dimension>
   <field type="int">atomspertype</field>
   <field type="string">element</field>
   <field>mass</field>
   <field>valence</field>
   <field type="string">pseudopotential</field>
   <set>
    <rc><c>   4</c><c>B </c><c>     10.81100000</c><c>      3.00000000</c><c>  PAW_PBE B 06Sep2000                   </c></rc>
    <rc><c>   2</c><c>Mo</c><c>     95.94000000</c><c>     14.00000000</c><c>  PAW_PBE Mo_sv 02Feb2006               </c></rc>
   </set>
  </array>
 </atominfo>
 <structure name="initialpos" >
  <crystal>
   <varray name="basis" >
    <v>       2.94284020      -0.00303544       6.54214232 </v>
    <v>       1.40124907       2.58782000       6.54214232 </v>
    <v>      -0.00509999      -0.00303544       7.17355649 </v>
   </varray>
   <i name="volume">     54.77808054 </i>
   <varray name="rec_basis" >
    <v>       0.33925488      -0.18411204       0.00016329 </v>
    <v>       0.00003499       0.38599372       0.00016336 </v>
    <v>      -0.30942568      -0.18411212       0.13910298 </v>
   </varray>
  </crystal>
  <varray name="positions" >
   <v>       0.81833097       0.81833097       0.81833097 </v>
   <v>       0.18166903       0.18166903       0.18166903 </v>
   <v>       0.33210285       0.33210285       0.33210285 </v>
   <v>       0.66789715       0.66789715       0.66789715 </v>
   <v>       0.92434714       0.92434714       0.92434714 </v>
   <v>       0.07565286       0.07565286       0.07565286 </v>
  </varray>
 </structure>
 <calculation>
  <scstep>
   <time name="total">   26.60   26.86</time>
   <energy>
    <i name="alphaZ">    259.22285155 </i>
    <i name="ewald">  -3447.41154564 </i>
    <i name="hartreedc">   -775.08619927 </i>
    <i name="XCdc">    189.88145762 </i>
    <i name="pawpsdc">   3139.30912006 </i>
    <i name="pawaedc">  -3134.42653113 </i>
    <i name="eentropy">     -0.00020681 </i>
    <i name="bandstr">     82.83976076 </i>
    <i name="atom">   4009.24344455 </i>
    <i name="e_fr_energy">    323.57215169 </i>
    <i name="e_wo_entrp">    323.57235849 </i>
    <i name="e_0_energy">    323.57225509 </i>
   </energy>
  </scstep>
  <scstep>
   <time name="total">   29.14   29.45</time>
   <energy>
    <i name="e_fr_energy">    -92.43761165 </i>
    <i name="e_wo_entrp">    -92.43723486 </i>
    <i name="e_0_energy">    -92.43742326 </i>
   </energy>
  </scstep>
  <scstep>
   <time name="total">   30.84   31.14</time>
   <energy>
    <i name="e_fr_energy">   -103.17544307 </i>
    <i name="e_wo_entrp">   -103.17506852 </i>
    <i name="e_0_energy">   -103.17525580 </i>
   </energy>
  </scstep>
  <scstep>
   <time name="total">   27.37   27.65</time>
   <energy>
    <i name="e_fr_energy">   -103.22382301 </i>
    <i name="e_wo_entrp">   -103.22341291 </i>
    <i name="e_0_energy">   -103.22361796 </i>
   </energy>
  </scstep>
  <scstep>
   <time name="total">   34.69   35.04</time>
   <energy>
    <i name="e_fr_energy">   -103.22456527 </i>
    <i name="e_wo_entrp">   -103.22414843 </i>
    <i name="e_0_energy">   -103.22435685 </i>
   </energy>
  </scstep>
  <scstep>
   <time name="total">   34.94   35.29</time>
   <energy>
    <i name="e_fr_energy">    -68.13711474 </i>
    <i name="e_wo_entrp">    -68.13654503 </i>
    <i name="e_0_energy">    -68.13682988 </i>
   </energy>
  </scstep>
  <scstep>
   <time name="total">   35.18   35.53</time>
   <energy>
    <i name="e_fr_energy">    -80.55056945 </i>
    <i name="e_wo_entrp">    -80.55033514 </i>
    <i name="e_0_energy">    -80.55045230 </i>
   </energy>
  </scstep>
  <scstep>
   <time name="total">   34.98   35.34</time>
   <energy>
    <i name="e_fr_energy">    -83.07201630 </i>
    <i name="e_wo_entrp">    -83.07178492 </i>
    <i name="e_0_energy">    -83.07190061 </i>
   </energy>
  </scstep>
  <scstep>
   <time name="total">   35.22   35.59</time>
   <energy>
    <i name="e_fr_energy">    -83.84430090 </i>
    <i name="e_wo_entrp">    -83.84401189 </i>
    <i name="e_0_energy">    -83.84415640 </i>
   </energy>
  </scstep>
  <scstep>
   <time name="total">   34.00   34.36</time>
   <energy>
    <i name="e_fr_energy">    -84.08106987 </i>
    <i name="e_wo_entrp">    -84.08076167 </i>
    <i name="e_0_energy">    -84.08091577 </i>
   </energy>
  </scstep>
  <scstep>
   <time name="total">   33.06   33.44</time>
   <energy>
    <i name="e_fr_energy">    -84.14856696 </i>
    <i name="e_wo_entrp">    -84.14825963 </i>
    <i name="e_0_energy">    -84.14841329 </i>
   </energy>
  </scstep>
  <scstep>
   <time name="total">   33.01   33.38</time>
   <energy>
    <i name="e_fr_energy">    -84.17369195 </i>
    <i name="e_wo_entrp">    -84.17335232 </i>
    <i name="e_0_energy">    -84.17352213 </i>
   </energy>
  </scstep>
  <scstep>
   <time name="total">   33.88   34.27</time>
   <energy>
    <i name="e_fr_energy">    -84.18475018 </i>
    <i name="e_wo_entrp">    -84.18437502 </i>
    <i name="e_0_energy">    -84.18456260 </i>
   </energy>
  </scstep>
  <scstep>
   <time name="total">   34.20   34.56</time>
   <energy>
    <i name="e_fr_energy">    -84.19084180 </i>
    <i name="e_wo_entrp">    -84.19043470 </i>
    <i name="e_0_energy">    -84.19063825 </i>
   </energy>
  </scstep>
  <scstep>
   <time name="total">   33.67   34.03</time>
   <energy>
    <i name="e_fr_energy">    -84.19437952 </i>
    <i name="e_wo_entrp">    -84.19397429 </i>
    <i name="e_0_energy">    -84.19417691 </i>
   </energy>
  </scstep>
  <scstep>
   <time name="total">   33.66   34.04</time>
   <energy>
    <i name="e_fr_energy">    -84.19566230 </i>
    <i name="e_wo_entrp">    -84.19525417 </i>
    <i name="e_0_energy">    -84.19545824 </i>
   </energy>
  </scstep>
  <scstep>
   <time name="total">   33.57   33.92</time>
   <energy>
    <i name="e_fr_energy">    -84.19618574 </i>
    <i name="e_wo_entrp">    -84.19576690 </i>
    <i name="e_0_energy">    -84.19597632 </i>
   </energy>
  </scstep>
  <scstep>
   <time name="total">   33.44   33.81</time>
   <energy>
    <i name="e_fr_energy">    -84.19643767 </i>
    <i name="e_wo_entrp">    -84.19601067 </i>
    <i name="e_0_energy">    -84.19622417 </i>
   </energy>
  </scstep>
  <scstep>
   <time name="total">   33.53   33.90</time>
   <energy>
    <i name="e_fr_energy">    -84.19653769 </i>
    <i name="e_wo_entrp">    -84.19611183 </i>
    <i name="e_0_energy">    -84.19632476 </i>
   </energy>
  </scstep>
  <scstep>
   <time name="total">   33.30   33.66</time>
   <energy>
    <i name="e_fr_energy">    -84.19657410 </i>
    <i name="e_wo_entrp">    -84.19615115 </i>
    <i name="e_0_energy">    -84.19636262 </i>
   </energy>
  </scstep>
  <scstep>
   <time name="total">   33.65   34.01</time>
   <energy>
    <i name="e_fr_energy">    -84.19659242 </i>
    <i name="e_wo_entrp">    -84.19617359 </i>
    <i name="e_0_energy">    -84.19638301 </i>
   </energy>
  </scstep>
  <scstep>
   <time name="total">   33.33   33.70</time>
   <energy>
    <i name="e_fr_energy">    -84.19660300 </i>
    <i name="e_wo_entrp">    -84.19618763 </i>
    <i name="e_0_energy">    -84.19639532 </i>
   </energy>
  </scstep>
  <scstep>
   <time name="total">   33.19   33.55</time>
   <energy>
    <i name="e_fr_energy">    -84.19660765 </i>
    <i name="e_wo_entrp">    -84.19619397 </i>
    <i name="e_0_energy">    -84.19640081 </i>
   </energy>
  </scstep>
  <scstep>
   <time name="total">   33.27   33.63</time>
   <energy>
    <i name="e_fr_energy">    -84.19660955 </i>
    <i name="e_wo_entrp">    -84.19619654 </i>
    <i name="e_0_energy">    -84.19640305 </i>
   </energy>
  </scstep>
  <scstep>
   <time name="total">   33.49   33.86</time>
   <energy>
    <i name="e_fr_energy">    -84.19661052 </i>
    <i name="e_wo_entrp">    -84.19619752 </i>
    <i name="e_0_energy">    -84.19640402 </i>
   </energy>
  </scstep>
  <scstep>
   <time name="total">   33.44   33.80</time>
   <energy>
    <i name="e_fr_energy">    -84.19661094 </i>
    <i name="e_wo_entrp">    -84.19619762 </i>
    <i name="e_0_energy">    -84.19640428 </i>
   </energy>
  </scstep>
  <scstep>
   <time name="total">   33.61   33.98</time>
   <energy>
    <i name="e_fr_energy">    -84.19661118 </i>
    <i name="e_wo_entrp">    -84.19619681 </i>
    <i name="e_0_energy">    -84.19640400 </i>
   </energy>
  </scstep>
  <scstep>
   <time name="total">   32.43   32.79</time>
   <energy>
    <i name="e_fr_energy">    -84.19661124 </i>
    <i name="e_wo_entrp">    -84.19619687 </i>
    <i name="e_0_energy">    -84.19640405 </i>
   </energy>
  </scstep>
  <scstep>
   <time name="total">   31.76   32.10</time>
   <energy>
    <i name="e_fr_energy">    -84.19661138 </i>
    <i name="e_wo_entrp">    -84.19619703 </i>
    <i name="e_0_energy">    -84.19640421 </i>
   </energy>
  </scstep>
  <scstep>
   <time name="total">   31.62   31.96</time>
   <energy>
    <i name="e_fr_energy">    -84.19661143 </i>
    <i name="e_wo_entrp">    -84.19619709 </i>
    <i name="e_0_energy">    -84.19640426 </i>
   </energy>
  </scstep>
  <scstep>
   <time name="total">   31.50   31.84</time>
   <energy>
    <i name="e_fr_energy">    -84.19661145 </i>
    <i name="e_wo_entrp">    -84.19619710 </i>
    <i name="e_0_energy">    -84.19640428 </i>
   </energy>
  </scstep>
  <scstep>
   <time name="total">   31.74   32.07</time>
   <energy>
    <i name="e_fr_energy">    -84.19661146 </i>
    <i name="e_wo_entrp">    -84.19619712 </i>
    <i name="e_0_energy">    -84.19640429 </i>
   </energy>
  </scstep>
  <scstep>
   <time name="total">   31.71   32.05</time>
   <energy>
    <i name="e_fr_energy">    -84.19661147 </i>
    <i name="e_wo_entrp">    -84.19619713 </i>
    <i name="e_0_energy">    -84.19640430 </i>
   </energy>
  </scstep>
  <scstep>
   <time name="total">   36.63   37.04</time>
   <energy>
    <i name="alphaZ">    259.22285155 </i>
    <i name="ewald">  -3447.41154564 </i>
    <i name="hartreedc">   -711.61461278 </i>
    <i name="XCdc">    193.25357799 </i>
    <i name="pawpsdc">   4803.35272574 </i>
    <i name="pawaedc">  -4805.96663726 </i>
    <i name="eentropy">     -0.00041434 </i>
    <i name="bandstr">   -384.27600127 </i>
    <i name="atom">   4009.24344455 </i>
    <i name="e_fr_energy">    -84.19661147 </i>
    <i name="e_wo_entrp">    -84.19619713 </i>
    <i name="e_0_energy">    -84.19640430 </i>
   </energy>
  </scstep>
  <structure>
   <crystal>
    <varray name="basis" >
     <v>       2.94284020      -0.00303544       6.54214232 </v>
     <v>       1.40124907       2.58782000       6.54214232 </v>
     <v>      -0.00509999      -0.00303544       7.17355649 </v>
    </varray>
    <i name="volume">     54.77808054 </i>
    <varray name="rec_basis" >
     <v>       0.33925488      -0.18411204       0.00016329 </v>
     <v>       0.00003499       0.38599372       0.00016336 </v>
     <v>      -0.30942568      -0.18411212       0.13910298 </v>
    </varray>
   </crystal>
   <varray name="positions" >
    <v>       0.81833097       0.81833097       0.81833097 </v>
    <v>       0.18166903       0.18166903       0.18166903 </v>
    <v>       0.33210285       0.33210285       0.33210285 </v>
    <v>       0.66789715       0.66789715       0.66789715 </v>
    <v>       0.92434714       0.92434714       0.92434714 </v>
    <v>       0.07565286       0.07565286       0.07565286 </v>
   </varray>
  </structure>
  <varray name="forces" >
   <v>       0.00000000       0.00000000       0.00000000 </v>
   <v>       0.00000000       0.00000000       0.00000000 </v>
   <v>       0.00000000       0.00000000       0.00000000 </v>
   <v>       0.00000000       0.00000000       0.00000000 </v>
   <v>       0.00000000       0.00000000       0.00000000 </v>
   <v>       0.00000000       0.00000000       0.00000000 </v>
  </varray>
  <varray name="stress" >
   <v>       0.00000000       0.00000000       0.00000000 </v>
   <v>       0.00000000       0.00000000       0.00000000 </v>
   <v>       0.00000000       0.00000000       0.00000000 </v>
  </varray>
  <energy>
   <i name="e_fr_energy">    -84.19661147 </i>
   <i name="e_wo_entrp">    -84.19619713 </i>
   <i name="e_0_energy">    -84.19640430 </i>
  </energy>
  <time name="totalsc"> 1122.44 1134.52</time>
  <eigenvalues>
   <array>
    <dimension dim="1">band</dimension>
    <dimension dim="2">kpoint</dimension>
    <dimension dim="3">spin</dimension>
    <field>eigene</field>
    <field>occ</field>
    <set>
     <set comment="spin 1">
      <set comment="kpoint 1">
       <r>  -52.1511    1.0000 </r>
       <r>  -52.1369    1.0000 </r>
       <r>  -25.8458    1.0000 </r>
       <r>  -25.6252    1.0000 </r>
       <r>  -25.2072    1.0000 </r>
       <r>  -25.2072    1.0000 </r>
       <r>  -25.1915    1.0000 </r>
       <r>  -25.1915    1.0000 </r>
       <r>   -3.7961    1.0000 </r>
       <r>   -1.0257    1.0000 </r>
       <r>    2.3113    1.0000 </r>
       <r>    6.0393    1.0000 </r>
       <r>    6.9948    1.0000 </r>
       <r>    6.9948    1.0000 </r>
       <r>    7.6000    1.0000 </r>
       <r>    9.4442    1.0000 </r>
       <r>    9.4442    1.0000 </r>
       <r>    9.7426    1.0000 </r>
       <r>    9.7426    1.0000 </r>
       <r>    9.7923    1.0000 </r>
       <r>    9.7923    1.0000 </r>
       <r>   10.2479    1.0000 </r>
       <r>   12.7517    0.0000 </r>
       <r>   12.7517    0.0000 </r>
      </set>
      <set comment="kpoint 2">
       <r>  -52.1465    1.0000 </r>
       <r>  -52.1323    1.0000 </r>
       <r>  -25.8376    1.0000 </r>
       <r>  -25.6192    1.0000 </r>
       <r>  -25.2466    1.0000 </r>
       <r>  -25.2297    1.0000 </r>
       <r>  -25.2162    1.0000 </r>
       <r>  -25.2001    1.0000 </r>
       <r>   -3.6806    1.0000 </r>
       <r>   -0.9702    1.0000 </r>
       <r>    2.4962    1.0000 </r>
       <r>    6.1489    1.0000 </r>
       <r>    6.5610    1.0000 </r>
       <r>    6.8927    1.0000 </r>
       <r>    7.4789    1.0000 </r>
       <r>    8.8748    1.0000 </r>
       <r>    9.1793    1.0000 </r>
       <r>    9.2469    1.0000 </r>
       <r>    9.6175    1.0000 </r>
       <r>    9.7744    1.0000 </r>
       <r>   10.1479    1.0000 </r>
       <r>   11.0063    1.0000 </r>
       <r>   12.8977    0.0000 </r>
       <r>   13.0041    0.0000 </r>
      </set>
      <set comment="kpoint 3">
       <r>  -52.1334    1.0000 </r>
       <r>  -52.1195    1.0000 </r>
       <r>  -25.8149    1.0000 </r>
       <r>  -25.6026    1.0000 </r>
       <r>  -25.3546    1.0000 </r>
       <r>  -25.3345    1.0000 </r>
       <r>  -25.2409    1.0000 </r>
       <r>  -25.2241    1.0000 </r>
       <r>   -3.3467    1.0000 </r>
       <r>   -0.7978    1.0000 </r>
       <r>    3.0128    1.0000 </r>
       <r>    5.5713    1.0000 </r>
       <r>    6.4175    1.0000 </r>
       <r>    6.5597    1.0000 </r>
       <r>    6.9448    1.0000 </r>
       <r>    8.1275    1.0000 </r>
       <r>    8.5946    1.0000 </r>
       <r>    8.8717    1.0000 </r>
       <r>    9.4321    1.0000 </r>
       <r>    9.9841    1.0000 </r>
       <r>   10.4269    1.0000 </r>
       <r>   11.7642    0.0000 </r>
       <r>   13.1420    0.0000 </r>
       <r>   13.6003    0.0000 </r>
      </set>
      <set comment="kpoint 4">
       <r>  -52.1150    1.0000 </r>
       <r>  -52.1013    1.0000 </r>
       <r>  -25.7829    1.0000 </r>
       <r>  -25.5796    1.0000 </r>
       <r>  -25.5043    1.0000 </r>
       <r>  -25.4796    1.0000 </r>
       <r>  -25.2755    1.0000 </r>
       <r>  -25.2577    1.0000 </r>
       <r>   -2.8290    1.0000 </r>
       <r>   -0.4972    1.0000 </r>
       <r>    3.7371    1.0000 </r>
       <r>    4.3838    1.0000 </r>
       <r>    6.0579    1.0000 </r>
       <r>    6.0741    1.0000 </r>
       <r>    6.7270    1.0000 </r>
       <r>    7.4714    1.0000 </r>
       <r>    8.1198    1.0000 </r>
       <r>    8.5297    1.0000 </r>
       <r>    9.0866    1.0000 </r>
       <r>   10.5157    1.0000 </r>
       <r>   10.9681    1.0000 </r>
       <r>   12.1421    0.0000 </r>
       <r>   13.2580    0.0000 </r>
       <r>   14.4387    0.0000 </r>
      </set>
      <set comment="kpoint 5">
       <r>  -52.0954    1.0000 </r>
       <r>  -52.0819    1.0000 </r>
       <r>  -25.7499    1.0000 </r>
       <r>  -25.6589    1.0000 </r>
       <r>  -25.6332    1.0000 </r>
       <r>  -25.5525    1.0000 </r>
       <r>  -25.3120    1.0000 </r>
       <r>  -25.2931    1.0000 </r>
       <r>   -2.1774    1.0000 </r>
       <r>   -0.0752    1.0000 </r>
       <r>    3.2325    1.0000 </r>
       <r>    4.4346    1.0000 </r>
       <r>    5.1242    1.0000 </r>
       <r>    5.6028    1.0000 </r>
       <r>    6.7037    1.0000 </r>
       <r>    6.8079    1.0000 </r>
       <r>    8.0468    1.0000 </r>
       <r>    8.1709    1.0000 </r>
       <r>    8.9569    1.0000 </r>
       <r>   11.2371    0.0182 </r>
       <r>   11.7743    0.0000 </r>
       <r>   12.4318    0.0000 </r>
       <r>   13.4120    0.0000 </r>
       <r>   14.8314    0.0000 </r>
      </set>
      <set comment="kpoint 6">
       <r>  -52.0791    1.0000 </r>
       <r>  -52.0658    1.0000 </r>
       <r>  -25.7907    1.0000 </r>
       <r>  -25.7570    1.0000 </r>
       <r>  -25.7156    1.0000 </r>
       <r>  -25.5323    1.0000 </r>
       <r>  -25.3420    1.0000 </r>
       <r>  -25.3223    1.0000 </r>
       <r>   -1.4523    1.0000 </r>
       <r>    0.3453    1.0000 </r>
       <r>    2.3602    1.0000 </r>
       <r>    4.1206    1.0000 </r>
       <r>    4.8421    1.0000 </r>
       <r>    5.2513    1.0000 </r>
       <r>    6.2780    1.0000 </r>
       <r>    6.5168    1.0000 </r>
       <r>    7.8763    1.0000 </r>
       <r>    8.3352    1.0000 </r>
       <r>    9.0426    1.0000 </r>
       <r>   12.0880    0.0000 </r>
       <r>   12.6244    0.0000 </r>
       <r>   12.8529    0.0000 </r>
       <r>   13.6581    0.0000 </r>
       <r>   15.1401    0.0000 </r>
      </set>
      <set comment="kpoint 7">
       <r>  -52.0698    1.0000 </r>
       <r>  -52.0567    1.0000 </r>
       <r>  -25.8601    1.0000 </r>
       <r>  -25.8256    1.0000 </r>
       <r>  -25.7009    1.0000 </r>
       <r>  -25.5206    1.0000 </r>
       <r>  -25.3589    1.0000 </r>
       <r>  -25.3388    1.0000 </r>
       <r>   -0.7713    1.0000 </r>
       <r>    0.3091    1.0000 </r>
       <r>    2.2930    1.0000 </r>
       <r>    3.1521    1.0000 </r>
       <r>    4.9631    1.0000 </r>
       <r>    5.0668    1.0000 </r>
       <r>    5.9986    1.0000 </r>
       <r>    6.3879    1.0000 </r>
       <r>    7.7141    1.0000 </r>
       <r>    8.5749    1.0000 </r>
       <r>    9.2576    1.0000 </r>
       <r>   12.9095    0.0000 </r>
       <r>   13.0738    0.0000 </r>
       <r>   13.2521    0.0000 </r>
       <r>   13.8250    0.0000 </r>
       <r>   14.0488    0.0000 </r>
      </set>
      <set comment="kpoint 8">
       <r>  -52.1464    1.0000 </r>
       <r>  -52.1323    1.0000 </r>
       <r>  -25.8372    1.0000 </r>
       <r>  -25.6196    1.0000 </r>
       <r>  -25.2465    1.0000 </r>
       <r>  -25.2298    1.0000 </r>
       <r>  -25.2163    1.0000 </r>
       <r>  -25.2000    1.0000 </r>
       <r>   -3.6761    1.0000 </r>
       <r>   -0.9834    1.0000 </r>
       <r>    2.5142    1.0000 </r>
       <r>    6.1294    1.0000 </r>
       <r>    6.5451    1.0000 </r>
       <r>    6.9055    1.0000 </r>
       <r>    7.5120    1.0000 </r>
       <r>    8.8865    1.0000 </r>
       <r>    9.0880    1.0000 </r>
       <r>    9.2273    1.0000 </r>
       <r>    9.6105    1.0000 </r>
       <r>    9.7417    1.0000 </r>
       <r>   10.3649    1.0000 </r>
       <r>   10.9260    1.0000 </r>
       <r>   12.8540    0.0000 </r>
       <r>   13.0452    0.0000 </r>
      </set>
      <set comment="kpoint 9">
       <r>  -52.1376    1.0000 </r>
       <r>  -52.1236    1.0000 </r>
       <r>  -25.8214    1.0000 </r>
       <r>  -25.6087    1.0000 </r>
       <r>  -25.3185    1.0000 </r>
       <r>  -25.2996    1.0000 </r>
       <r>  -25.2349    1.0000 </r>
       <r>  -25.2180    1.0000 </r>
       <r>   -3.4476    1.0000 </r>
       <r>   -0.8780    1.0000 </r>
       <r>    2.8796    1.0000 </r>
       <r>    5.8833    1.0000 </r>
       <r>    6.2967    1.0000 </r>
       <r>    6.6015    1.0000 </r>
       <r>    7.2366    1.0000 </r>
       <r>    8.3484    1.0000 </r>
       <r>    8.5811    1.0000 </r>
       <r>    8.9620    1.0000 </r>
       <r>    9.6737    1.0000 </r>
       <r>    9.8681    1.0000 </r>
       <r>   10.2923    1.0000 </r>
       <r>   11.6351    0.0000 </r>
       <r>   13.1242    0.0000 </r>
       <r>   13.4019    0.0000 </r>
      </set>
      <set comment="kpoint 10">
       <r>  -52.1219    1.0000 </r>
       <r>  -52.1081    1.0000 </r>
       <r>  -25.7938    1.0000 </r>
       <r>  -25.5891    1.0000 </r>
       <r>  -25.4428    1.0000 </r>
       <r>  -25.4201    1.0000 </r>
       <r>  -25.2691    1.0000 </r>
       <r>  -25.2513    1.0000 </r>
       <r>   -3.0200    1.0000 </r>
       <r>   -0.6389    1.0000 </r>
       <r>    3.5119    1.0000 </r>
       <r>    4.8759    1.0000 </r>
       <r>    6.0153    1.0000 </r>
       <r>    6.3509    1.0000 </r>
       <r>    6.8601    1.0000 </r>
       <r>    7.7858    1.0000 </r>
       <r>    8.0517    1.0000 </r>
       <r>    8.6306    1.0000 </r>
       <r>    9.3986    1.0000 </r>
       <r>   10.1147    1.0000 </r>
       <r>   10.6632    1.0000 </r>
       <r>   12.1944    0.0000 </r>
       <r>   13.3242    0.0000 </r>
       <r>   13.8999    0.0000 </r>
      </set>
      <set comment="kpoint 11">
       <r>  -52.1028    1.0000 </r>
       <r>  -52.0893    1.0000 </r>
       <r>  -25.7609    1.0000 </r>
       <r>  -25.5896    1.0000 </r>
       <r>  -25.5726    1.0000 </r>
       <r>  -25.5552    1.0000 </r>
       <r>  -25.3102    1.0000 </r>
       <r>  -25.2914    1.0000 </r>
       <r>   -2.4365    1.0000 </r>
       <r>   -0.2569    1.0000 </r>
       <r>    3.7273    1.0000 </r>
       <r>    4.2372    1.0000 </r>
       <r>    5.4453    1.0000 </r>
       <r>    5.7149    1.0000 </r>
       <r>    6.8344    1.0000 </r>
       <r>    7.1525    1.0000 </r>
       <r>    7.8139    1.0000 </r>
       <r>    8.2411    1.0000 </r>
       <r>    9.0534    1.0000 </r>
       <r>   10.6564    1.0000 </r>
       <r>   11.3944    0.0000 </r>
       <r>   12.4770    0.0000 </r>
       <r>   13.4273    0.0000 </r>
       <r>   14.1558    0.0000 </r>
      </set>
      <set comment="kpoint 12">
       <r>  -52.0849    1.0000 </r>
       <r>  -52.0715    1.0000 </r>
       <r>  -25.7419    1.0000 </r>
       <r>  -25.7138    1.0000 </r>
       <r>  -25.6960    1.0000 </r>
       <r>  -25.5406    1.0000 </r>
       <r>  -25.3488    1.0000 </r>
       <r>  -25.3290    1.0000 </r>
       <r>   -1.7513    1.0000 </r>
       <r>    0.2318    1.0000 </r>
       <r>    2.6748    1.0000 </r>
       <r>    4.6413    1.0000 </r>
       <r>    4.8244    1.0000 </r>
       <r>    5.1443    1.0000 </r>
       <r>    6.4862    1.0000 </r>
       <r>    6.7866    1.0000 </r>
       <r>    7.6794    1.0000 </r>
       <r>    8.1526    1.0000 </r>
       <r>    8.9530    1.0000 </r>
       <r>   11.4021    0.0000 </r>
       <r>   12.2044    0.0000 </r>
       <r>   12.9075    0.0000 </r>
       <r>   13.5799    0.0000 </r>
       <r>   14.0711    0.0000 </r>
      </set>
      <set comment="kpoint 13">
       <r>  -52.0721    1.0000 </r>
       <r>  -52.0589    1.0000 </r>
       <r>  -25.8237    1.0000 </r>
       <r>  -25.7896    1.0000 </r>
       <r>  -25.7038    1.0000 </r>
       <r>  -25.5241    1.0000 </r>
       <r>  -25.3760    1.0000 </r>
       <r>  -25.3555    1.0000 </r>
       <r>   -1.0338    1.0000 </r>
       <r>    0.5290    1.0000 </r>
       <r>    2.1095    1.0000 </r>
       <r>    3.6830    1.0000 </r>
       <r>    4.8137    1.0000 </r>
       <r>    5.0800    1.0000 </r>
       <r>    6.1692    1.0000 </r>
       <r>    6.5956    1.0000 </r>
       <r>    7.4331    1.0000 </r>
       <r>    8.4145    1.0000 </r>
       <r>    9.0853    1.0000 </r>
       <r>   12.2952    0.0000 </r>
       <r>   12.8120    0.0000 </r>
       <r>   13.3350    0.0000 </r>
       <r>   13.7561    0.0000 </r>
       <r>   14.0050    0.0000 </r>
      </set>
      <set comment="kpoint 14">
       <r>  -52.0675    1.0000 </r>
       <r>  -52.0543    1.0000 </r>
       <r>  -25.8572    1.0000 </r>
       <r>  -25.8228    1.0000 </r>
       <r>  -25.6967    1.0000 </r>
       <r>  -25.5178    1.0000 </r>
       <r>  -25.3859    1.0000 </r>
       <r>  -25.3650    1.0000 </r>
       <r>   -0.5578    1.0000 </r>
       <r>    0.3012    1.0000 </r>
       <r>    2.4169    1.0000 </r>
       <r>    2.9162    1.0000 </r>
       <r>    4.7509    1.0000 </r>
       <r>    5.1105    1.0000 </r>
       <r>    6.0716    1.0000 </r>
       <r>    6.5343    1.0000 </r>
       <r>    7.3318    1.0000 </r>
       <r>    8.5238    1.0000 </r>
       <r>    9.2035    1.0000 </r>
       <r>   12.8334    0.0000 </r>
       <r>   13.0921    0.0000 </r>
       <r>   13.2859    0.0000 </r>
       <r>   13.9872    0.0000 </r>
       <r>   14.0953    0.0000 </r>
      </set>
      <set comment="kpoint 15">
       <r>  -52.0721    1.0000 </r>
       <r>  -52.0589    1.0000 </r>
       <r>  -25.8234    1.0000 </r>
       <r>  -25.7897    1.0000 </r>
       <r>  -25.7049    1.0000 </r>
       <r>  -25.5232    1.0000 </r>
       <r>  -25.3761    1.0000 </r>
       <r>  -25.3554    1.0000 </r>
       <r>   -1.0208    1.0000 </r>
       <r>    0.4695    1.0000 </r>
       <r>    2.2000    1.0000 </r>
       <r>    3.6057    1.0000 </r>
       <r>    4.8591    1.0000 </r>
       <r>    5.0738    1.0000 </r>
       <r>    6.1895    1.0000 </r>
       <r>    6.6073    1.0000 </r>
       <r>    7.4267    1.0000 </r>
       <r>    8.4124    1.0000 </r>
       <r>    9.0446    1.0000 </r>
       <r>   12.2289    0.0000 </r>
       <r>   12.8012    0.0000 </r>
       <r>   13.4164    0.0000 </r>
       <r>   13.8801    0.0000 </r>
       <r>   14.2452    0.0000 </r>
      </set>
      <set comment="kpoint 16">
       <r>  -52.0849    1.0000 </r>
       <r>  -52.0715    1.0000 </r>
       <r>  -25.7413    1.0000 </r>
       <r>  -25.7154    1.0000 </r>
       <r>  -25.6966    1.0000 </r>
       <r>  -25.5389    1.0000 </r>
       <r>  -25.3489    1.0000 </r>
       <r>  -25.3289    1.0000 </r>
       <r>   -1.7525    1.0000 </r>
       <r>    0.2144    1.0000 </r>
       <r>    2.7236    1.0000 </r>
       <r>    4.6009    1.0000 </r>
       <r>    4.8252    1.0000 </r>
       <r>    5.1553    1.0000 </r>
       <r>    6.5153    1.0000 </r>
       <r>    6.7926    1.0000 </r>
       <r>    7.6514    1.0000 </r>
       <r>    8.1320    1.0000 </r>
       <r>    8.9389    1.0000 </r>
       <r>   11.4604    0.0000 </r>
       <r>   12.1387    0.0000 </r>
       <r>   12.9076    0.0000 </r>
       <r>   13.7598    0.0000 </r>
       <r>   14.1020    0.0000 </r>
      </set>
      <set comment="kpoint 17">
       <r>  -52.1029    1.0000 </r>
       <r>  -52.0892    1.0000 </r>
       <r>  -25.7625    1.0000 </r>
       <r>  -25.5894    1.0000 </r>
       <r>  -25.5728    1.0000 </r>
       <r>  -25.5535    1.0000 </r>
       <r>  -25.3103    1.0000 </r>
       <r>  -25.2913    1.0000 </r>
       <r>   -2.4485    1.0000 </r>
       <r>   -0.2381    1.0000 </r>
       <r>    3.7339    1.0000 </r>
       <r>    4.2293    1.0000 </r>
       <r>    5.5082    1.0000 </r>
       <r>    5.6572    1.0000 </r>
       <r>    6.8293    1.0000 </r>
       <r>    7.1468    1.0000 </r>
       <r>    7.7763    1.0000 </r>
       <r>    8.2631    1.0000 </r>
       <r>    9.0024    1.0000 </r>
       <r>   10.7974    1.0000 </r>
       <r>   11.3200    0.0000 </r>
       <r>   12.4730    0.0000 </r>
       <r>   13.5503    0.0000 </r>
       <r>   14.0615    0.0000 </r>
      </set>
      <set comment="kpoint 18">
       <r>  -52.1219    1.0000 </r>
       <r>  -52.1080    1.0000 </r>
       <r>  -25.7954    1.0000 </r>
       <r>  -25.5874    1.0000 </r>
       <r>  -25.4426    1.0000 </r>
       <r>  -25.4203    1.0000 </r>
       <r>  -25.2691    1.0000 </r>
       <r>  -25.2513    1.0000 </r>
       <r>   -3.0354    1.0000 </r>
       <r>   -0.6038    1.0000 </r>
       <r>    3.4616    1.0000 </r>
       <r>    4.8711    1.0000 </r>
       <r>    6.1003    1.0000 </r>
       <r>    6.4736    1.0000 </r>
       <r>    6.6874    1.0000 </r>
       <r>    7.7698    1.0000 </r>
       <r>    8.0441    1.0000 </r>
       <r>    8.6363    1.0000 </r>
       <r>    9.3167    1.0000 </r>
       <r>   10.3088    1.0000 </r>
       <r>   10.5663    1.0000 </r>
       <r>   12.1366    0.0000 </r>
       <r>   13.3999    0.0000 </r>
       <r>   13.9785    0.0000 </r>
      </set>
      <set comment="kpoint 19">
       <r>  -52.1376    1.0000 </r>
       <r>  -52.1236    1.0000 </r>
       <r>  -25.8226    1.0000 </r>
       <r>  -25.6075    1.0000 </r>
       <r>  -25.3184    1.0000 </r>
       <r>  -25.2996    1.0000 </r>
       <r>  -25.2348    1.0000 </r>
       <r>  -25.2181    1.0000 </r>
       <r>   -3.4597    1.0000 </r>
       <r>   -0.8455    1.0000 </r>
       <r>    2.8344    1.0000 </r>
       <r>    5.8863    1.0000 </r>
       <r>    6.3603    1.0000 </r>
       <r>    6.6215    1.0000 </r>
       <r>    7.1701    1.0000 </r>
       <r>    8.3583    1.0000 </r>
       <r>    8.5884    1.0000 </r>
       <r>    8.9587    1.0000 </r>
       <r>    9.6704    1.0000 </r>
       <r>    9.9059    1.0000 </r>
       <r>   10.2281    1.0000 </r>
       <r>   11.5971    0.0000 </r>
       <r>   13.1503    0.0000 </r>
       <r>   13.3992    0.0000 </r>
      </set>
      <set comment="kpoint 20">
       <r>  -52.1334    1.0000 </r>
       <r>  -52.1195    1.0000 </r>
       <r>  -25.8134    1.0000 </r>
       <r>  -25.6042    1.0000 </r>
       <r>  -25.3542    1.0000 </r>
       <r>  -25.3349    1.0000 </r>
       <r>  -25.2415    1.0000 </r>
       <r>  -25.2235    1.0000 </r>
       <r>   -3.3305    1.0000 </r>
       <r>   -0.8387    1.0000 </r>
       <r>    3.0746    1.0000 </r>
       <r>    5.5012    1.0000 </r>
       <r>    6.3208    1.0000 </r>
       <r>    6.5724    1.0000 </r>
       <r>    7.2034    1.0000 </r>
       <r>    8.0474    1.0000 </r>
       <r>    8.5622    1.0000 </r>
       <r>    8.6517    1.0000 </r>
       <r>    9.4270    1.0000 </r>
       <r>   10.0956    1.0000 </r>
       <r>   10.7418    1.0000 </r>
       <r>   11.5678    0.0000 </r>
       <r>   13.0777    0.0000 </r>
       <r>   13.7304    0.0000 </r>
      </set>
      <set comment="kpoint 21">
       <r>  -52.1218    1.0000 </r>
       <r>  -52.1081    1.0000 </r>
       <r>  -25.7927    1.0000 </r>
       <r>  -25.5902    1.0000 </r>
       <r>  -25.4423    1.0000 </r>
       <r>  -25.4206    1.0000 </r>
       <r>  -25.2697    1.0000 </r>
       <r>  -25.2507    1.0000 </r>
       <r>   -3.0086    1.0000 </r>
       <r>   -0.6632    1.0000 </r>
       <r>    3.5492    1.0000 </r>
       <r>    4.8410    1.0000 </r>
       <r>    6.0029    1.0000 </r>
       <r>    6.2863    1.0000 </r>
       <r>    7.0666    1.0000 </r>
       <r>    7.7511    1.0000 </r>
       <r>    7.9873    1.0000 </r>
       <r>    8.5326    1.0000 </r>
       <r>    9.3330    1.0000 </r>
       <r>   10.3666    1.0000 </r>
       <r>   10.6588    1.0000 </r>
       <r>   12.1281    0.0000 </r>
       <r>   13.2897    0.0000 </r>
       <r>   13.6388    0.0000 </r>
      </set>
      <set comment="kpoint 22">
       <r>  -52.1055    1.0000 </r>
       <r>  -52.0920    1.0000 </r>
       <r>  -25.7641    1.0000 </r>
       <r>  -25.5715    1.0000 </r>
       <r>  -25.5551    1.0000 </r>
       <r>  -25.5294    1.0000 </r>
       <r>  -25.3186    1.0000 </r>
       <r>  -25.2985    1.0000 </r>
       <r>   -2.5149    1.0000 </r>
       <r>   -0.3332    1.0000 </r>
       <r>    3.9391    1.0000 </r>
       <r>    4.2560    1.0000 </r>
       <r>    5.2857    1.0000 </r>
       <r>    5.8662    1.0000 </r>
       <r>    7.0586    1.0000 </r>
       <r>    7.3632    1.0000 </r>
       <r>    7.5555    1.0000 </r>
       <r>    8.1409    1.0000 </r>
       <r>    9.3202    1.0000 </r>
       <r>   10.1866    1.0000 </r>
       <r>   11.2654    0.0000 </r>
       <r>   12.6286    0.0000 </r>
       <r>   13.2616    0.0000 </r>
       <r>   14.0790    0.0000 </r>
      </set>
      <set comment="kpoint 23">
       <r>  -52.0881    1.0000 </r>
       <r>  -52.0748    1.0000 </r>
       <r>  -25.7358    1.0000 </r>
       <r>  -25.6680    1.0000 </r>
       <r>  -25.6430    1.0000 </r>
       <r>  -25.5460    1.0000 </r>
       <r>  -25.3747    1.0000 </r>
       <r>  -25.3535    1.0000 </r>
       <r>   -1.8958    1.0000 </r>
       <r>    0.1546    1.0000 </r>
       <r>    3.0113    1.0000 </r>
       <r>    4.5440    1.0000 </r>
       <r>    5.0737    1.0000 </r>
       <r>    5.1651    1.0000 </r>
       <r>    6.5112    1.0000 </r>
       <r>    7.2486    1.0000 </r>
       <r>    7.3465    1.0000 </r>
       <r>    7.8952    1.0000 </r>
       <r>    9.0723    1.0000 </r>
       <r>   10.5340    1.0000 </r>
       <r>   11.9801    0.0000 </r>
       <r>   12.9518    0.0000 </r>
       <r>   13.5137    0.0000 </r>
       <r>   14.3233    0.0000 </r>
      </set>
      <set comment="kpoint 24">
       <r>  -52.0736    1.0000 </r>
       <r>  -52.0605    1.0000 </r>
       <r>  -25.7665    1.0000 </r>
       <r>  -25.7327    1.0000 </r>
       <r>  -25.7035    1.0000 </r>
       <r>  -25.5274    1.0000 </r>
       <r>  -25.4226    1.0000 </r>
       <r>  -25.4005    1.0000 </r>
       <r>   -1.2041    1.0000 </r>
       <r>    0.7050    1.0000 </r>
       <r>    2.1398    1.0000 </r>
       <r>    4.2348    1.0000 </r>
       <r>    4.3306    1.0000 </r>
       <r>    5.3942    1.0000 </r>
       <r>    6.1051    1.0000 </r>
       <r>    6.9296    1.0000 </r>
       <r>    7.1436    1.0000 </r>
       <r>    8.0952    1.0000 </r>
       <r>    8.9385    1.0000 </r>
       <r>   11.2969    0.0000 </r>
       <r>   12.4268    0.0000 </r>
       <r>   13.3426    0.0000 </r>
       <r>   13.8387    0.0000 </r>
       <r>   14.2265    0.0000 </r>
      </set>
      <set comment="kpoint 25">
       <r>  -52.0655    1.0000 </r>
       <r>  -52.0524    1.0000 </r>
       <r>  -25.8157    1.0000 </r>
       <r>  -25.7820    1.0000 </r>
       <r>  -25.6921    1.0000 </r>
       <r>  -25.5163    1.0000 </r>
       <r>  -25.4499    1.0000 </r>
       <r>  -25.4273    1.0000 </r>
       <r>   -0.5423    1.0000 </r>
       <r>    0.6826    1.0000 </r>
       <r>    2.0892    1.0000 </r>
       <r>    3.2872    1.0000 </r>
       <r>    4.2267    1.0000 </r>
       <r>    5.4571    1.0000 </r>
       <r>    6.1179    1.0000 </r>
       <r>    6.5565    1.0000 </r>
       <r>    7.0297    1.0000 </r>
       <r>    8.2810    1.0000 </r>
       <r>    9.0092    1.0000 </r>
       <r>   12.2009    0.0000 </r>
       <r>   12.4861    0.0000 </r>
       <r>   13.5504    0.0000 </r>
       <r>   13.8556    0.0000 </r>
       <r>   14.3753    0.0000 </r>
      </set>
      <set comment="kpoint 26">
       <r>  -52.0655    1.0000 </r>
       <r>  -52.0524    1.0000 </r>
       <r>  -25.8154    1.0000 </r>
       <r>  -25.7821    1.0000 </r>
       <r>  -25.6932    1.0000 </r>
       <r>  -25.5153    1.0000 </r>
       <r>  -25.4499    1.0000 </r>
       <r>  -25.4273    1.0000 </r>
       <r>   -0.5174    1.0000 </r>
       <r>    0.6052    1.0000 </r>
       <r>    2.1616    1.0000 </r>
       <r>    3.2349    1.0000 </r>
       <r>    4.2882    1.0000 </r>
       <r>    5.4425    1.0000 </r>
       <r>    6.2322    1.0000 </r>
       <r>    6.4785    1.0000 </r>
       <r>    7.0038    1.0000 </r>
       <r>    8.2742    1.0000 </r>
       <r>    8.9519    1.0000 </r>
       <r>   12.0014    0.0000 </r>
       <r>   12.8710    0.0000 </r>
       <r>   13.4399    0.0000 </r>
       <r>   13.9680    0.0000 </r>
       <r>   14.1902    0.0000 </r>
      </set>
      <set comment="kpoint 27">
       <r>  -52.0737    1.0000 </r>
       <r>  -52.0604    1.0000 </r>
       <r>  -25.7655    1.0000 </r>
       <r>  -25.7327    1.0000 </r>
       <r>  -25.7070    1.0000 </r>
       <r>  -25.5248    1.0000 </r>
       <r>  -25.4226    1.0000 </r>
       <r>  -25.4006    1.0000 </r>
       <r>   -1.1936    1.0000 </r>
       <r>    0.6242    1.0000 </r>
       <r>    2.2090    1.0000 </r>
       <r>    4.1405    1.0000 </r>
       <r>    4.5149    1.0000 </r>
       <r>    5.3676    1.0000 </r>
       <r>    6.2512    1.0000 </r>
       <r>    6.7815    1.0000 </r>
       <r>    7.0881    1.0000 </r>
       <r>    8.0867    1.0000 </r>
       <r>    8.8170    1.0000 </r>
       <r>   11.4154    0.0000 </r>
       <r>   12.4441    0.0000 </r>
       <r>   13.4776    0.0000 </r>
       <r>   14.0725    0.0000 </r>
       <r>   14.1993    0.0000 </r>
      </set>
      <set comment="kpoint 28">
       <r>  -52.0882    1.0000 </r>
       <r>  -52.0747    1.0000 </r>
       <r>  -25.7380    1.0000 </r>
       <r>  -25.6687    1.0000 </r>
       <r>  -25.6436    1.0000 </r>
       <r>  -25.5423    1.0000 </r>
       <r>  -25.3745    1.0000 </r>
       <r>  -25.3537    1.0000 </r>
       <r>   -1.9086    1.0000 </r>
       <r>    0.1536    1.0000 </r>
       <r>    3.0156    1.0000 </r>
       <r>    4.8782    1.0000 </r>
       <r>    4.9256    1.0000 </r>
       <r>    5.0658    1.0000 </r>
       <r>    6.5874    1.0000 </r>
       <r>    7.0444    1.0000 </r>
       <r>    7.2728    1.0000 </r>
       <r>    8.0209    1.0000 </r>
       <r>    8.8201    1.0000 </r>
       <r>   10.9447    1.0000 </r>
       <r>   11.8048    0.0000 </r>
       <r>   13.0277    0.0000 </r>
       <r>   13.8598    0.0000 </r>
       <r>   13.9709    0.0000 </r>
      </set>
      <set comment="kpoint 29">
       <r>  -52.1056    1.0000 </r>
       <r>  -52.0919    1.0000 </r>
       <r>  -25.7673    1.0000 </r>
       <r>  -25.5682    1.0000 </r>
       <r>  -25.5558    1.0000 </r>
       <r>  -25.5287    1.0000 </r>
       <r>  -25.3182    1.0000 </r>
       <r>  -25.2989    1.0000 </r>
       <r>   -2.5415    1.0000 </r>
       <r>   -0.2880    1.0000 </r>
       <r>    3.9239    1.0000 </r>
       <r>    4.2203    1.0000 </r>
       <r>    5.4633    1.0000 </r>
       <r>    5.8242    1.0000 </r>
       <r>    6.8913    1.0000 </r>
       <r>    7.3575    1.0000 </r>
       <r>    7.5073    1.0000 </r>
       <r>    8.2696    1.0000 </r>
       <r>    9.0494    1.0000 </r>
       <r>   10.5996    1.0000 </r>
       <r>   11.0869    1.0000 </r>
       <r>   12.5956    0.0000 </r>
       <r>   13.7507    0.0000 </r>
       <r>   13.8731    0.0000 </r>
      </set>
      <set comment="kpoint 30">
       <r>  -52.1150    1.0000 </r>
       <r>  -52.1014    1.0000 </r>
       <r>  -25.7798    1.0000 </r>
       <r>  -25.5829    1.0000 </r>
       <r>  -25.5032    1.0000 </r>
       <r>  -25.4805    1.0000 </r>
       <r>  -25.2767    1.0000 </r>
       <r>  -25.2565    1.0000 </r>
       <r>   -2.7989    1.0000 </r>
       <r>   -0.5544    1.0000 </r>
       <r>    3.7606    1.0000 </r>
       <r>    4.3924    1.0000 </r>
       <r>    5.9804    1.0000 </r>
       <r>    6.0371    1.0000 </r>
       <r>    7.0267    1.0000 </r>
       <r>    7.4845    1.0000 </r>
       <r>    7.8810    1.0000 </r>
       <r>    8.5151    1.0000 </r>
       <r>    9.0069    1.0000 </r>
       <r>   10.8544    1.0000 </r>
       <r>   11.0377    1.0000 </r>
       <r>   11.9388    0.0000 </r>
       <r>   13.2749    0.0000 </r>
       <r>   13.3661    0.0000 </r>
      </set>
      <set comment="kpoint 31">
       <r>  -52.1028    1.0000 </r>
       <r>  -52.0894    1.0000 </r>
       <r>  -25.7582    1.0000 </r>
       <r>  -25.5893    1.0000 </r>
       <r>  -25.5742    1.0000 </r>
       <r>  -25.5568    1.0000 </r>
       <r>  -25.3116    1.0000 </r>
       <r>  -25.2901    1.0000 </r>
       <r>   -2.4116    1.0000 </r>
       <r>   -0.2900    1.0000 </r>
       <r>    3.5491    1.0000 </r>
       <r>    4.4561    1.0000 </r>
       <r>    5.3780    1.0000 </r>
       <r>    5.6725    1.0000 </r>
       <r>    7.0545    1.0000 </r>
       <r>    7.2757    1.0000 </r>
       <r>    7.5450    1.0000 </r>
       <r>    8.3091    1.0000 </r>
       <r>    9.0215    1.0000 </r>
       <r>   10.7062    1.0000 </r>
       <r>   11.3715    0.0000 </r>
       <r>   12.5375    0.0000 </r>
       <r>   12.9813    0.0000 </r>
       <r>   13.7383    0.0000 </r>
      </set>
      <set comment="kpoint 32">
       <r>  -52.0881    1.0000 </r>
       <r>  -52.0748    1.0000 </r>
       <r>  -25.7341    1.0000 </r>
       <r>  -25.6674    1.0000 </r>
       <r>  -25.6439    1.0000 </r>
       <r>  -25.5475    1.0000 </r>
       <r>  -25.3756    1.0000 </r>
       <r>  -25.3526    1.0000 </r>
       <r>   -1.8819    1.0000 </r>
       <r>    0.1491    1.0000 </r>
       <r>    2.9495    1.0000 </r>
       <r>    4.5658    1.0000 </r>
       <r>    4.8742    1.0000 </r>
       <r>    5.3374    1.0000 </r>
       <r>    6.7392    1.0000 </r>
       <r>    6.9949    1.0000 </r>
       <r>    7.3922    1.0000 </r>
       <r>    8.0947    1.0000 </r>
       <r>    9.1509    1.0000 </r>
       <r>   10.2278    1.0000 </r>
       <r>   11.9171    0.0000 </r>
       <r>   12.9449    0.0000 </r>
       <r>   13.3351    0.0000 </r>
       <r>   14.2012    0.0000 </r>
      </set>
      <set comment="kpoint 33">
       <r>  -52.0742    1.0000 </r>
       <r>  -52.0611    1.0000 </r>
       <r>  -25.7353    1.0000 </r>
       <r>  -25.7028    1.0000 </r>
       <r>  -25.6972    1.0000 </r>
       <r>  -25.5297    1.0000 </r>
       <r>  -25.4532    1.0000 </r>
       <r>  -25.4288    1.0000 </r>
       <r>   -1.2515    1.0000 </r>
       <r>    0.7580    1.0000 </r>
[...]
       <r>   13.2495    0.0000 </r>
      </set>
      <set comment="kpoint 228">
       <r>  -52.1214    1.0000 </r>
       <r>  -52.1085    1.0000 </r>
       <r>  -25.7763    1.0000 </r>
       <r>  -25.6074    1.0000 </r>
       <r>  -25.4426    1.0000 </r>
       <r>  -25.4201    1.0000 </r>
       <r>  -25.2707    1.0000 </r>
       <r>  -25.2497    1.0000 </r>
       <r>   -2.8422    1.0000 </r>
       <r>   -0.9938    1.0000 </r>
       <r>    4.2074    1.0000 </r>
       <r>    4.6543    1.0000 </r>
       <r>    5.3246    1.0000 </r>
       <r>    6.2282    1.0000 </r>
       <r>    7.6625    1.0000 </r>
       <r>    7.7686    1.0000 </r>
       <r>    8.1517    1.0000 </r>
       <r>    8.6380    1.0000 </r>
       <r>    8.8939    1.0000 </r>
       <r>   10.3704    1.0000 </r>
       <r>   11.0239    1.0000 </r>
       <r>   12.0344    0.0000 </r>
       <r>   12.7660    0.0000 </r>
       <r>   13.9545    0.0000 </r>
      </set>
      <set comment="kpoint 229">
       <r>  -52.1329    1.0000 </r>
       <r>  -52.1200    1.0000 </r>
       <r>  -25.7941    1.0000 </r>
       <r>  -25.6245    1.0000 </r>
       <r>  -25.3551    1.0000 </r>
       <r>  -25.3339    1.0000 </r>
       <r>  -25.2425    1.0000 </r>
       <r>  -25.2224    1.0000 </r>
       <r>   -3.1159    1.0000 </r>
       <r>   -1.2996    1.0000 </r>
       <r>    3.8833    1.0000 </r>
       <r>    5.0427    1.0000 </r>
       <r>    5.8522    1.0000 </r>
       <r>    6.5156    1.0000 </r>
       <r>    7.5315    1.0000 </r>
       <r>    8.0758    1.0000 </r>
       <r>    8.6369    1.0000 </r>
       <r>    8.8790    1.0000 </r>
       <r>    9.0823    1.0000 </r>
       <r>   10.1644    1.0000 </r>
       <r>   11.3061    0.0000 </r>
       <r>   11.8828    0.0000 </r>
       <r>   12.7741    0.0000 </r>
       <r>   13.3295    0.0000 </r>
      </set>
      <set comment="kpoint 230">
       <r>  -52.1506    1.0000 </r>
       <r>  -52.1375    1.0000 </r>
       <r>  -25.8220    1.0000 </r>
       <r>  -25.6500    1.0000 </r>
       <r>  -25.2087    1.0000 </r>
       <r>  -25.2087    1.0000 </r>
       <r>  -25.1900    1.0000 </r>
       <r>  -25.1900    1.0000 </r>
       <r>   -3.5076    1.0000 </r>
       <r>   -1.7138    1.0000 </r>
       <r>    3.3575    1.0000 </r>
       <r>    5.1779    1.0000 </r>
       <r>    7.0311    1.0000 </r>
       <r>    7.0311    1.0000 </r>
       <r>    7.7598    1.0000 </r>
       <r>    8.6265    1.0000 </r>
       <r>    8.6265    1.0000 </r>
       <r>    9.7172    1.0000 </r>
       <r>    9.7172    1.0000 </r>
       <r>   10.0805    1.0000 </r>
       <r>   11.6722    0.0000 </r>
       <r>   11.6722    0.0000 </r>
       <r>   12.8637    0.0000 </r>
       <r>   12.8826    0.0000 </r>
      </set>
      <set comment="kpoint 231">
       <r>  -52.1459    1.0000 </r>
       <r>  -52.1329    1.0000 </r>
       <r>  -25.8143    1.0000 </r>
       <r>  -25.6435    1.0000 </r>
       <r>  -25.2479    1.0000 </r>
       <r>  -25.2284    1.0000 </r>
       <r>  -25.2177    1.0000 </r>
       <r>  -25.1986    1.0000 </r>
       <r>   -3.4035    1.0000 </r>
       <r>   -1.6150    1.0000 </r>
       <r>    3.5098    1.0000 </r>
       <r>    5.2117    1.0000 </r>
       <r>    6.5874    1.0000 </r>
       <r>    6.9018    1.0000 </r>
       <r>    7.6664    1.0000 </r>
       <r>    8.5199    1.0000 </r>
       <r>    8.6225    1.0000 </r>
       <r>    9.5063    1.0000 </r>
       <r>    9.6883    1.0000 </r>
       <r>    9.8055    1.0000 </r>
       <r>   11.5199    0.0000 </r>
       <r>   12.1907    0.0000 </r>
       <r>   12.8984    0.0000 </r>
       <r>   12.9910    0.0000 </r>
      </set>
     </set>
    </set>
   </array>
  </eigenvalues>
  <separator name="orbital magnetization" >
   <v name="MAGDIPOLOUT">      0.00000000      0.00000000      0.00000000</v>
  </separator>
  <dos>
   <i name="efermi">     11.20746266 </i>
   <total>
    <array>
     <dimension dim="1">gridpoints</dimension>
     <dimension dim="2">spin</dimension>
     <field>energy</field>
     <field>total</field>
     <field>integrated</field>
     <set>
      <set comment="spin 1">
       <r>   -55.5528     0.0000     0.0000 </r>
       <r>   -55.3034     0.0000     0.0000 </r>
       <r>   -55.0539     0.0000     0.0000 </r>
       <r>   -54.8044     0.0000     0.0000 </r>
       <r>   -54.5550     0.0000     0.0000 </r>
       <r>   -54.3055     0.0000     0.0000 </r>
       <r>   -54.0561     0.0000     0.0000 </r>
       <r>   -53.8066     0.0000     0.0000 </r>
       <r>   -53.5572     0.0000     0.0000 </r>
       <r>   -53.3077     0.0000     0.0000 </r>
       <r>   -53.0583     0.0000     0.0000 </r>
       <r>   -52.8088     0.0000     0.0000 </r>
       <r>   -52.5593     0.0000     0.0000 </r>
       <r>   -52.3099     0.0000     0.0000 </r>
       <r>   -52.0604    12.0877     3.0154 </r>
       <r>   -51.8110     0.0000     4.0000 </r>
       <r>   -51.5615     0.0000     4.0000 </r>
       <r>   -51.3121     0.0000     4.0000 </r>
       <r>   -51.0626     0.0000     4.0000 </r>
       <r>   -50.8132     0.0000     4.0000 </r>
       <r>   -50.5637     0.0000     4.0000 </r>
       <r>   -50.3142     0.0000     4.0000 </r>
       <r>   -50.0648     0.0000     4.0000 </r>
       <r>   -49.8153     0.0000     4.0000 </r>
       <r>   -49.5659     0.0000     4.0000 </r>
       <r>   -49.3164     0.0000     4.0000 </r>
       <r>   -49.0670     0.0000     4.0000 </r>
       <r>   -48.8175     0.0000     4.0000 </r>
       <r>   -48.5681     0.0000     4.0000 </r>
       <r>   -48.3186     0.0000     4.0000 </r>
       <r>   -48.0691     0.0000     4.0000 </r>
       <r>   -47.8197     0.0000     4.0000 </r>
       <r>   -47.5702     0.0000     4.0000 </r>
       <r>   -47.3208     0.0000     4.0000 </r>
       <r>   -47.0713     0.0000     4.0000 </r>
       <r>   -46.8219     0.0000     4.0000 </r>
       <r>   -46.5724     0.0000     4.0000 </r>
       <r>   -46.3230     0.0000     4.0000 </r>
       <r>   -46.0735     0.0000     4.0000 </r>
       <r>   -45.8240     0.0000     4.0000 </r>
       <r>   -45.5746     0.0000     4.0000 </r>
       <r>   -45.3251     0.0000     4.0000 </r>
       <r>   -45.0757     0.0000     4.0000 </r>
       <r>   -44.8262     0.0000     4.0000 </r>
       <r>   -44.5768     0.0000     4.0000 </r>
       <r>   -44.3273     0.0000     4.0000 </r>
       <r>   -44.0779     0.0000     4.0000 </r>
       <r>   -43.8284     0.0000     4.0000 </r>
       <r>   -43.5789     0.0000     4.0000 </r>
       <r>   -43.3295     0.0000     4.0000 </r>
       <r>   -43.0800     0.0000     4.0000 </r>
       <r>   -42.8306     0.0000     4.0000 </r>
       <r>   -42.5811     0.0000     4.0000 </r>
       <r>   -42.3317     0.0000     4.0000 </r>
       <r>   -42.0822     0.0000     4.0000 </r>
       <r>   -41.8328     0.0000     4.0000 </r>
       <r>   -41.5833     0.0000     4.0000 </r>
       <r>   -41.3339     0.0000     4.0000 </r>
       <r>   -41.0844     0.0000     4.0000 </r>
       <r>   -40.8349     0.0000     4.0000 </r>
       <r>   -40.5855     0.0000     4.0000 </r>
       <r>   -40.3360     0.0000     4.0000 </r>
       <r>   -40.0866     0.0000     4.0000 </r>
       <r>   -39.8371     0.0000     4.0000 </r>
       <r>   -39.5877     0.0000     4.0000 </r>
       <r>   -39.3382     0.0000     4.0000 </r>
       <r>   -39.0888     0.0000     4.0000 </r>
       <r>   -38.8393     0.0000     4.0000 </r>
       <r>   -38.5898     0.0000     4.0000 </r>
       <r>   -38.3404     0.0000     4.0000 </r>
       <r>   -38.0909     0.0000     4.0000 </r>
       <r>   -37.8415     0.0000     4.0000 </r>
       <r>   -37.5920     0.0000     4.0000 </r>
       <r>   -37.3426     0.0000     4.0000 </r>
       <r>   -37.0931     0.0000     4.0000 </r>
       <r>   -36.8437     0.0000     4.0000 </r>
       <r>   -36.5942     0.0000     4.0000 </r>
       <r>   -36.3447     0.0000     4.0000 </r>
       <r>   -36.0953     0.0000     4.0000 </r>
       <r>   -35.8458     0.0000     4.0000 </r>
       <r>   -35.5964     0.0000     4.0000 </r>
       <r>   -35.3469     0.0000     4.0000 </r>
       <r>   -35.0975     0.0000     4.0000 </r>
       <r>   -34.8480     0.0000     4.0000 </r>
       <r>   -34.5986     0.0000     4.0000 </r>
       <r>   -34.3491     0.0000     4.0000 </r>
       <r>   -34.0996     0.0000     4.0000 </r>
       <r>   -33.8502     0.0000     4.0000 </r>
       <r>   -33.6007     0.0000     4.0000 </r>
       <r>   -33.3513     0.0000     4.0000 </r>
       <r>   -33.1018     0.0000     4.0000 </r>
       <r>   -32.8524     0.0000     4.0000 </r>
       <r>   -32.6029     0.0000     4.0000 </r>
       <r>   -32.3535     0.0000     4.0000 </r>
       <r>   -32.1040     0.0000     4.0000 </r>
       <r>   -31.8545     0.0000     4.0000 </r>
       <r>   -31.6051     0.0000     4.0000 </r>
       <r>   -31.3556     0.0000     4.0000 </r>
       <r>   -31.1062     0.0000     4.0000 </r>
       <r>   -30.8567     0.0000     4.0000 </r>
       <r>   -30.6073     0.0000     4.0000 </r>
       <r>   -30.3578     0.0000     4.0000 </r>
       <r>   -30.1084     0.0000     4.0000 </r>
       <r>   -29.8589     0.0000     4.0000 </r>
       <r>   -29.6094     0.0000     4.0000 </r>
       <r>   -29.3600     0.0000     4.0000 </r>
       <r>   -29.1105     0.0000     4.0000 </r>
       <r>   -28.8611     0.0000     4.0000 </r>
       <r>   -28.6116     0.0000     4.0000 </r>
       <r>   -28.3622     0.0000     4.0000 </r>
       <r>   -28.1127     0.0000     4.0000 </r>
       <r>   -27.8633     0.0000     4.0000 </r>
       <r>   -27.6138     0.0000     4.0000 </r>
       <r>   -27.3643     0.0000     4.0000 </r>
       <r>   -27.1149     0.0000     4.0000 </r>
       <r>   -26.8654     0.0000     4.0000 </r>
       <r>   -26.6160     0.0000     4.0000 </r>
       <r>   -26.3665     0.0000     4.0000 </r>
       <r>   -26.1171     0.0000     4.0000 </r>
       <r>   -25.8676     0.1417     4.0353 </r>
       <r>   -25.6182    14.3378     8.8611 </r>
       <r>   -25.3687    10.5109    13.2055 </r>
       <r>   -25.1192     4.1748    16.0000 </r>
       <r>   -24.8698     0.0000    16.0000 </r>
       <r>   -24.6203     0.0000    16.0000 </r>
       <r>   -24.3709     0.0000    16.0000 </r>
       <r>   -24.1214     0.0000    16.0000 </r>
       <r>   -23.8720     0.0000    16.0000 </r>
       <r>   -23.6225     0.0000    16.0000 </r>
       <r>   -23.3731     0.0000    16.0000 </r>
       <r>   -23.1236     0.0000    16.0000 </r>
       <r>   -22.8741     0.0000    16.0000 </r>
       <r>   -22.6247     0.0000    16.0000 </r>
       <r>   -22.3752     0.0000    16.0000 </r>
       <r>   -22.1258     0.0000    16.0000 </r>
       <r>   -21.8763     0.0000    16.0000 </r>
       <r>   -21.6269     0.0000    16.0000 </r>
       <r>   -21.3774     0.0000    16.0000 </r>
       <r>   -21.1280     0.0000    16.0000 </r>
       <r>   -20.8785     0.0000    16.0000 </r>
       <r>   -20.6290     0.0000    16.0000 </r>
       <r>   -20.3796     0.0000    16.0000 </r>
       <r>   -20.1301     0.0000    16.0000 </r>
       <r>   -19.8807     0.0000    16.0000 </r>
       <r>   -19.6312     0.0000    16.0000 </r>
       <r>   -19.3818     0.0000    16.0000 </r>
       <r>   -19.1323     0.0000    16.0000 </r>
       <r>   -18.8829     0.0000    16.0000 </r>
       <r>   -18.6334     0.0000    16.0000 </r>
       <r>   -18.3839     0.0000    16.0000 </r>
       <r>   -18.1345     0.0000    16.0000 </r>
       <r>   -17.8850     0.0000    16.0000 </r>
       <r>   -17.6356     0.0000    16.0000 </r>
       <r>   -17.3861     0.0000    16.0000 </r>
       <r>   -17.1367     0.0000    16.0000 </r>
       <r>   -16.8872     0.0000    16.0000 </r>
       <r>   -16.6378     0.0000    16.0000 </r>
       <r>   -16.3883     0.0000    16.0000 </r>
       <r>   -16.1388     0.0000    16.0000 </r>
       <r>   -15.8894     0.0000    16.0000 </r>
       <r>   -15.6399     0.0000    16.0000 </r>
       <r>   -15.3905     0.0000    16.0000 </r>
       <r>   -15.1410     0.0000    16.0000 </r>
       <r>   -14.8916     0.0000    16.0000 </r>
       <r>   -14.6421     0.0000    16.0000 </r>
       <r>   -14.3927     0.0000    16.0000 </r>
       <r>   -14.1432     0.0000    16.0000 </r>
       <r>   -13.8938     0.0000    16.0000 </r>
       <r>   -13.6443     0.0000    16.0000 </r>
       <r>   -13.3948     0.0000    16.0000 </r>
       <r>   -13.1454     0.0000    16.0000 </r>
       <r>   -12.8959     0.0000    16.0000 </r>
       <r>   -12.6465     0.0000    16.0000 </r>
       <r>   -12.3970     0.0000    16.0000 </r>
       <r>   -12.1476     0.0000    16.0000 </r>
       <r>   -11.8981     0.0000    16.0000 </r>
       <r>   -11.6487     0.0000    16.0000 </r>
       <r>   -11.3992     0.0000    16.0000 </r>
       <r>   -11.1497     0.0000    16.0000 </r>
       <r>   -10.9003     0.0000    16.0000 </r>
       <r>   -10.6508     0.0000    16.0000 </r>
       <r>   -10.4014     0.0000    16.0000 </r>
       <r>   -10.1519     0.0000    16.0000 </r>
       <r>    -9.9025     0.0000    16.0000 </r>
       <r>    -9.6530     0.0000    16.0000 </r>
       <r>    -9.4036     0.0000    16.0000 </r>
       <r>    -9.1541     0.0000    16.0000 </r>
       <r>    -8.9046     0.0000    16.0000 </r>
       <r>    -8.6552     0.0000    16.0000 </r>
       <r>    -8.4057     0.0000    16.0000 </r>
       <r>    -8.1563     0.0000    16.0000 </r>
       <r>    -7.9068     0.0000    16.0000 </r>
       <r>    -7.6574     0.0000    16.0000 </r>
       <r>    -7.4079     0.0000    16.0000 </r>
       <r>    -7.1585     0.0000    16.0000 </r>
       <r>    -6.9090     0.0000    16.0000 </r>
       <r>    -6.6595     0.0000    16.0000 </r>
       <r>    -6.4101     0.0000    16.0000 </r>
       <r>    -6.1606     0.0000    16.0000 </r>
       <r>    -5.9112     0.0000    16.0000 </r>
       <r>    -5.6617     0.0000    16.0000 </r>
       <r>    -5.4123     0.0000    16.0000 </r>
       <r>    -5.1628     0.0000    16.0000 </r>
       <r>    -4.9134     0.0000    16.0000 </r>
       <r>    -4.6639     0.0000    16.0000 </r>
       <r>    -4.4144     0.0000    16.0000 </r>
       <r>    -4.1650     0.0000    16.0000 </r>
       <r>    -3.9155     0.0000    16.0000 </r>
       <r>    -3.6661     0.0682    16.0170 </r>
       <r>    -3.4166     0.2175    16.0952 </r>
       <r>    -3.1672     0.2706    16.2050 </r>
       <r>    -2.9177     0.3388    16.3094 </r>
       <r>    -2.6683     0.2185    16.4323 </r>
       <r>    -2.4188     0.4359    16.5466 </r>
       <r>    -2.1693     0.1046    16.6661 </r>
       <r>    -1.9199     0.0264    16.7285 </r>
       <r>    -1.6704     0.5754    17.0074 </r>
       <r>    -1.4210     0.2708    17.0880 </r>
       <r>    -1.1715     0.9649    17.3795 </r>
       <r>    -0.9221     0.9278    17.6561 </r>
       <r>    -0.6726     0.5982    17.8606 </r>
       <r>    -0.4232     1.6654    18.3290 </r>
       <r>    -0.1737     0.4599    18.5089 </r>
       <r>     0.0758     0.3749    18.6516 </r>
       <r>     0.3252     0.6959    19.0375 </r>
       <r>     0.5747     0.4969    19.2282 </r>
       <r>     0.8241     1.0382    19.6199 </r>
       <r>     1.0736     0.1879    19.8393 </r>
       <r>     1.3230     0.2907    19.9742 </r>
       <r>     1.5725     0.1204    20.0519 </r>
       <r>     1.8219     0.8491    20.2719 </r>
       <r>     2.0714     0.7132    20.5657 </r>
       <r>     2.3209     0.9819    20.9550 </r>
       <r>     2.5703     0.2863    21.0955 </r>
       <r>     2.8198     0.5567    21.2686 </r>
       <r>     3.0692     1.0696    21.6496 </r>
       <r>     3.3187     0.8771    21.9530 </r>
       <r>     3.5681     0.8925    22.2336 </r>
       <r>     3.8176     1.3816    22.6724 </r>
       <r>     4.0670     1.4754    23.1710 </r>
       <r>     4.3165     1.3820    23.6174 </r>
       <r>     4.5660     1.1101    24.1012 </r>
       <r>     4.8154     1.2630    24.5818 </r>
       <r>     5.0649     1.1157    25.1076 </r>
       <r>     5.3143     1.6901    25.7589 </r>
       <r>     5.5638     1.9341    26.5007 </r>
       <r>     5.8132     1.3550    27.0626 </r>
       <r>     6.0627     1.3574    27.5967 </r>
       <r>     6.3121     2.1549    28.3555 </r>
       <r>     6.5616     3.0186    29.3793 </r>
       <r>     6.8111     1.6613    30.2587 </r>
       <r>     7.0605     1.3578    30.8330 </r>
       <r>     7.3100     1.8519    31.4169 </r>
       <r>     7.5594     1.9432    32.1661 </r>
       <r>     7.8089     2.4949    33.0402 </r>
       <r>     8.0583     2.2266    33.8217 </r>
       <r>     8.3078     1.9663    34.6635 </r>
       <r>     8.5572     1.4046    35.3208 </r>
       <r>     8.8067     1.4067    35.9804 </r>
       <r>     9.0562     2.6787    36.9823 </r>
       <r>     9.3056     1.1104    37.5323 </r>
       <r>     9.5551     0.5144    37.8516 </r>
       <r>     9.8045     0.5489    38.0532 </r>
       <r>    10.0540     0.5813    38.2615 </r>
       <r>    10.3034     0.8006    38.5274 </r>
       <r>    10.5529     0.8657    38.8869 </r>
       <r>    10.8023     0.9880    39.2232 </r>
       <r>    11.0518     1.2531    39.7245 </r>
       <r>    11.3013     1.3308    40.1845 </r>
       <r>    11.5507     0.8935    40.5724 </r>
       <r>    11.8002     0.9366    40.8763 </r>
       <r>    12.0496     0.8106    41.1927 </r>
       <r>    12.2991     1.4311    41.6642 </r>
       <r>    12.5485     1.1486    42.1017 </r>
       <r>    12.7980     1.4602    42.6328 </r>
       <r>    13.0474     2.0521    43.4377 </r>
       <r>    13.2969     1.9449    44.1538 </r>
       <r>    13.5464     2.7196    45.1882 </r>
       <r>    13.7958     1.7711    45.8037 </r>
       <r>    14.0453     2.2503    46.6606 </r>
       <r>    14.2947     1.2525    47.1600 </r>
       <r>    14.5442     0.7013    47.5140 </r>
       <r>    14.7936     0.6587    47.8202 </r>
       <r>    15.0431     0.2182    47.9288 </r>
       <r>    15.2925     0.0221    47.9564 </r>
       <r>    15.5420     0.0947    47.9854 </r>
       <r>    15.7914     0.0219    47.9945 </r>
       <r>    16.0409     0.0219    48.0000 </r>
       <r>    16.2904     0.0000    48.0000 </r>
       <r>    16.5398     0.0000    48.0000 </r>
       <r>    16.7893     0.0000    48.0000 </r>
       <r>    17.0387     0.0000    48.0000 </r>
       <r>    17.2882     0.0000    48.0000 </r>
       <r>    17.5376     0.0000    48.0000 </r>
       <r>    17.7871     0.0000    48.0000 </r>
       <r>    18.0365     0.0000    48.0000 </r>
       <r>    18.2860     0.0000    48.0000 </r>
       <r>    18.5355     0.0000    48.0000 </r>
       <r>    18.7849     0.0000    48.0000 </r>
       <r>    19.0344     0.0000    48.0000 </r>
       <r>    19.2838     0.0000    48.0000 </r>
      </set>
     </set>
    </array>
   </total>
  </dos>
 </calculation>
 <structure name="finalpos" >
  <crystal>
   <varray name="basis" >
    <v>       2.94284020      -0.00303544       6.54214232 </v>
    <v>       1.40124907       2.58782000       6.54214232 </v>
    <v>      -0.00509999      -0.00303544       7.17355649 </v>
   </varray>
   <i name="volume">     54.77808054 </i>
   <varray name="rec_basis" >
    <v>       0.33925488      -0.18411204       0.00016329 </v>
    <v>       0.00003499       0.38599372       0.00016336 </v>
    <v>      -0.30942568      -0.18411212       0.13910298 </v>
   </varray>
  </crystal>
  <varray name="positions" >
   <v>       0.81833097       0.81833097       0.81833097 </v>
   <v>       0.18166903       0.18166903       0.18166903 </v>
   <v>       0.33210285       0.33210285       0.33210285 </v>
   <v>       0.66789715       0.66789715       0.66789715 </v>
   <v>       0.92434714       0.92434714       0.92434714 </v>
   <v>       0.07565286       0.07565286       0.07565286 </v>
  </varray>
 </structure>
</modeling>
