 vasp.6.2.0 18Jan21 (build Jan 05 2022 15:41:44) complex                        
  
 executed on             LinuxIFC date 2025.05.07  14:21:04
 running on   24 total cores
 distrk:  each k-point on   12 cores,    2 groups
 distr:  one band on NCORE=   2 cores,    6 groups


--------------------------------------------------------------------------------------------------------


 INCAR:
   SYSTEM = routine with relax: pwdword
   ICHARG = 2
   NPAR = 6
   KPAR = 2
   NCORE = 2
   ADDGRID = T
   PREC = Acc
   ENCUT = 600
   METAGGA = R2SCAN
   LASPH = .TRUE.
   LMIXTAU = .FALSE.
   ALGO = A
   EDIFF = 1E-9
   NELM = 100
   NELMIN = 6
   IALGO = 38
   LREAL = F
   NSW = 0
   ISIF = -1
   ISMEAR = 0
   SIGMA = 0.02
   SYMPREC = 1E-4

 POTCAR:    PAW_PBE B 06Sep2000                   
 POTCAR:    PAW_PBE Mo_sv 02Feb2006               
 POTCAR:    PAW_PBE Si 05Jan2001                  
 -----------------------------------------------------------------------------
|                                                                             |
|           W    W    AA    RRRRR   N    N  II  N    N   GGGG   !!!           |
|           W    W   A  A   R    R  NN   N  II  NN   N  G    G  !!!           |
|           W    W  A    A  R    R  N N  N  II  N N  N  G       !!!           |
|           W WW W  AAAAAA  RRRRR   N  N N  II  N  N N  G  GGG   !            |
|           WW  WW  A    A  R   R   N   NN  II  N   NN  G    G                |
|           W    W  A    A  R    R  N    N  II  N    N   GGGG   !!!           |
|                                                                             |
|     For optimal performance we recommend to set                             |
|       NCORE = 2 up to number-of-cores-per-socket                            |
|     NCORE specifies how many cores store one orbital (NPAR=cpu/NCORE).      |
|     This setting can greatly improve the performance of VASP for DFT.       |
|     The default, NCORE=1 might be grossly inefficient on modern             |
|     multi-core architectures or massively parallel machines. Do your        |
|     own testing! More info at https://www.vasp.at/wiki/index.php/NCORE      |
|     Unfortunately you need to use the default for GW and RPA                |
|     calculations (for HF NCORE is supported but not extensively tested      |
|     yet).                                                                   |
|                                                                             |
 -----------------------------------------------------------------------------

 POTCAR:    PAW_PBE B 06Sep2000                   
   VRHFIN =B: s2p1                                                                                  
   LEXCH  = PE                                                                                      
   EATOM  =    71.1703 eV,    5.2309 Ry                                                             
                                                                                                    
   TITEL  = PAW_PBE B 06Sep2000                                                                     
   LULTRA =        F    use ultrasoft PP ?                                                          
   IUNSCR =        1    unscreen: 0-lin 1-nonlin 2-no                                               
   RPACOR =    1.200    partial core radius                                                         
   POMASS =   10.811; ZVAL   =    3.000    mass and valenz                                          
   RCORE  =    1.700    outmost cutoff radius                                                       
   RWIGS  =    1.710; RWIGS  =    0.905    wigner-seitz radius (au A)                               
   ENMAX  =  318.614; ENMIN  =  238.960 eV                                                          
   ICORE  =        2    local potential                                                             
   LCOR   =        T    correct aug charges                                                         
   LPAW   =        T    paw PP                                                                      
   EAUG   =  535.514                                                                                
   DEXC   =    0.000                                                                                
   RMAX   =    1.732    core radius for proj-oper                                                   
   RAUG   =    1.300    factor for augmentation sphere                                              
   RDEP   =    1.757    radius for radial grids                                                     
   RDEPT  =    1.436    core radius for aug-charge                                                  
                                                                                                    
   Atomic configuration                                                                             
    4 entries                                                                                       
     n  l   j            E        occ.                                                              
     1  0  0.50      -180.5896   2.0000                                                             
     2  0  0.50        -9.4431   2.0000                                                             
     2  1  0.50        -3.6068   1.0000                                                             
     3  2  1.50        -4.0817   0.0000                                                             
   Description                                                                                      
     l       E           TYP  RCUT    TYP  RCUT                                                     
     0     -9.4430752     23  1.500                                                                 
     0      0.8675899     23  1.500                                                                 
     1     -3.6067955     23  1.700                                                                 
     1      6.1086146     23  1.700                                                                 
     2     -4.0817478      7  1.700                                                                 
  local pseudopotential read in
  partial core-charges read in
  partial kinetic energy density read in
  atomic valenz-charges read in
  non local Contribution for L=           0  read in
    real space projection operators read in
  non local Contribution for L=           0  read in
    real space projection operators read in
  non local Contribution for L=           1  read in
    real space projection operators read in
  non local Contribution for L=           1  read in
    real space projection operators read in
    PAW grid and wavefunctions read in
 
   number of l-projection  operators is LMAX  =           4
   number of lm-projection operators is LMMAX =           8
 
 POTCAR:    PAW_PBE Mo_sv 02Feb2006               
   VRHFIN =Mo: 4p5s4d                                                                               
   LEXCH  = PE                                                                                      
   EATOM  =  1862.2866 eV,  136.8742 Ry                                                             
                                                                                                    
   TITEL  = PAW_PBE Mo_sv 02Feb2006                                                                 
   LULTRA =        F    use ultrasoft PP ?                                                          
   IUNSCR =        1    unscreen: 0-lin 1-nonlin 2-no                                               
   RPACOR =    2.200    partial core radius                                                         
   POMASS =   95.940; ZVAL   =   14.000    mass and valenz                                          
   RCORE  =    2.500    outmost cutoff radius                                                       
   RWIGS  =    2.750; RWIGS  =    1.455    wigner-seitz radius (au A)                               
   ENMAX  =  242.676; ENMIN  =  182.007 eV                                                          
   ICORE  =        3    local potential                                                             
   LCOR   =        T    correct aug charges                                                         
   LPAW   =        T    paw PP                                                                      
   EAUG   =  446.014                                                                                
   DEXC   =    0.000                                                                                
   RMAX   =    2.563    core radius for proj-oper                                                   
   RAUG   =    1.300    factor for augmentation sphere                                              
   RDEP   =    2.641    radius for radial grids                                                     
   RDEPT  =    2.031    core radius for aug-charge                                                  
                                                                                                    
   Atomic configuration                                                                             
   11 entries                                                                                       
     n  l   j            E        occ.                                                              
     1  0  0.50    -19819.0341   2.0000                                                             
     2  0  0.50     -2799.0127   2.0000                                                             
     2  1  1.50     -2502.0276   6.0000                                                             
     3  0  0.50      -476.4449   2.0000                                                             
     3  1  1.50      -379.1496   6.0000                                                             
     3  2  2.50      -220.9367  10.0000                                                             
     4  0  0.50       -64.3378   2.0000                                                             
     5  0  0.50        -4.0862   1.0000                                                             
     4  1  1.50       -38.4773   6.0000                                                             
     4  2  2.50        -3.7535   5.0000                                                             
     4  3  2.50        -1.3606   0.0000                                                             
   Description                                                                                      
     l       E           TYP  RCUT    TYP  RCUT                                                     
     0    -64.3377829     23  2.100                                                                 
     0     -4.0861640     23  2.400                                                                 
     1    -38.4772993     23  2.100                                                                 
     1     13.6058260     23  2.100                                                                 
     2     -3.7534941     23  2.400                                                                 
     2     -5.1140767     23  2.400                                                                 
     3     -4.0817478     23  2.500                                                                 
  local pseudopotential read in
  partial core-charges read in
  partial kinetic energy density read in
  atomic valenz-charges read in
  non local Contribution for L=           0  read in
    real space projection operators read in
  non local Contribution for L=           0  read in
    real space projection operators read in
  non local Contribution for L=           1  read in
    real space projection operators read in
  non local Contribution for L=           1  read in
    real space projection operators read in
  non local Contribution for L=           2  read in
    real space projection operators read in
  non local Contribution for L=           2  read in
    real space projection operators read in
    PAW grid and wavefunctions read in
 
   number of l-projection  operators is LMAX  =           6
   number of lm-projection operators is LMMAX =          18
 
 POTCAR:    PAW_PBE Si 05Jan2001                  
   VRHFIN =Si: s2p2                                                                                 
   LEXCH  = PE                                                                                      
   EATOM  =   103.0669 eV,    7.5752 Ry                                                             
                                                                                                    
   TITEL  = PAW_PBE Si 05Jan2001                                                                    
   LULTRA =        F    use ultrasoft PP ?                                                          
   IUNSCR =        1    unscreen: 0-lin 1-nonlin 2-no                                               
   RPACOR =    1.500    partial core radius                                                         
   POMASS =   28.085; ZVAL   =    4.000    mass and valenz                                          
   RCORE  =    1.900    outmost cutoff radius                                                       
   RWIGS  =    2.480; RWIGS  =    1.312    wigner-seitz radius (au A)                               
   ENMAX  =  245.345; ENMIN  =  184.009 eV                                                          
   ICORE  =        2    local potential                                                             
   LCOR   =        T    correct aug charges                                                         
   LPAW   =        T    paw PP                                                                      
   EAUG   =  322.069                                                                                
   DEXC   =    0.000                                                                                
   RMAX   =    1.950    core radius for proj-oper                                                   
   RAUG   =    1.300    factor for augmentation sphere                                              
   RDEP   =    1.993    radius for radial grids                                                     
   RDEPT  =    1.837    core radius for aug-charge                                                  
                                                                                                    
   Atomic configuration                                                                             
    6 entries                                                                                       
     n  l   j            E        occ.                                                              
     1  0  0.50     -1785.8828   2.0000                                                             
     2  0  0.50      -139.4969   2.0000                                                             
     2  1  1.50       -95.5546   6.0000                                                             
     3  0  0.50       -10.8127   2.0000                                                             
     3  1  0.50        -4.0811   2.0000                                                             
     3  2  1.50        -4.0817   0.0000                                                             
   Description                                                                                      
     l       E           TYP  RCUT    TYP  RCUT                                                     
     0    -10.8127223     23  1.900                                                                 
     0     -7.6451159     23  1.900                                                                 
     1     -4.0811372     23  1.900                                                                 
     1      2.4879257     23  1.900                                                                 
     2     -4.0817478      7  1.900                                                                 
  local pseudopotential read in
  partial core-charges read in
  partial kinetic energy density read in
  atomic valenz-charges read in
  non local Contribution for L=           0  read in
    real space projection operators read in
  non local Contribution for L=           0  read in
    real space projection operators read in
  non local Contribution for L=           1  read in
    real space projection operators read in
  non local Contribution for L=           1  read in
    real space projection operators read in
    PAW grid and wavefunctions read in
 
   number of l-projection  operators is LMAX  =           4
   number of lm-projection operators is LMMAX =           8
 
  PAW_PBE B 06Sep2000                   :
 energy of atom  1       EATOM=  -71.1703
 kinetic energy error for atom=    0.0007 (will be added to EATOM!!)
  PAW_PBE Mo_sv 02Feb2006               :
 energy of atom  2       EATOM=-1862.2866
 kinetic energy error for atom=    0.0041 (will be added to EATOM!!)
  PAW_PBE Si 05Jan2001                  :
 energy of atom  3       EATOM= -103.0669
 kinetic energy error for atom=    0.0003 (will be added to EATOM!!)
 
 
 POSCAR: EA14
  positions in direct lattice
  No initial velocities read in

 METAGGA = R2SCA    LMAXTAU =  6    LMIXTAU =  F

 exchange correlation table for  LEXCH =        8
   RHO(1)=    0.500       N(1)  =     2000
   RHO(2)=  100.500       N(2)  =     4000
 


--------------------------------------------------------------------------------------------------------


 ion  position               nearest neighbor table
   1  0.242  0.742  0.984-   8 2.19   5 2.33
   2  0.758  0.258  0.016-   8 2.19   5 2.33
   3  0.742  0.758  0.500-   5 2.19   8 2.33
   4  0.258  0.242  0.500-   5 2.19   8 2.33
   5  0.500  0.000  0.500-   6 2.07   7 2.07   3 2.19   4 2.19   2 2.33   1 2.33
   6  0.250  0.750  0.500-   5 2.07   8 2.07   9 3.19  10 3.19   9 3.19  10 3.19
   7  0.750  0.250  0.500-   5 2.07   8 2.07   9 3.19  10 3.19  10 3.19   9 3.19
   8  0.000  0.500  0.500-   6 2.07   7 2.07   1 2.19   2 2.19   3 2.33   4 2.33
   9  0.250  0.250  0.000-   6 3.19   7 3.19   6 3.19   7 3.19
  10  0.750  0.750  0.000-   6 3.19   7 3.19   7 3.19   6 3.19
 
  LATTYP: Found a body centered tetragonal cell.
 ALAT       =     6.3872109114
 C/A-ratio  =     1.2976053265
  
  Lattice vectors:
  
 A1 = (   5.4517799250,   0.0000000000,  -2.8017140187)
 A2 = (  -2.0314432097,   5.0591642429,  -2.8017140187)
 A3 = (   0.0000000000,   0.0000000000,   6.1295600000)


Analysis of symmetry for initial positions (statically):
=====================================================================
 Subroutine PRICEL returns:
 Original cell was already a primitive cell.
 

 Routine SETGRP: Setting up the symmetry group for a 
 body centered tetragonal supercell.


 Subroutine GETGRP returns: Found 16 space group operations
 (whereof  8 operations were pure point group operations)
 out of a pool of 16 trial point group operations.


The static configuration has the point symmetry C_4h.
 The point group associated with its full space group is D_4h.


Analysis of symmetry for dynamics (positions and initial velocities):
=====================================================================
 Subroutine PRICEL returns:
 Original cell was already a primitive cell.
 

 Routine SETGRP: Setting up the symmetry group for a 
 body centered tetragonal supercell.


 Subroutine GETGRP returns: Found 16 space group operations
 (whereof  8 operations were pure point group operations)
 out of a pool of 16 trial point group operations.


The dynamic configuration has the point symmetry C_4h.
 The point group associated with its full space group is D_4h.


 Subroutine INISYM returns: Found 16 space group operations
 (whereof  8 operations are pure point group operations),
 and found     1 'primitive' translations


----------------------------------------------------------------------------------------

                                     Primitive cell                                     

  volume of cell :     169.0622

  direct lattice vectors                    reciprocal lattice vectors
     5.451779925  0.000000000 -2.801714019     0.183426333  0.073652517  0.000000000
    -2.031443210  5.059164243 -2.801714019     0.000000000  0.197661106  0.000000000
     0.000000000  0.000000000  6.129560000     0.083840949  0.124012683  0.163143847

  length of vectors
     6.129560000  6.129560000  6.129560000     0.197661106  0.197661106  0.221414465

  position of ions in fractional coordinates (direct lattice)
     0.242110000  0.742110000  0.984220000
     0.757890000  0.257890000  0.015780000
     0.742110000  0.757890000  0.500000000
     0.257890000  0.242110000  0.500000000
     0.500000000  0.000000000  0.500000000
     0.250000000  0.750000000  0.500000000
     0.750000000  0.250000000  0.500000000
     0.000000000  0.500000000  0.500000000
     0.250000000  0.250000000  1.000000000
     0.750000000  0.750000000  1.000000000

  ion indices of the primitive-cell ions
   primitive index   ion index
                 1           1
                 2           2
                 3           3
                 4           4
                 5           5
                 6           6
                 7           7
                 8           8
                 9           9
                10          10

----------------------------------------------------------------------------------------

 
 
 KPOINTS: EA                                      

Automatic generation of k-mesh.
 Grid dimensions read from file:
 generate k-points for:    7    7    8

 Generating k-lattice:

  Cartesian coordinates                     Fractional coordinates (reciprocal lattice)
     0.026203762  0.010521788  0.000000000     0.142857143 -0.000000000  0.000000000
     0.000000000  0.028237301  0.000000000     0.000000000  0.142857143  0.000000000
     0.010480119  0.015501585  0.020392981     0.000000000 -0.000000000  0.125000000

  Length of vectors
     0.028237301  0.028237301  0.027676808

  Shift w.r.t. Gamma in fractional coordinates (k-lattice)
     0.000000000  0.000000000  0.000000000

 -----------------------------------------------------------------------------
|                                                                             |
|           W    W    AA    RRRRR   N    N  II  N    N   GGGG   !!!           |
|           W    W   A  A   R    R  NN   N  II  NN   N  G    G  !!!           |
|           W    W  A    A  R    R  N N  N  II  N N  N  G       !!!           |
|           W WW W  AAAAAA  RRRRR   N  N N  II  N  N N  G  GGG   !            |
|           WW  WW  A    A  R   R   N   NN  II  N   NN  G    G                |
|           W    W  A    A  R    R  N    N  II  N    N   GGGG   !!!           |
|                                                                             |
|     Your reciprocal lattice and k-lattice belong to different lattice       |
|     classes:                                                                |
|                                                                             |
|        The reciprocal lattice is body-centered tetragonal,                  |
|        whereas your k-lattice is base-centered monoclinic.                  |
|                                                                             |
|     Results are often still useful ...                                      |
|                                                                             |
 -----------------------------------------------------------------------------

 WARNING: IBZKPT: internal override: KBLOWUP is changed to .FALSE.
      ... skipping the blow-up phase ...

 
 Subroutine IBZKPT returns following result:
 ===========================================
 
 Found    116 irreducible k-points:
 
 Following reciprocal coordinates:
            Coordinates               Weight
  0.000000  0.000000  0.000000      1.000000
  0.142857  0.000000  0.000000      4.000000
  0.285714  0.000000  0.000000      4.000000
  0.428571  0.000000  0.000000      4.000000
  0.142857  0.142857  0.000000      2.000000
  0.285714  0.142857  0.000000      4.000000
  0.428571  0.142857  0.000000      4.000000
 -0.428571  0.142857  0.000000      4.000000
 -0.285714  0.142857  0.000000      4.000000
 -0.142857  0.142857  0.000000      2.000000
  0.285714  0.285714  0.000000      2.000000
  0.428571  0.285714  0.000000      4.000000
 -0.428571  0.285714  0.000000      4.000000
 -0.285714  0.285714  0.000000      2.000000
  0.428571  0.428571  0.000000      2.000000
 -0.428571  0.428571  0.000000      2.000000
  0.000000  0.000000  0.125000      2.000000
  0.142857  0.000000  0.125000      4.000000
  0.285714 -0.000000  0.125000      4.000000
  0.428571  0.000000  0.125000      4.000000
 -0.428571  0.000000  0.125000      4.000000
 -0.285714  0.000000  0.125000      4.000000
 -0.142857 -0.000000  0.125000      4.000000
  0.142857  0.142857  0.125000      2.000000
  0.285714  0.142857  0.125000      4.000000
  0.428571  0.142857  0.125000      4.000000
 -0.428571  0.142857  0.125000      4.000000
 -0.285714  0.142857  0.125000      4.000000
 -0.142857  0.142857  0.125000      4.000000
  0.285714  0.285714  0.125000      2.000000
  0.428571  0.285714  0.125000      4.000000
 -0.428571  0.285714  0.125000      4.000000
 -0.285714  0.285714  0.125000      4.000000
 -0.142857  0.285714  0.125000      4.000000
  0.428571  0.428571  0.125000      2.000000
 -0.428571  0.428571  0.125000      4.000000
 -0.285714  0.428571  0.125000      4.000000
 -0.142857  0.428571  0.125000      4.000000
 -0.428571 -0.428571  0.125000      2.000000
 -0.285714 -0.428571  0.125000      4.000000
 -0.142857 -0.428571  0.125000      4.000000
 -0.285714 -0.285714  0.125000      2.000000
 -0.142857 -0.285714  0.125000      4.000000
 -0.142857 -0.142857  0.125000      2.000000
  0.000000  0.000000  0.250000      2.000000
  0.142857  0.000000  0.250000      4.000000
  0.285714  0.000000  0.250000      4.000000
  0.428571  0.000000  0.250000      4.000000
 -0.428571 -0.000000  0.250000      4.000000
 -0.285714 -0.000000  0.250000      4.000000
 -0.142857  0.000000  0.250000      4.000000
  0.142857  0.142857  0.250000      2.000000
  0.285714  0.142857  0.250000      4.000000
  0.428571  0.142857  0.250000      4.000000
 -0.428571  0.142857  0.250000      4.000000
 -0.285714  0.142857  0.250000      4.000000
 -0.142857  0.142857  0.250000      4.000000
  0.285714  0.285714  0.250000      2.000000
  0.428571  0.285714  0.250000      4.000000
 -0.428571  0.285714  0.250000      4.000000
 -0.285714  0.285714  0.250000      4.000000
 -0.142857  0.285714  0.250000      4.000000
  0.428571  0.428571  0.250000      2.000000
 -0.428571  0.428571  0.250000      4.000000
 -0.285714  0.428571  0.250000      4.000000
 -0.142857  0.428571  0.250000      4.000000
 -0.428571 -0.428571  0.250000      2.000000
 -0.285714 -0.428571  0.250000      4.000000
 -0.142857 -0.428571  0.250000      4.000000
 -0.285714 -0.285714  0.250000      2.000000
 -0.142857 -0.285714  0.250000      4.000000
 -0.142857 -0.142857  0.250000      2.000000
  0.000000 -0.000000  0.375000      2.000000
  0.142857 -0.000000  0.375000      4.000000
  0.285714 -0.000000  0.375000      4.000000
  0.428571 -0.000000  0.375000      4.000000
 -0.428571 -0.000000  0.375000      4.000000
 -0.285714 -0.000000  0.375000      4.000000
 -0.142857 -0.000000  0.375000      4.000000
  0.142857  0.142857  0.375000      2.000000
  0.285714  0.142857  0.375000      4.000000
  0.428571  0.142857  0.375000      4.000000
 -0.428571  0.142857  0.375000      4.000000
 -0.285714  0.142857  0.375000      4.000000
 -0.142857  0.142857  0.375000      4.000000
  0.285714  0.285714  0.375000      2.000000
  0.428571  0.285714  0.375000      4.000000
 -0.428571  0.285714  0.375000      4.000000
 -0.285714  0.285714  0.375000      4.000000
 -0.142857  0.285714  0.375000      4.000000
  0.428571  0.428571  0.375000      2.000000
 -0.428571  0.428571  0.375000      4.000000
 -0.285714  0.428571  0.375000      4.000000
 -0.142857  0.428571  0.375000      4.000000
 -0.428571 -0.428571  0.375000      2.000000
 -0.285714 -0.428571  0.375000      4.000000
 -0.142857 -0.428571  0.375000      4.000000
 -0.285714 -0.285714  0.375000      2.000000
 -0.142857 -0.285714  0.375000      4.000000
 -0.142857 -0.142857  0.375000      2.000000
  0.000000  0.000000  0.500000      1.000000
  0.142857  0.000000  0.500000      4.000000
  0.285714 -0.000000  0.500000      4.000000
  0.428571  0.000000  0.500000      4.000000
  0.142857  0.142857  0.500000      2.000000
  0.285714  0.142857  0.500000      4.000000
  0.428571  0.142857  0.500000      4.000000
 -0.428571  0.142857  0.500000      4.000000
 -0.285714  0.142857  0.500000      4.000000
 -0.142857  0.142857  0.500000      2.000000
  0.285714  0.285714  0.500000      2.000000
  0.428571  0.285714  0.500000      4.000000
 -0.428571  0.285714  0.500000      4.000000
 -0.285714  0.285714  0.500000      2.000000
  0.428571  0.428571  0.500000      2.000000
 -0.428571  0.428571  0.500000      2.000000
 
 Following cartesian coordinates:
            Coordinates               Weight
  0.000000  0.000000  0.000000      1.000000
  0.026204  0.010522  0.000000      4.000000
  0.052408  0.021044  0.000000      4.000000
  0.078611  0.031565  0.000000      4.000000
  0.026204  0.038759  0.000000      2.000000
  0.052408  0.049281  0.000000      4.000000
  0.078611  0.059803  0.000000      4.000000
 -0.078611 -0.003328  0.000000      4.000000
 -0.052408  0.007194  0.000000      4.000000
 -0.026204  0.017716  0.000000      2.000000
  0.052408  0.077518  0.000000      2.000000
  0.078611  0.088040  0.000000      4.000000
 -0.078611  0.024909  0.000000      4.000000
 -0.052408  0.035431  0.000000      2.000000
  0.078611  0.116277  0.000000      2.000000
 -0.078611  0.053147  0.000000      2.000000
  0.010480  0.015502  0.020393      2.000000
  0.036684  0.026023  0.020393      4.000000
  0.062888  0.036545  0.020393      4.000000
  0.089091  0.047067  0.020393      4.000000
 -0.068131 -0.016064  0.020393      4.000000
 -0.041927 -0.005542  0.020393      4.000000
 -0.015724  0.004980  0.020393      4.000000
  0.036684  0.054261  0.020393      2.000000
  0.062888  0.064782  0.020393      4.000000
  0.089091  0.075304  0.020393      4.000000
 -0.068131  0.012174  0.020393      4.000000
 -0.041927  0.022695  0.020393      4.000000
 -0.015724  0.033217  0.020393      4.000000
  0.062888  0.093020  0.020393      2.000000
  0.089091  0.103542  0.020393      4.000000
 -0.068131  0.040411  0.020393      4.000000
 -0.041927  0.050933  0.020393      4.000000
 -0.015724  0.061454  0.020393      4.000000
  0.089091  0.131779  0.020393      2.000000
 -0.068131  0.068648  0.020393      4.000000
 -0.041927  0.079170  0.020393      4.000000
 -0.015724  0.089692  0.020393      4.000000
 -0.068131 -0.100776  0.020393      2.000000
 -0.041927 -0.090254  0.020393      4.000000
 -0.015724 -0.079732  0.020393      4.000000
 -0.041927 -0.062017  0.020393      2.000000
 -0.015724 -0.051495  0.020393      4.000000
 -0.015724 -0.023258  0.020393      2.000000
  0.020960  0.031003  0.040786      2.000000
  0.047164  0.041525  0.040786      4.000000
  0.073368  0.052047  0.040786      4.000000
  0.099572  0.062569  0.040786      4.000000
 -0.057651 -0.000562  0.040786      4.000000
 -0.031447  0.009960  0.040786      4.000000
 -0.005244  0.020481  0.040786      4.000000
  0.047164  0.069762  0.040786      2.000000
  0.073368  0.080284  0.040786      4.000000
  0.099572  0.090806  0.040786      4.000000
 -0.057651  0.027675  0.040786      4.000000
 -0.031447  0.038197  0.040786      4.000000
 -0.005244  0.048719  0.040786      4.000000
  0.073368  0.108521  0.040786      2.000000
  0.099572  0.119043  0.040786      4.000000
 -0.057651  0.055912  0.040786      4.000000
 -0.031447  0.066434  0.040786      4.000000
 -0.005244  0.076956  0.040786      4.000000
  0.099572  0.147280  0.040786      2.000000
 -0.057651  0.084150  0.040786      4.000000
 -0.031447  0.094671  0.040786      4.000000
 -0.005244  0.105193  0.040786      4.000000
 -0.057651 -0.085274  0.040786      2.000000
 -0.031447 -0.074752  0.040786      4.000000
 -0.005244 -0.064231  0.040786      4.000000
 -0.031447 -0.046515  0.040786      2.000000
 -0.005244 -0.035993  0.040786      4.000000
 -0.005244 -0.007756  0.040786      2.000000
  0.031440  0.046505  0.061179      2.000000
  0.057644  0.057027  0.061179      4.000000
  0.083848  0.067548  0.061179      4.000000
  0.110052  0.078070  0.061179      4.000000
 -0.047171  0.014939  0.061179      4.000000
 -0.020967  0.025461  0.061179      4.000000
  0.005237  0.035983  0.061179      4.000000
  0.057644  0.085264  0.061179      2.000000
  0.083848  0.095786  0.061179      4.000000
  0.110052  0.106307  0.061179      4.000000
 -0.047171  0.043177  0.061179      4.000000
 -0.020967  0.053698  0.061179      4.000000
  0.005237  0.064220  0.061179      4.000000
  0.083848  0.124023  0.061179      2.000000
  0.110052  0.134545  0.061179      4.000000
 -0.047171  0.071414  0.061179      4.000000
 -0.020967  0.081936  0.061179      4.000000
  0.005237  0.092458  0.061179      4.000000
  0.110052  0.162782  0.061179      2.000000
 -0.047171  0.099651  0.061179      4.000000
 -0.020967  0.110173  0.061179      4.000000
  0.005237  0.120695  0.061179      4.000000
 -0.047171 -0.069773  0.061179      2.000000
 -0.020967 -0.059251  0.061179      4.000000
  0.005237 -0.048729  0.061179      4.000000
 -0.020967 -0.031013  0.061179      2.000000
  0.005237 -0.020492  0.061179      4.000000
  0.005237  0.007746  0.061179      2.000000
  0.041920  0.062006  0.081572      1.000000
  0.068124  0.072528  0.081572      4.000000
  0.094328  0.083050  0.081572      4.000000
  0.120532  0.093572  0.081572      4.000000
  0.068124  0.100765  0.081572      2.000000
  0.094328  0.111287  0.081572      4.000000
  0.120532  0.121809  0.081572      4.000000
 -0.036691  0.058678  0.081572      4.000000
 -0.010487  0.069200  0.081572      4.000000
  0.015717  0.079722  0.081572      2.000000
  0.094328  0.139525  0.081572      2.000000
  0.120532  0.150046  0.081572      4.000000
 -0.036691  0.086916  0.081572      4.000000
 -0.010487  0.097437  0.081572      2.000000
  0.120532  0.178284  0.081572      2.000000
 -0.036691  0.115153  0.081572      2.000000
 


--------------------------------------------------------------------------------------------------------




 Dimension of arrays:
   k-points           NKPTS =    116   k-points in BZ     NKDIM =    116   number of bands    NBANDS=     48
   number of dos      NEDOS =    301   number of ions     NIONS =     10
   non local maximal  LDIM  =      6   non local SUM 2l+1 LMDIM =     18
   total plane-waves  NPLWV = 125000
   max r-space proj   IRMAX =      1   max aug-charges    IRDMAX= 258841
   dimension x,y,z NGX =    50 NGY =   50 NGZ =   50
   dimension x,y,z NGXF=   100 NGYF=  100 NGZF=  100
   support grid    NGXF=   200 NGYF=  200 NGZF=  200
   ions per type =               4   4   2
   NGX,Y,Z   is equivalent  to a cutoff of  13.56, 13.56, 13.56 a.u.
   NGXF,Y,Z  is equivalent  to a cutoff of  27.12, 27.12, 27.12 a.u.

 SYSTEM =  routine with relax: pwdword             
 POSCAR =  EA14                                    

 Startparameter for this run:
   NWRITE =      2    write-flag & timer
   PREC   = acc       normal or accurate (medium, high low for compatibility)
   ISTART =      0    job   : 0-new  1-cont  2-samecut
   ICHARG =      2    charge: 1-file 2-atom 10-const
   ISPIN  =      1    spin polarized calculation?
   LNONCOLLINEAR =      F non collinear calculations
   LSORBIT =      F    spin-orbit coupling
   INIWAV =      1    electr: 0-lowe 1-rand  2-diag
   LASPH  =      T    aspherical Exc in radial PAW
   METAGGA=      F    non-selfconsistent MetaGGA calc.

 Electronic Relaxation 1
   ENCUT  =  600.0 eV  44.10 Ry    6.64 a.u.  12.24 12.24 12.24*2*pi/ulx,y,z
   ENINI  =  600.0     initial cutoff
   ENAUG  =  535.5 eV  augmentation charge cutoff
   NELM   =    100;   NELMIN=  6; NELMDL= -5     # of ELM steps 
   EDIFF  = 0.1E-08   stopping-criterion for ELM
   LREAL  =      F    real-space projection
   NLSPLINE    = F    spline interpolate recip. space projectors
   LCOMPAT=      F    compatible to vasp.4.4
   GGA_COMPAT  = T    GGA compatible to vasp.4.4-vasp.4.6
   LMAXPAW     = -100 max onsite density
   LMAXMIX     =    2 max onsite mixed and CHGCAR
   VOSKOWN=      0    Vosko Wilk Nusair interpolation
   ROPT   =    0.00000   0.00000   0.00000
 Ionic relaxation
   EDIFFG = 0.1E-07   stopping-criterion for IOM
   NSW    =      0    number of steps for IOM
   NBLOCK =      1;   KBLOCK =      1    inner block; outer block 
   IBRION =     -1    ionic relax: 0-MD 1-quasi-New 2-CG
   NFREE  =      0    steps in history (QN), initial steepest desc. (CG)
   ISIF   =     -1    stress and relaxation
   IWAVPR =     10    prediction:  0-non 1-charg 2-wave 3-comb
   ISYM   =      2    0-nonsym 1-usesym 2-fastsym
   LCORR  =      T    Harris-Foulkes like correction to forces

   POTIM  = 0.5000    time-step for ionic-motion
   TEIN   =    0.0    initial temperature
   TEBEG  =    0.0;   TEEND  =   0.0 temperature during run
   SMASS  =  -3.00    Nose mass-parameter (am)
   estimated Nose-frequenzy (Omega)   =  0.10E-29 period in steps = 0.13E+47 mass=  -0.859E-27a.u.
   SCALEE = 1.0000    scale energy and forces
   NPACO  =    256;   APACO  = 16.0  distance and # of slots for P.C.
   PSTRESS=    0.0 pullay stress

  Mass of Ions in am
   POMASS =  10.81 95.94 28.09
  Ionic Valenz
   ZVAL   =   3.00 14.00  4.00
  Atomic Wigner-Seitz radii
   RWIGS  =  -1.00 -1.00 -1.00
  virtual crystal weights 
   VCA    =   1.00  1.00  1.00
   NELECT =      76.0000    total number of electrons
   NUPDOWN=      -1.0000    fix difference up-down

 DOS related values:
   EMIN   =  10.00;   EMAX   =-10.00  energy-range for DOS
   EFERMI =   0.00
   ISMEAR =     0;   SIGMA  =   0.02  broadening in eV -4-tet -1-fermi 0-gaus

 Electronic relaxation 2 (details)
   IALGO  =     58    algorithm
   LDIAG  =      T    sub-space diagonalisation (order eigenvalues)
   LSUBROT=      F    optimize rotation matrix (better conditioning)
   TURBO    =      0    0=normal 1=particle mesh
   IRESTART =      0    0=no restart 2=restart with 2 vectors
   NREBOOT  =      0    no. of reboots
   NMIN     =      0    reboot dimension
   EREF     =   0.00    reference energy to select bands
   IMIX   =      4    mixing-type and parameters
     AMIX     =   0.40;   BMIX     =  1.00
     AMIX_MAG =   1.60;   BMIX_MAG =  1.00
     AMIN     =   0.10
     WC   =   100.;   INIMIX=   1;  MIXPRE=   1;  MAXMIX= -45

 Intra band minimization:
   WEIMIN = 0.0000     energy-eigenvalue tresh-hold
   EBREAK =  0.52E-11  absolut break condition
   DEPER  =   0.30     relativ break condition  

   TIME   =   0.40     timestep for ELM

  volume/ion in A,a.u.               =      16.91       114.09
  Fermi-wavevector in a.u.,A,eV,Ry     =   1.254095  2.369897 21.398633  1.572755
  Thomas-Fermi vector in A             =   2.387917
 
 Write flags
   LWAVE        =      T    write WAVECAR
   LDOWNSAMPLE  =      F    k-point downsampling of WAVECAR
   LCHARG       =      T    write CHGCAR
   LVTOT        =      F    write LOCPOT, total local potential
   LVHAR        =      F    write LOCPOT, Hartree potential only
   LELF         =      F    write electronic localiz. function (ELF)
   LORBIT       =      0    0 simple, 1 ext, 2 COOP (PROOUT), +10 PAW based schemes


 Dipole corrections
   LMONO  =      F    monopole corrections only (constant potential shift)
   LDIPOL =      F    correct potential (dipole corrections)
   IDIPOL =      0    1-x, 2-y, 3-z, 4-all directions 
   EPSILON=  1.0000000 bulk dielectric constant

 Exchange correlation treatment:
   GGA     =    --    GGA type
   LEXCH   =     8    internal setting for exchange type
   VOSKOWN=      0    Vosko Wilk Nusair interpolation
   LHFCALC =     F    Hartree Fock is set to
   LHFONE  =     F    Hartree Fock one center treatment
   AEXX    =    0.0000 exact exchange contribution

 Linear response parameters
   LEPSILON=     F    determine dielectric tensor
   LRPA    =     F    only Hartree local field effects (RPA)
   LNABLA  =     F    use nabla operator in PAW spheres
   LVEL    =     F    velocity operator in full k-point grid
   LINTERFAST=   F  fast interpolation
   KINTER  =     0    interpolate to denser k-point grid
   CSHIFT  =0.1000    complex shift for real part using Kramers Kronig
   OMEGAMAX=  -1.0    maximum frequency
   DEG_THRESHOLD= 0.2000000E-02 threshold for treating states as degnerate
   RTIME   =   -0.100 relaxation time in fs
  (WPLASMAI=    0.000 imaginary part of plasma frequency in eV, 0.658/RTIME)
   DFIELD  = 0.0000000 0.0000000 0.0000000 field for delta impulse in time
 
 Orbital magnetization related:
   ORBITALMAG=     F  switch on orbital magnetization
   LCHIMAG   =     F  perturbation theory with respect to B field
   DQ        =  0.001000  dq finite difference perturbation B field
   LLRAUG    =     F  two centre corrections for induced B field



--------------------------------------------------------------------------------------------------------


 Static calculation
 charge density and potential will be updated during run
 non-spin polarized calculation
 Conjugate gradient for all bands (Freysoldt, et al. PRB 79, 241103 (2009))
 preconditioned conjugated gradient                                        
 perform sub-space diagonalisation
    before iterative eigenvector-optimisation
 modified Broyden-mixing scheme, WC =      100.0
 initial mixing is a Kerker type mixing with AMIX =  0.4000 and BMIX =      1.0000
 Hartree-type preconditioning will be used
 using additional bands           10
 reciprocal scheme for non local part
 use partial core corrections
 no Harris-corrections to forces 
 use gradient corrections 
 use of overlap-Matrix (Vanderbilt PP)
 Gauss-broadening in eV      SIGMA  =   0.02


--------------------------------------------------------------------------------------------------------


  energy-cutoff  :      600.00
  volume of cell :      169.06
      direct lattice vectors                 reciprocal lattice vectors
     5.451779925  0.000000000 -2.801714019     0.183426333  0.073652517  0.000000000
    -2.031443210  5.059164243 -2.801714019     0.000000000  0.197661106  0.000000000
     0.000000000  0.000000000  6.129560000     0.083840949  0.124012683  0.163143847

  length of vectors
     6.129560000  6.129560000  6.129560000     0.197661106  0.197661106  0.221414465


 
 k-points in units of 2pi/SCALE and weight: EA                                      
   0.00000000  0.00000000  0.00000000       0.003
   0.02620376  0.01052179  0.00000000       0.010
   0.05240752  0.02104358  0.00000000       0.010
   0.07861129  0.03156536  0.00000000       0.010
   0.02620376  0.03875909  0.00000000       0.005
   0.05240752  0.04928088  0.00000000       0.010
   0.07861129  0.05980267  0.00000000       0.010
  -0.07861129 -0.00332806  0.00000000       0.010
  -0.05240752  0.00719372  0.00000000       0.010
  -0.02620376  0.01771551  0.00000000       0.005
   0.05240752  0.07751818  0.00000000       0.005
   0.07861129  0.08803997  0.00000000       0.010
  -0.07861129  0.02490924  0.00000000       0.010
  -0.05240752  0.03543103  0.00000000       0.005
   0.07861129  0.11627727  0.00000000       0.005
  -0.07861129  0.05314654  0.00000000       0.005
   0.01048012  0.01550159  0.02039298       0.005
   0.03668388  0.02602337  0.02039298       0.010
   0.06288764  0.03654516  0.02039298       0.010
   0.08909140  0.04706695  0.02039298       0.010
  -0.06813117 -0.01606378  0.02039298       0.010
  -0.04192741 -0.00554199  0.02039298       0.010
  -0.01572364  0.00497980  0.02039298       0.010
   0.03668388  0.05426067  0.02039298       0.005
   0.06288764  0.06478246  0.02039298       0.010
   0.08909140  0.07530425  0.02039298       0.010
  -0.06813117  0.01217352  0.02039298       0.010
  -0.04192741  0.02269531  0.02039298       0.010
  -0.01572364  0.03321710  0.02039298       0.010
   0.06288764  0.09301976  0.02039298       0.005
   0.08909140  0.10354155  0.02039298       0.010
  -0.06813117  0.04041082  0.02039298       0.010
  -0.04192741  0.05093261  0.02039298       0.010
  -0.01572364  0.06145440  0.02039298       0.010
   0.08909140  0.13177885  0.02039298       0.005
  -0.06813117  0.06864812  0.02039298       0.010
  -0.04192741  0.07916991  0.02039298       0.010
  -0.01572364  0.08969170  0.02039298       0.010
  -0.06813117 -0.10077568  0.02039298       0.005
  -0.04192741 -0.09025389  0.02039298       0.010
  -0.01572364 -0.07973211  0.02039298       0.010
  -0.04192741 -0.06201659  0.02039298       0.005
  -0.01572364 -0.05149480  0.02039298       0.010
  -0.01572364 -0.02325750  0.02039298       0.005
   0.02096024  0.03100317  0.04078596       0.005
   0.04716400  0.04152496  0.04078596       0.010
   0.07336776  0.05204675  0.04078596       0.010
   0.09957152  0.06256853  0.04078596       0.010
  -0.05765105 -0.00056219  0.04078596       0.010
  -0.03144729  0.00995959  0.04078596       0.010
  -0.00524352  0.02048138  0.04078596       0.010
   0.04716400  0.06976226  0.04078596       0.005
   0.07336776  0.08028405  0.04078596       0.010
   0.09957152  0.09080584  0.04078596       0.010
  -0.05765105  0.02767511  0.04078596       0.010
  -0.03144729  0.03819690  0.04078596       0.010
  -0.00524352  0.04871868  0.04078596       0.010
   0.07336776  0.10852135  0.04078596       0.005
   0.09957152  0.11904314  0.04078596       0.010
  -0.05765105  0.05591241  0.04078596       0.010
  -0.03144729  0.06643420  0.04078596       0.010
  -0.00524352  0.07695598  0.04078596       0.010
   0.09957152  0.14728044  0.04078596       0.005
  -0.05765105  0.08414971  0.04078596       0.010
  -0.03144729  0.09467150  0.04078596       0.010
  -0.00524352  0.10519329  0.04078596       0.010
  -0.05765105 -0.08527410  0.04078596       0.005
  -0.03144729 -0.07475231  0.04078596       0.010
  -0.00524352 -0.06423052  0.04078596       0.010
  -0.03144729 -0.04651501  0.04078596       0.005
  -0.00524352 -0.03599322  0.04078596       0.010
  -0.00524352 -0.00775592  0.04078596       0.005
   0.03144036  0.04650476  0.06117894       0.005
   0.05764412  0.05702654  0.06117894       0.010
   0.08384788  0.06754833  0.06117894       0.010
   0.11005164  0.07807012  0.06117894       0.010
  -0.04717093  0.01493939  0.06117894       0.010
  -0.02096717  0.02546118  0.06117894       0.010
   0.00523659  0.03598297  0.06117894       0.010
   0.05764412  0.08526385  0.06117894       0.005
   0.08384788  0.09578563  0.06117894       0.010
   0.11005164  0.10630742  0.06117894       0.010
  -0.04717093  0.04317669  0.06117894       0.010
  -0.02096717  0.05369848  0.06117894       0.010
   0.00523659  0.06422027  0.06117894       0.010
   0.08384788  0.12402293  0.06117894       0.005
   0.11005164  0.13454472  0.06117894       0.010
  -0.04717093  0.07141399  0.06117894       0.010
  -0.02096717  0.08193578  0.06117894       0.010
   0.00523659  0.09245757  0.06117894       0.010
   0.11005164  0.16278202  0.06117894       0.005
  -0.04717093  0.09965129  0.06117894       0.010
  -0.02096717  0.11017308  0.06117894       0.010
   0.00523659  0.12069487  0.06117894       0.010
  -0.04717093 -0.06977251  0.06117894       0.005
  -0.02096717 -0.05925072  0.06117894       0.010
   0.00523659 -0.04872893  0.06117894       0.010
  -0.02096717 -0.03101342  0.06117894       0.005
   0.00523659 -0.02049163  0.06117894       0.010
   0.00523659  0.00774567  0.06117894       0.005
   0.04192047  0.06200634  0.08157192       0.003
   0.06812424  0.07252813  0.08157192       0.010
   0.09432800  0.08304992  0.08157192       0.010
   0.12053176  0.09357171  0.08157192       0.010
   0.06812424  0.10076543  0.08157192       0.005
   0.09432800  0.11128722  0.08157192       0.010
   0.12053176  0.12180901  0.08157192       0.010
  -0.03669081  0.05867828  0.08157192       0.010
  -0.01048705  0.06920007  0.08157192       0.010
   0.01571671  0.07972185  0.08157192       0.005
   0.09432800  0.13952452  0.08157192       0.005
   0.12053176  0.15004631  0.08157192       0.010
  -0.03669081  0.08691558  0.08157192       0.010
  -0.01048705  0.09743737  0.08157192       0.005
   0.12053176  0.17828361  0.08157192       0.005
  -0.03669081  0.11515288  0.08157192       0.005
 
 k-points in reciprocal lattice and weights: EA                                      
   0.00000000  0.00000000  0.00000000       0.003
   0.14285714  0.00000000  0.00000000       0.010
   0.28571429  0.00000000  0.00000000       0.010
   0.42857143  0.00000000  0.00000000       0.010
   0.14285714  0.14285714  0.00000000       0.005
   0.28571429  0.14285714  0.00000000       0.010
   0.42857143  0.14285714  0.00000000       0.010
  -0.42857143  0.14285714  0.00000000       0.010
  -0.28571429  0.14285714  0.00000000       0.010
  -0.14285714  0.14285714  0.00000000       0.005
   0.28571429  0.28571429  0.00000000       0.005
   0.42857143  0.28571429  0.00000000       0.010
  -0.42857143  0.28571429  0.00000000       0.010
  -0.28571429  0.28571429  0.00000000       0.005
   0.42857143  0.42857143  0.00000000       0.005
  -0.42857143  0.42857143  0.00000000       0.005
   0.00000000  0.00000000  0.12500000       0.005
   0.14285714  0.00000000  0.12500000       0.010
   0.28571429 -0.00000000  0.12500000       0.010
   0.42857143  0.00000000  0.12500000       0.010
  -0.42857143  0.00000000  0.12500000       0.010
  -0.28571429  0.00000000  0.12500000       0.010
  -0.14285714 -0.00000000  0.12500000       0.010
   0.14285714  0.14285714  0.12500000       0.005
   0.28571429  0.14285714  0.12500000       0.010
   0.42857143  0.14285714  0.12500000       0.010
  -0.42857143  0.14285714  0.12500000       0.010
  -0.28571429  0.14285714  0.12500000       0.010
  -0.14285714  0.14285714  0.12500000       0.010
   0.28571429  0.28571429  0.12500000       0.005
   0.42857143  0.28571429  0.12500000       0.010
  -0.42857143  0.28571429  0.12500000       0.010
  -0.28571429  0.28571429  0.12500000       0.010
  -0.14285714  0.28571429  0.12500000       0.010
   0.42857143  0.42857143  0.12500000       0.005
  -0.42857143  0.42857143  0.12500000       0.010
  -0.28571429  0.42857143  0.12500000       0.010
  -0.14285714  0.42857143  0.12500000       0.010
  -0.42857143 -0.42857143  0.12500000       0.005
  -0.28571429 -0.42857143  0.12500000       0.010
  -0.14285714 -0.42857143  0.12500000       0.010
  -0.28571429 -0.28571429  0.12500000       0.005
  -0.14285714 -0.28571429  0.12500000       0.010
  -0.14285714 -0.14285714  0.12500000       0.005
   0.00000000  0.00000000  0.25000000       0.005
   0.14285714  0.00000000  0.25000000       0.010
   0.28571429  0.00000000  0.25000000       0.010
   0.42857143  0.00000000  0.25000000       0.010
  -0.42857143 -0.00000000  0.25000000       0.010
  -0.28571429 -0.00000000  0.25000000       0.010
  -0.14285714  0.00000000  0.25000000       0.010
   0.14285714  0.14285714  0.25000000       0.005
   0.28571429  0.14285714  0.25000000       0.010
   0.42857143  0.14285714  0.25000000       0.010
  -0.42857143  0.14285714  0.25000000       0.010
  -0.28571429  0.14285714  0.25000000       0.010
  -0.14285714  0.14285714  0.25000000       0.010
   0.28571429  0.28571429  0.25000000       0.005
   0.42857143  0.28571429  0.25000000       0.010
  -0.42857143  0.28571429  0.25000000       0.010
  -0.28571429  0.28571429  0.25000000       0.010
  -0.14285714  0.28571429  0.25000000       0.010
   0.42857143  0.42857143  0.25000000       0.005
  -0.42857143  0.42857143  0.25000000       0.010
  -0.28571429  0.42857143  0.25000000       0.010
  -0.14285714  0.42857143  0.25000000       0.010
  -0.42857143 -0.42857143  0.25000000       0.005
  -0.28571429 -0.42857143  0.25000000       0.010
  -0.14285714 -0.42857143  0.25000000       0.010
  -0.28571429 -0.28571429  0.25000000       0.005
  -0.14285714 -0.28571429  0.25000000       0.010
  -0.14285714 -0.14285714  0.25000000       0.005
   0.00000000 -0.00000000  0.37500000       0.005
   0.14285714 -0.00000000  0.37500000       0.010
   0.28571429 -0.00000000  0.37500000       0.010
   0.42857143 -0.00000000  0.37500000       0.010
  -0.42857143 -0.00000000  0.37500000       0.010
  -0.28571429 -0.00000000  0.37500000       0.010
  -0.14285714 -0.00000000  0.37500000       0.010
   0.14285714  0.14285714  0.37500000       0.005
   0.28571429  0.14285714  0.37500000       0.010
   0.42857143  0.14285714  0.37500000       0.010
  -0.42857143  0.14285714  0.37500000       0.010
  -0.28571429  0.14285714  0.37500000       0.010
  -0.14285714  0.14285714  0.37500000       0.010
   0.28571429  0.28571429  0.37500000       0.005
   0.42857143  0.28571429  0.37500000       0.010
  -0.42857143  0.28571429  0.37500000       0.010
  -0.28571429  0.28571429  0.37500000       0.010
  -0.14285714  0.28571429  0.37500000       0.010
   0.42857143  0.42857143  0.37500000       0.005
  -0.42857143  0.42857143  0.37500000       0.010
  -0.28571429  0.42857143  0.37500000       0.010
  -0.14285714  0.42857143  0.37500000       0.010
  -0.42857143 -0.42857143  0.37500000       0.005
  -0.28571429 -0.42857143  0.37500000       0.010
  -0.14285714 -0.42857143  0.37500000       0.010
  -0.28571429 -0.28571429  0.37500000       0.005
  -0.14285714 -0.28571429  0.37500000       0.010
  -0.14285714 -0.14285714  0.37500000       0.005
   0.00000000  0.00000000  0.50000000       0.003
   0.14285714  0.00000000  0.50000000       0.010
   0.28571429 -0.00000000  0.50000000       0.010
   0.42857143  0.00000000  0.50000000       0.010
   0.14285714  0.14285714  0.50000000       0.005
   0.28571429  0.14285714  0.50000000       0.010
   0.42857143  0.14285714  0.50000000       0.010
  -0.42857143  0.14285714  0.50000000       0.010
  -0.28571429  0.14285714  0.50000000       0.010
  -0.14285714  0.14285714  0.50000000       0.005
   0.28571429  0.28571429  0.50000000       0.005
   0.42857143  0.28571429  0.50000000       0.010
  -0.42857143  0.28571429  0.50000000       0.010
  -0.28571429  0.28571429  0.50000000       0.005
   0.42857143  0.42857143  0.50000000       0.005
  -0.42857143  0.42857143  0.50000000       0.005
 
 position of ions in fractional coordinates (direct lattice) 
   0.24211000  0.74211000  0.98422000
   0.75789000  0.25789000  0.01578000
   0.74211000  0.75789000  0.50000000
   0.25789000  0.24211000  0.50000000
   0.50000000  0.00000000  0.50000000
   0.25000000  0.75000000  0.50000000
   0.75000000  0.25000000  0.50000000
   0.00000000  0.50000000  0.50000000
   0.25000000  0.25000000  0.00000000
   0.75000000  0.75000000  0.00000000
 
 position of ions in cartesian coordinates  (Angst):
  -0.18762388  3.75445638  3.27533257
   3.60796060  1.30470787 -2.74920061
   2.50620991  3.83428999 -1.13779103
   0.91412681  1.22487425  1.66392299
   2.72588996  0.00000000  1.66392299
  -0.16063743  3.79437318  0.26306598
   3.58097414  1.26479106  0.26306598
  -1.01572160  2.52958212  1.66392299
   0.85508418  1.26479106 -1.40085701
   2.56525254  3.79437318 -4.20257103
 


--------------------------------------------------------------------------------------------------------


 k-point   1 :   0.0000 0.0000 0.0000  plane waves:    5661
 k-point   2 :   0.1429 0.0000 0.0000  plane waves:    5645
 k-point   3 :   0.2857 0.0000 0.0000  plane waves:    5640
 k-point   4 :   0.4286 0.0000 0.0000  plane waves:    5651
 k-point   5 :   0.1429 0.1429 0.0000  plane waves:    5630
 k-point   6 :   0.2857 0.1429 0.0000  plane waves:    5629
 k-point   7 :   0.4286 0.1429 0.0000  plane waves:    5641
 k-point   8 :  -0.4286 0.1429 0.0000  plane waves:    5657
 k-point   9 :  -0.2857 0.1429 0.0000  plane waves:    5642
 k-point  10 :  -0.1429 0.1429 0.0000  plane waves:    5636
 k-point  11 :   0.2857 0.2857 0.0000  plane waves:    5634
 k-point  12 :   0.4286 0.2857 0.0000  plane waves:    5638
 k-point  13 :  -0.4286 0.2857 0.0000  plane waves:    5657
 k-point  14 :  -0.2857 0.2857 0.0000  plane waves:    5642
 k-point  15 :   0.4286 0.4286 0.0000  plane waves:    5644
 k-point  16 :  -0.4286 0.4286 0.0000  plane waves:    5662
 k-point  17 :   0.0000 0.0000 0.1250  plane waves:    5648
 k-point  18 :   0.1429 0.0000 0.1250  plane waves:    5639
 k-point  19 :   0.2857-0.0000 0.1250  plane waves:    5648
 k-point  20 :   0.4286 0.0000 0.1250  plane waves:    5643
 k-point  21 :  -0.4286 0.0000 0.1250  plane waves:    5630
 k-point  22 :  -0.2857 0.0000 0.1250  plane waves:    5634
 k-point  23 :  -0.1429-0.0000 0.1250  plane waves:    5645
 k-point  24 :   0.1429 0.1429 0.1250  plane waves:    5633
 k-point  25 :   0.2857 0.1429 0.1250  plane waves:    5648
 k-point  26 :   0.4286 0.1429 0.1250  plane waves:    5649
 k-point  27 :  -0.4286 0.1429 0.1250  plane waves:    5635
 k-point  28 :  -0.2857 0.1429 0.1250  plane waves:    5633
 k-point  29 :  -0.1429 0.1429 0.1250  plane waves:    5644
 k-point  30 :   0.2857 0.2857 0.1250  plane waves:    5625
 k-point  31 :   0.4286 0.2857 0.1250  plane waves:    5641
 k-point  32 :  -0.4286 0.2857 0.1250  plane waves:    5650
 k-point  33 :  -0.2857 0.2857 0.1250  plane waves:    5642
 k-point  34 :  -0.1429 0.2857 0.1250  plane waves:    5641
 k-point  35 :   0.4286 0.4286 0.1250  plane waves:    5650
 k-point  36 :  -0.4286 0.4286 0.1250  plane waves:    5643
 k-point  37 :  -0.2857 0.4286 0.1250  plane waves:    5645
 k-point  38 :  -0.1429 0.4286 0.1250  plane waves:    5643
 k-point  39 :  -0.4286-0.4286 0.1250  plane waves:    5644
 k-point  40 :  -0.2857-0.4286 0.1250  plane waves:    5652
 k-point  41 :  -0.1429-0.4286 0.1250  plane waves:    5651
 k-point  42 :  -0.2857-0.2857 0.1250  plane waves:    5640
 k-point  43 :  -0.1429-0.2857 0.1250  plane waves:    5643
 k-point  44 :  -0.1429-0.1429 0.1250  plane waves:    5639
 k-point  45 :   0.0000 0.0000 0.2500  plane waves:    5648
 k-point  46 :   0.1429 0.0000 0.2500  plane waves:    5648
 k-point  47 :   0.2857 0.0000 0.2500  plane waves:    5635
 k-point  48 :   0.4286 0.0000 0.2500  plane waves:    5635
 k-point  49 :  -0.4286-0.0000 0.2500  plane waves:    5626
 k-point  50 :  -0.2857-0.0000 0.2500  plane waves:    5641
 k-point  51 :  -0.1429 0.0000 0.2500  plane waves:    5633
 k-point  52 :   0.1429 0.1429 0.2500  plane waves:    5654
 k-point  53 :   0.2857 0.1429 0.2500  plane waves:    5624
 k-point  54 :   0.4286 0.1429 0.2500  plane waves:    5639
 k-point  55 :  -0.4286 0.1429 0.2500  plane waves:    5645
 k-point  56 :  -0.2857 0.1429 0.2500  plane waves:    5644
 k-point  57 :  -0.1429 0.1429 0.2500  plane waves:    5648
 k-point  58 :   0.2857 0.2857 0.2500  plane waves:    5602
 k-point  59 :   0.4286 0.2857 0.2500  plane waves:    5638
 k-point  60 :  -0.4286 0.2857 0.2500  plane waves:    5649
 k-point  61 :  -0.2857 0.2857 0.2500  plane waves:    5644
 k-point  62 :  -0.1429 0.2857 0.2500  plane waves:    5648
 k-point  63 :   0.4286 0.4286 0.2500  plane waves:    5637
 k-point  64 :  -0.4286 0.4286 0.2500  plane waves:    5635
 k-point  65 :  -0.2857 0.4286 0.2500  plane waves:    5640
 k-point  66 :  -0.1429 0.4286 0.2500  plane waves:    5653
 k-point  67 :  -0.4286-0.4286 0.2500  plane waves:    5632
 k-point  68 :  -0.2857-0.4286 0.2500  plane waves:    5634
 k-point  69 :  -0.1429-0.4286 0.2500  plane waves:    5643
 k-point  70 :  -0.2857-0.2857 0.2500  plane waves:    5646
 k-point  71 :  -0.1429-0.2857 0.2500  plane waves:    5641
 k-point  72 :  -0.1429-0.1429 0.2500  plane waves:    5638
 k-point  73 :   0.0000-0.0000 0.3750  plane waves:    5674
 k-point  74 :   0.1429-0.0000 0.3750  plane waves:    5653
 k-point  75 :   0.2857-0.0000 0.3750  plane waves:    5642
 k-point  76 :   0.4286-0.0000 0.3750  plane waves:    5642
 k-point  77 :  -0.4286-0.0000 0.3750  plane waves:    5642
 k-point  78 :  -0.2857-0.0000 0.3750  plane waves:    5641
 k-point  79 :  -0.1429-0.0000 0.3750  plane waves:    5649
 k-point  80 :   0.1429 0.1429 0.3750  plane waves:    5632
 k-point  81 :   0.2857 0.1429 0.3750  plane waves:    5629
 k-point  82 :   0.4286 0.1429 0.3750  plane waves:    5644
 k-point  83 :  -0.4286 0.1429 0.3750  plane waves:    5650
 k-point  84 :  -0.2857 0.1429 0.3750  plane waves:    5650
 k-point  85 :  -0.1429 0.1429 0.3750  plane waves:    5651
 k-point  86 :   0.2857 0.2857 0.3750  plane waves:    5633
 k-point  87 :   0.4286 0.2857 0.3750  plane waves:    5648
 k-point  88 :  -0.4286 0.2857 0.3750  plane waves:    5649
 k-point  89 :  -0.2857 0.2857 0.3750  plane waves:    5646
 k-point  90 :  -0.1429 0.2857 0.3750  plane waves:    5645
 k-point  91 :   0.4286 0.4286 0.3750  plane waves:    5637
 k-point  92 :  -0.4286 0.4286 0.3750  plane waves:    5644
 k-point  93 :  -0.2857 0.4286 0.3750  plane waves:    5638
 k-point  94 :  -0.1429 0.4286 0.3750  plane waves:    5650
 k-point  95 :  -0.4286-0.4286 0.3750  plane waves:    5641
 k-point  96 :  -0.2857-0.4286 0.3750  plane waves:    5638
 k-point  97 :  -0.1429-0.4286 0.3750  plane waves:    5641
 k-point  98 :  -0.2857-0.2857 0.3750  plane waves:    5641
 k-point  99 :  -0.1429-0.2857 0.3750  plane waves:    5628
 k-point 100 :  -0.1429-0.1429 0.3750  plane waves:    5625
 k-point 101 :   0.0000 0.0000 0.5000  plane waves:    5662
 k-point 102 :   0.1429 0.0000 0.5000  plane waves:    5649
 k-point 103 :   0.2857-0.0000 0.5000  plane waves:    5648
 k-point 104 :   0.4286 0.0000 0.5000  plane waves:    5645
 k-point 105 :   0.1429 0.1429 0.5000  plane waves:    5638
 k-point 106 :   0.2857 0.1429 0.5000  plane waves:    5644
 k-point 107 :   0.4286 0.1429 0.5000  plane waves:    5642
 k-point 108 :  -0.4286 0.1429 0.5000  plane waves:    5645
 k-point 109 :  -0.2857 0.1429 0.5000  plane waves:    5643
 k-point 110 :  -0.1429 0.1429 0.5000  plane waves:    5632
 k-point 111 :   0.2857 0.2857 0.5000  plane waves:    5641
 k-point 112 :   0.4286 0.2857 0.5000  plane waves:    5643
 k-point 113 :  -0.4286 0.2857 0.5000  plane waves:    5637
 k-point 114 :  -0.2857 0.2857 0.5000  plane waves:    5632
 k-point 115 :   0.4286 0.4286 0.5000  plane waves:    5645
 k-point 116 :  -0.4286 0.4286 0.5000  plane waves:    5650

 maximum and minimum number of plane-waves per node :      2842     2798

 maximum number of plane-waves:      5674
 maximum index in each direction: 
   IXMAX=   12   IYMAX=   12   IZMAX=   12
   IXMIN=  -12   IYMIN=  -12   IZMIN=  -12


 parallel 3D FFT for wavefunctions:
    minimum data exchange during FFTs selected (reduces bandwidth)
 parallel 3D FFT for charge:
    minimum data exchange during FFTs selected (reduces bandwidth)


 total amount of memory used by VASP MPI-rank0   327879. kBytes
=======================================================================

   base      :      30000. kBytes
   nonl-proj :     142973. kBytes
   fftplans  :      14375. kBytes
   grid      :      11100. kBytes
   one-center:         77. kBytes
   wavefun   :     129354. kBytes
 
     INWAV:  cpu time    0.0001: real time    0.0001
 Broyden mixing: mesh for mixing (old mesh)
   NGX = 25   NGY = 25   NGZ = 25
  (NGX  =100   NGY  =100   NGZ  =100)
  gives a total of  15625 points

 initial charge density was supplied:
 charge density of overlapping atoms calculated
 number of electron      76.0000000 magnetization 
 keeping initial charge density in first step


--------------------------------------------------------------------------------------------------------


 Maximum index for augmentation-charges        22358 (set IRDMAX)


--------------------------------------------------------------------------------------------------------


 First call to EWALD:  gamma=   0.321
 Maximum number of real-space cells 3x 3x 3
 Maximum number of reciprocal cells 3x 3x 3

    FEWALD:  cpu time    0.0384: real time    0.0386


--------------------------------------- Iteration      1(   1)  ---------------------------------------


    POTLOK:  cpu time    0.1514: real time    0.2393
    SETDIJ:  cpu time    0.1080: real time    0.1092
    TRIAL :  cpu time   16.5691: real time   16.7835
    CORREC:  cpu time    0.0016: real time    0.0016
    --------------------------------------------
      LOOP:  cpu time   16.9079: real time   17.6468

 eigenvalue-minimisations  : 12312
 total energy-change (2. order) : 0.6694667E+03  (-0.4976887E+04)
 number of electron      76.0000000 magnetization 
 augmentation part       76.0000000 magnetization 

 Free energy of the ion-electron system (eV)
  ---------------------------------------------------
  alpha Z        PSCENC =       285.49818234
  Ewald energy   TEWEN  =     -4903.78226797
  -Hartree energ DENC   =     -2765.25657115
  -exchange      EXHF   =         0.00000000
  -V(xc)+E(xc)   XCENC  =       325.03003587
  PAW double counting   =      6278.15209018    -6244.81064237
  entropy T*S    EENTRO =        -0.00049733
  eigenvalues    EBANDS =      -245.30526053
  atomic energy  EATOM  =      7939.94160518
  ---------------------------------------------------
  free energy    TOTEN  =       669.46667422 eV

  energy without entropy =      669.46717155  energy(sigma->0) =      669.46692288


--------------------------------------------------------------------------------------------------------




--------------------------------------- Iteration      1(   2)  ---------------------------------------


    TRIAL :  cpu time   17.6274: real time   17.8079
    CORREC:  cpu time    0.0016: real time    0.0016
    --------------------------------------------
      LOOP:  cpu time   17.6314: real time   17.8123

 eigenvalue-minimisations  : 12552
 total energy-change (2. order) :-0.7940438E+03  (-0.7715885E+03)
 number of electron      76.0000000 magnetization 
 augmentation part       76.0000000 magnetization 

 Free energy of the ion-electron system (eV)
  ---------------------------------------------------
  alpha Z        PSCENC =       285.49818234
  Ewald energy   TEWEN  =     -4903.78226797
  -Hartree energ DENC   =     -2765.25657115
  -exchange      EXHF   =         0.00000000
  -V(xc)+E(xc)   XCENC  =       325.03003587
  PAW double counting   =      6278.15209018    -6244.81064237
  entropy T*S    EENTRO =        -0.00160307
  eigenvalues    EBANDS =     -1039.34792052
  atomic energy  EATOM  =      7939.94160518
  ---------------------------------------------------
  free energy    TOTEN  =      -124.57709151 eV

  energy without entropy =     -124.57548844  energy(sigma->0) =     -124.57628998


--------------------------------------------------------------------------------------------------------




--------------------------------------- Iteration      1(   3)  ---------------------------------------


    TRIAL :  cpu time   19.4813: real time   19.6864
    CORREC:  cpu time    0.0014: real time    0.0014
    --------------------------------------------
      LOOP:  cpu time   19.4835: real time   19.6907

 eigenvalue-minimisations  : 15324
 total energy-change (2. order) :-0.3292749E+02  (-0.3204801E+02)
 number of electron      76.0000000 magnetization 
 augmentation part       76.0000000 magnetization 

 Free energy of the ion-electron system (eV)
  ---------------------------------------------------
  alpha Z        PSCENC =       285.49818234
  Ewald energy   TEWEN  =     -4903.78226797
  -Hartree energ DENC   =     -2765.25657115
  -exchange      EXHF   =         0.00000000
  -V(xc)+E(xc)   XCENC  =       325.03003587
  PAW double counting   =      6278.15209018    -6244.81064237
  entropy T*S    EENTRO =        -0.00193163
  eigenvalues    EBANDS =     -1072.27508692
  atomic energy  EATOM  =      7939.94160518
  ---------------------------------------------------
  free energy    TOTEN  =      -157.50458647 eV

  energy without entropy =     -157.50265484  energy(sigma->0) =     -157.50362066


--------------------------------------------------------------------------------------------------------




--------------------------------------- Iteration      1(   4)  ---------------------------------------


    TRIAL :  cpu time   18.6196: real time   18.8148
    CORREC:  cpu time    0.0015: real time    0.0015
    --------------------------------------------
      LOOP:  cpu time   18.6223: real time   18.8190

 eigenvalue-minimisations  : 13860
 total energy-change (2. order) :-0.6393323E+00  (-0.6345362E+00)
 number of electron      76.0000000 magnetization 
 augmentation part       76.0000000 magnetization 

 Free energy of the ion-electron system (eV)
  ---------------------------------------------------
  alpha Z        PSCENC =       285.49818234
  Ewald energy   TEWEN  =     -4903.78226797
  -Hartree energ DENC   =     -2765.25657115
  -exchange      EXHF   =         0.00000000
  -V(xc)+E(xc)   XCENC  =       325.03003587
  PAW double counting   =      6278.15209018    -6244.81064237
  entropy T*S    EENTRO =        -0.00213252
  eigenvalues    EBANDS =     -1072.91421837
  atomic energy  EATOM  =      7939.94160518
  ---------------------------------------------------
  free energy    TOTEN  =      -158.14391881 eV

  energy without entropy =     -158.14178629  energy(sigma->0) =     -158.14285255


--------------------------------------------------------------------------------------------------------




--------------------------------------- Iteration      1(   5)  ---------------------------------------


    TRIAL :  cpu time   19.4868: real time   19.6891
    CORREC:  cpu time    0.0014: real time    0.0014
    CHARGE:  cpu time    1.5518: real time    1.5654
    --------------------------------------------
      LOOP:  cpu time   21.0415: real time   21.2589

 eigenvalue-minimisations  : 14940
 total energy-change (2. order) :-0.1682791E-01  (-0.1679132E-01)
 number of electron      76.0000001 magnetization 
 augmentation part        8.7373965 magnetization 

 Free energy of the ion-electron system (eV)
  ---------------------------------------------------
  alpha Z        PSCENC =       285.49818234
  Ewald energy   TEWEN  =     -4903.78226797
  -Hartree energ DENC   =     -2765.25657115
  -exchange      EXHF   =         0.00000000
  -V(xc)+E(xc)   XCENC  =       325.03003587
  PAW double counting   =      6278.15209018    -6244.81064237
  entropy T*S    EENTRO =        -0.00211351
  eigenvalues    EBANDS =     -1072.93106528
  atomic energy  EATOM  =      7939.94160518
  ---------------------------------------------------
  free energy    TOTEN  =      -158.16074672 eV

  energy without entropy =     -158.15863320  energy(sigma->0) =     -158.15968996


--------------------------------------------------------------------------------------------------------




--------------------------------------- Iteration      1(   6)  ---------------------------------------


    POTLOK:  cpu time    0.1201: real time    0.1210
    SETDIJ:  cpu time    0.5851: real time    0.5899
    TRIAL :  cpu time   13.2790: real time   13.4173
    CORREC:  cpu time    4.7990: real time    4.8481
    CHARGE:  cpu time    1.4370: real time    1.4499
    --------------------------------------------
      LOOP:  cpu time   20.2227: real time   20.4294

 eigenvalue-minimisations  :     0
 total energy-change (2. order) : 0.3910674E+02  (-0.6800207E+01)
 number of electron      75.9999999 magnetization 
 augmentation part        9.2950367 magnetization 

 Free energy of the ion-electron system (eV)
  ---------------------------------------------------
  alpha Z        PSCENC =       285.49818234
  Ewald energy   TEWEN  =     -4903.78226797
  -Hartree energ DENC   =     -2718.86028999
  -exchange      EXHF   =         0.00000000
  -V(xc)+E(xc)   XCENC  =       331.85022260
  PAW double counting   =     10536.51403879   -10519.22364143
  entropy T*S    EENTRO =        -0.00200370
  eigenvalues    EBANDS =     -1070.98973833
  atomic energy  EATOM  =      7939.94160518
  ---------------------------------------------------
  free energy    TOTEN  =      -119.05400232 eV

  energy without entropy =     -119.05199862  energy(sigma->0) =     -119.05300047


--------------------------------------------------------------------------------------------------------




--------------------------------------- Iteration      1(   7)  ---------------------------------------


    POTLOK:  cpu time    0.1098: real time    0.1106
    SETDIJ:  cpu time    0.5864: real time    0.5916
    TRIAL :  cpu time   13.4112: real time   13.5480
    CORREC:  cpu time    4.8367: real time    4.8867
    CHARGE:  cpu time    1.4505: real time    1.4642
    --------------------------------------------
      LOOP:  cpu time   20.3952: real time   20.6041

 eigenvalue-minimisations  :     0
 total energy-change (2. order) :-0.7074793E+01  (-0.1512808E+01)
 number of electron      76.0000000 magnetization 
 augmentation part        9.2352580 magnetization 

 Free energy of the ion-electron system (eV)
  ---------------------------------------------------
  alpha Z        PSCENC =       285.49818234
  Ewald energy   TEWEN  =     -4903.78226797
  -Hartree energ DENC   =     -2778.90152986
  -exchange      EXHF   =         0.00000000
  -V(xc)+E(xc)   XCENC  =       334.11935391
  PAW double counting   =     10155.99039736   -10133.55736681
  entropy T*S    EENTRO =        -0.00158929
  eigenvalues    EBANDS =     -1025.43516552
  atomic energy  EATOM  =      7939.94160518
  ---------------------------------------------------
  free energy    TOTEN  =      -126.12879507 eV

  energy without entropy =     -126.12720578  energy(sigma->0) =     -126.12800042


--------------------------------------------------------------------------------------------------------




--------------------------------------- Iteration      1(   8)  ---------------------------------------


    POTLOK:  cpu time    0.1166: real time    0.1176
    SETDIJ:  cpu time    0.5725: real time    0.5771
    TRIAL :  cpu time   13.3168: real time   13.4497
    CORREC:  cpu time    4.8339: real time    4.8785
    CHARGE:  cpu time    1.3866: real time    1.3973
    --------------------------------------------
      LOOP:  cpu time   20.2335: real time   20.4280

 eigenvalue-minimisations  :     0
 total energy-change (2. order) :-0.1512767E+01  (-0.3797082E+00)
 number of electron      76.0000001 magnetization 
 augmentation part        9.2683670 magnetization 

 Free energy of the ion-electron system (eV)
  ---------------------------------------------------
  alpha Z        PSCENC =       285.49818234
  Ewald energy   TEWEN  =     -4903.78226797
  -Hartree energ DENC   =     -2748.11889999
  -exchange      EXHF   =         0.00000000
  -V(xc)+E(xc)   XCENC  =       333.30961174
  PAW double counting   =      9848.72242320    -9825.83586905
  entropy T*S    EENTRO =        -0.00137599
  eigenvalues    EBANDS =     -1057.37475789
  atomic energy  EATOM  =      7939.94160518
  ---------------------------------------------------
  free energy    TOTEN  =      -127.64156175 eV

  energy without entropy =     -127.64018575  energy(sigma->0) =     -127.64087375


--------------------------------------------------------------------------------------------------------




--------------------------------------- Iteration      1(   9)  ---------------------------------------


    POTLOK:  cpu time    0.1141: real time    0.1149
    SETDIJ:  cpu time    0.5868: real time    0.5909
    TRIAL :  cpu time   12.7687: real time   12.8901
    CORREC:  cpu time    5.0769: real time    5.1202
    CHARGE:  cpu time    1.5235: real time    1.5358
    --------------------------------------------
      LOOP:  cpu time   20.0765: real time   20.2592

 eigenvalue-minimisations  :     0
 total energy-change (2. order) :-0.3800626E+00  (-0.1655864E+00)
 number of electron      76.0000001 magnetization 
 augmentation part        9.3081062 magnetization 

 Free energy of the ion-electron system (eV)
  ---------------------------------------------------
  alpha Z        PSCENC =       285.49818234
  Ewald energy   TEWEN  =     -4903.78226797
  -Hartree energ DENC   =     -2738.86244713
  -exchange      EXHF   =         0.00000000
  -V(xc)+E(xc)   XCENC  =       333.20383314
  PAW double counting   =      9666.31645745    -9642.87513861
  entropy T*S    EENTRO =        -0.00150390
  eigenvalues    EBANDS =     -1067.46047278
  atomic energy  EATOM  =      7939.94160518
  ---------------------------------------------------
  free energy    TOTEN  =      -128.02162438 eV

  energy without entropy =     -128.02012048  energy(sigma->0) =     -128.02087243


--------------------------------------------------------------------------------------------------------




--------------------------------------- Iteration      1(  10)  ---------------------------------------


    POTLOK:  cpu time    0.1122: real time    0.1131
    SETDIJ:  cpu time    0.5903: real time    0.5949
    TRIAL :  cpu time   12.1873: real time   12.3101
    CORREC:  cpu time    4.7985: real time    4.8426
    CHARGE:  cpu time    1.4595: real time    1.4712
    --------------------------------------------
      LOOP:  cpu time   19.1581: real time   19.3424

 eigenvalue-minimisations  :     0
 total energy-change (2. order) :-0.1655870E+00  (-0.5359901E-01)
 number of electron      76.0000000 magnetization 
 augmentation part        9.2916969 magnetization 

 Free energy of the ion-electron system (eV)
  ---------------------------------------------------
  alpha Z        PSCENC =       285.49818234
  Ewald energy   TEWEN  =     -4903.78226797
  -Hartree energ DENC   =     -2745.59117665
  -exchange      EXHF   =         0.00000000
  -V(xc)+E(xc)   XCENC  =       333.55124066
  PAW double counting   =      9574.71940145    -9550.63882032
  entropy T*S    EENTRO =        -0.00167132
  eigenvalues    EBANDS =     -1061.88387221
  atomic energy  EATOM  =      7939.94160518
  ---------------------------------------------------
  free energy    TOTEN  =      -128.18721142 eV

  energy without entropy =     -128.18554010  energy(sigma->0) =     -128.18637576


--------------------------------------------------------------------------------------------------------




--------------------------------------- Iteration      1(  11)  ---------------------------------------


    POTLOK:  cpu time    0.1090: real time    0.1098
    SETDIJ:  cpu time    0.5771: real time    0.5815
    TRIAL :  cpu time   12.5260: real time   12.6465
    CORREC:  cpu time    4.9004: real time    4.9442
    CHARGE:  cpu time    1.5187: real time    1.5301
    --------------------------------------------
      LOOP:  cpu time   19.6342: real time   19.8151

 eigenvalue-minimisations  :     0
 total energy-change (2. order) :-0.5360962E-01  (-0.2169885E-01)
 number of electron      76.0000000 magnetization 
 augmentation part        9.2762761 magnetization 

 Free energy of the ion-electron system (eV)
  ---------------------------------------------------
  alpha Z        PSCENC =       285.49818234
  Ewald energy   TEWEN  =     -4903.78226797
  -Hartree energ DENC   =     -2745.86332244
  -exchange      EXHF   =         0.00000000
  -V(xc)+E(xc)   XCENC  =       333.56692702
  PAW double counting   =      9558.56972105    -9534.47068614
  entropy T*S    EENTRO =        -0.00161687
  eigenvalues    EBANDS =     -1061.69930877
  atomic energy  EATOM  =      7939.94160518
[...]
     16     -27.5415      2.00000
     17      -2.7468      2.00000
     18      -2.1154      2.00000
     19      -0.3479      2.00000
     20      -0.1655      2.00000
     21       0.1329      2.00000
     22       0.2916      2.00000
     23       1.2664      2.00000
     24       1.4063      2.00000
     25       2.1095      2.00000
     26       2.1910      2.00000
     27       2.3716      2.00000
     28       3.1319      2.00000
     29       3.3026      2.00000
     30       3.5592      2.00000
     31       3.6972      2.00000
     32       3.9601      2.00000
     33       4.2588      2.00000
     34       5.1644      2.00000
     35       5.3675      2.00000
     36       5.4090      2.00000
     37       5.6554      2.00000
     38       5.9121      2.00000
     39       6.3479      1.99988
     40       6.4149      0.37143
     41       7.4635      0.00000
     42       7.6045      0.00000
     43       7.8750      0.00000
     44       8.2421      0.00000
     45       8.7411      0.00000
     46       8.9587      0.00000
     47       9.1959      0.00000
     48       9.4486      0.00000

 k-point   108 :      -0.4286    0.1429    0.5000
  band No.  band energies     occupation 
      1     -57.4008      2.00000
      2     -57.0620      2.00000
      3     -56.1008      2.00000
      4     -55.6670      2.00000
      5     -33.9031      2.00000
      6     -32.3203      2.00000
      7     -30.3742      2.00000
      8     -30.3731      2.00000
      9     -30.1477      2.00000
     10     -30.1470      2.00000
     11     -29.4301      2.00000
     12     -29.4300      2.00000
     13     -29.1632      2.00000
     14     -29.1629      2.00000
     15     -29.0340      2.00000
     16     -26.9902      2.00000
     17      -2.4066      2.00000
     18      -2.2962      2.00000
     19      -0.5221      2.00000
     20      -0.4212      2.00000
     21       0.0613      2.00000
     22       0.2890      2.00000
     23       0.9757      2.00000
     24       1.1014      2.00000
     25       1.6048      2.00000
     26       2.5878      2.00000
     27       2.6493      2.00000
     28       3.1995      2.00000
     29       3.4437      2.00000
     30       3.7941      2.00000
     31       3.9581      2.00000
     32       4.1716      2.00000
     33       4.7632      2.00000
     34       5.0140      2.00000
     35       5.2933      2.00000
     36       5.6994      2.00000
     37       5.9264      2.00000
     38       6.2020      2.00000
     39       6.2420      2.00000
     40       6.5702      0.00000
     41       7.3412      0.00000
     42       7.6359      0.00000
     43       7.7361      0.00000
     44       8.1225      0.00000
     45       8.3503      0.00000
     46       8.6292      0.00000
     47       8.9444      0.00000
     48       9.2852      0.00000

 k-point   109 :      -0.2857    0.1429    0.5000
  band No.  band energies     occupation 
      1     -57.4555      2.00000
      2     -56.9338      2.00000
      3     -56.2498      2.00000
      4     -55.5908      2.00000
      5     -34.1483      2.00000
      6     -31.5838      2.00000
      7     -30.4126      2.00000
      8     -30.4095      2.00000
      9     -30.0727      2.00000
     10     -30.0705      2.00000
     11     -29.8663      2.00000
     12     -29.5131      2.00000
     13     -29.5121      2.00000
     14     -29.1191      2.00000
     15     -29.1185      2.00000
     16     -26.6354      2.00000
     17      -2.3063      2.00000
     18      -1.8796      2.00000
     19      -1.1346      2.00000
     20      -0.9522      2.00000
     21       0.1069      2.00000
     22       0.6293      2.00000
     23       0.8853      2.00000
     24       1.0321      2.00000
     25       1.1569      2.00000
     26       2.7049      2.00000
     27       2.7568      2.00000
     28       3.0375      2.00000
     29       3.6781      2.00000
     30       4.0251      2.00000
     31       4.0854      2.00000
     32       4.5950      2.00000
     33       4.7413      2.00000
     34       5.2580      2.00000
     35       5.3967      2.00000
     36       5.6206      2.00000
     37       6.0009      2.00000
     38       6.4766      0.00000
     39       6.5192      0.00000
     40       6.6971      0.00000
     41       7.1030      0.00000
     42       7.3688      0.00000
     43       7.5241      0.00000
     44       8.1058      0.00000
     45       8.3279      0.00000
     46       8.3832      0.00000
     47       8.5372      0.00000
     48       9.3309      0.00000

 k-point   110 :      -0.1429    0.1429    0.5000
  band No.  band energies     occupation 
      1     -57.4740      2.00000
      2     -56.8719      2.00000
      3     -56.3190      2.00000
      4     -55.5646      2.00000
      5     -34.2311      2.00000
      6     -30.9535      2.00000
      7     -30.5302      2.00000
      8     -30.4258      2.00000
      9     -30.4214      2.00000
     10     -30.0402      2.00000
     11     -30.0369      2.00000
     12     -29.5492      2.00000
     13     -29.5477      2.00000
     14     -29.1038      2.00000
     15     -29.1031      2.00000
     16     -26.5128      2.00000
     17      -2.2711      2.00000
     18      -1.5974      2.00000
     19      -1.2652      2.00000
     20      -1.2184      2.00000
     21      -0.0022      2.00000
     22       0.5796      2.00000
     23       0.8312      2.00000
     24       1.0790      2.00000
     25       1.5772      2.00000
     26       2.3358      2.00000
     27       2.5389      2.00000
     28       3.0235      2.00000
     29       3.6964      2.00000
     30       4.1018      2.00000
     31       4.4086      2.00000
     32       4.6475      2.00000
     33       4.7292      2.00000
     34       5.0213      2.00000
     35       5.4495      2.00000
     36       5.8821      2.00000
     37       5.9024      2.00000
     38       6.1968      2.00000
     39       6.6837      0.00000
     40       6.8601      0.00000
     41       7.2142      0.00000
     42       7.2611      0.00000
     43       7.4895      0.00000
     44       7.8973      0.00000
     45       8.4482      0.00000
     46       8.4580      0.00000
     47       8.5538      0.00000
     48       8.6941      0.00000

 k-point   111 :       0.2857    0.2857    0.5000
  band No.  band energies     occupation 
      1     -57.3126      2.00000
      2     -57.1962      2.00000
      3     -55.9362      2.00000
      4     -55.7860      2.00000
      5     -33.5054      2.00000
      6     -32.9711      2.00000
      7     -30.3158      2.00000
      8     -30.3141      2.00000
      9     -30.2327      2.00000
     10     -30.2308      2.00000
     11     -29.3400      2.00000
     12     -29.3394      2.00000
     13     -29.2279      2.00000
     14     -29.2277      2.00000
     15     -28.2406      2.00000
     16     -27.5415      2.00000
     17      -2.8903      2.00000
     18      -1.7272      2.00000
     19      -0.7972      2.00000
     20      -0.2714      2.00000
     21       0.1787      2.00000
     22       0.5472      2.00000
     23       1.3405      2.00000
     24       1.3984      2.00000
     25       2.0673      2.00000
     26       2.2434      2.00000
     27       2.3993      2.00000
     28       3.0089      2.00000
     29       3.1591      2.00000
     30       3.7142      2.00000
     31       3.7334      2.00000
     32       3.9141      2.00000
     33       4.0943      2.00000
     34       5.0524      2.00000
     35       5.2410      2.00000
     36       5.6777      2.00000
     37       5.8201      2.00000
     38       5.8816      2.00000
     39       6.4564      0.00013
     40       6.9489      0.00000
     41       7.0247      0.00000
     42       7.2692      0.00000
     43       8.2803      0.00000
     44       8.4044      0.00000
     45       8.4667      0.00000
     46       9.1084      0.00000
     47       9.3670      0.00000
     48       9.5642      0.00000

 k-point   112 :       0.4286    0.2857    0.5000
  band No.  band energies     occupation 
      1     -57.4008      2.00000
      2     -57.0620      2.00000
      3     -56.1008      2.00000
      4     -55.6670      2.00000
      5     -33.9030      2.00000
      6     -32.3204      2.00000
      7     -30.3746      2.00000
      8     -30.3740      2.00000
      9     -30.1471      2.00000
     10     -30.1464      2.00000
     11     -29.4301      2.00000
     12     -29.4297      2.00000
     13     -29.1631      2.00000
     14     -29.1631      2.00000
     15     -29.0341      2.00000
     16     -26.9902      2.00000
     17      -2.6876      2.00000
     18      -1.8556      2.00000
     19      -0.6331      2.00000
     20      -0.4442      2.00000
     21       0.0560      2.00000
     22       0.2000      2.00000
     23       0.9303      2.00000
     24       1.0028      2.00000
     25       1.4437      2.00000
     26       2.7819      2.00000
     27       2.8591      2.00000
     28       2.9542      2.00000
     29       3.3529      2.00000
     30       3.7156      2.00000
     31       4.1321      2.00000
     32       4.1785      2.00000
     33       4.8607      2.00000
     34       5.1057      2.00000
     35       5.5111      2.00000
     36       5.8491      2.00000
     37       6.1101      2.00000
     38       6.3168      2.00000
     39       6.3500      1.99978
     40       6.8228      0.00000
     41       7.3276      0.00000
     42       7.4622      0.00000
     43       7.8514      0.00000
     44       8.2199      0.00000
     45       8.3526      0.00000
     46       8.6145      0.00000
     47       8.9025      0.00000
     48       9.3236      0.00000

 k-point   113 :      -0.4286    0.2857    0.5000
  band No.  band energies     occupation 
      1     -57.4555      2.00000
      2     -56.9338      2.00000
      3     -56.2498      2.00000
      4     -55.5908      2.00000
      5     -34.1481      2.00000
      6     -31.5840      2.00000
      7     -30.4123      2.00000
      8     -30.4114      2.00000
      9     -30.0711      2.00000
     10     -30.0706      2.00000
     11     -29.8664      2.00000
     12     -29.5125      2.00000
     13     -29.5124      2.00000
     14     -29.1189      2.00000
     15     -29.1186      2.00000
     16     -26.6354      2.00000
     17      -2.2718      2.00000
     18      -1.9624      2.00000
     19      -1.2071      2.00000
     20      -0.5200      2.00000
     21       0.0730      2.00000
     22       0.2218      2.00000
     23       0.7318      2.00000
     24       0.8097      2.00000
     25       0.9745      2.00000
     26       2.7630      2.00000
     27       3.2329      2.00000
     28       3.2824      2.00000
     29       3.4854      2.00000
     30       3.8215      2.00000
     31       4.2453      2.00000
     32       4.5554      2.00000
     33       4.9948      2.00000
     34       5.3420      2.00000
     35       5.5470      2.00000
     36       5.9915      2.00000
     37       6.4942      0.00000
     38       6.5748      0.00000
     39       6.7285      0.00000
     40       7.0206      0.00000
     41       7.1396      0.00000
     42       7.6359      0.00000
     43       7.7260      0.00000
     44       7.7640      0.00000
     45       7.9375      0.00000
     46       8.5360      0.00000
     47       8.8222      0.00000
     48       9.0941      0.00000

 k-point   114 :      -0.2857    0.2857    0.5000
  band No.  band energies     occupation 
      1     -57.4740      2.00000
      2     -56.8720      2.00000
      3     -56.3190      2.00000
      4     -55.5646      2.00000
      5     -34.2309      2.00000
      6     -30.9536      2.00000
      7     -30.5304      2.00000
      8     -30.4255      2.00000
      9     -30.4233      2.00000
     10     -30.0386      2.00000
     11     -30.0371      2.00000
     12     -29.5486      2.00000
     13     -29.5480      2.00000
     14     -29.1036      2.00000
     15     -29.1032      2.00000
     16     -26.5127      2.00000
     17      -2.0421      2.00000
     18      -1.7602      2.00000
     19      -1.5400      2.00000
     20      -1.0449      2.00000
     21       0.1801      2.00000
     22       0.6208      2.00000
     23       0.6337      2.00000
     24       0.7999      2.00000
     25       0.8468      2.00000
     26       2.5606      2.00000
     27       3.1141      2.00000
     28       3.4286      2.00000
     29       3.9513      2.00000
     30       3.9516      2.00000
     31       4.4618      2.00000
     32       4.5035      2.00000
     33       5.1842      2.00000
     34       5.2817      2.00000
     35       5.3050      2.00000
     36       5.3272      2.00000
     37       6.2062      2.00000
     38       6.6399      0.00000
     39       6.6632      0.00000
     40       7.3793      0.00000
     41       7.5298      0.00000
     42       7.6993      0.00000
     43       7.7991      0.00000
     44       8.0789      0.00000
     45       8.1131      0.00000
     46       8.1659      0.00000
     47       8.2787      0.00000
     48       8.4359      0.00000

 k-point   115 :       0.4286    0.4286    0.5000
  band No.  band energies     occupation 
      1     -57.4554      2.00000
      2     -56.9338      2.00000
      3     -56.2498      2.00000
      4     -55.5908      2.00000
      5     -34.1480      2.00000
      6     -31.5840      2.00000
      7     -30.4123      2.00000
      8     -30.4122      2.00000
      9     -30.0707      2.00000
     10     -30.0703      2.00000
     11     -29.8665      2.00000
     12     -29.5125      2.00000
     13     -29.5122      2.00000
     14     -29.1188      2.00000
     15     -29.1187      2.00000
     16     -26.6354      2.00000
     17      -2.4117      2.00000
     18      -1.7411      2.00000
     19      -1.3097      2.00000
     20      -0.2866      2.00000
     21       0.0159      2.00000
     22       0.1436      2.00000
     23       0.7256      2.00000
     24       0.7467      2.00000
     25       0.8392      2.00000
     26       2.5929      2.00000
     27       2.7759      2.00000
     28       3.4829      2.00000
     29       3.5597      2.00000
     30       4.0327      2.00000
     31       4.5380      2.00000
     32       4.6675      2.00000
     33       4.6802      2.00000
     34       5.5112      2.00000
     35       5.9877      2.00000
     36       6.1617      2.00000
     37       6.5819      0.00000
     38       6.7172      0.00000
     39       7.0633      0.00000
     40       7.2471      0.00000
     41       7.4222      0.00000
     42       7.4486      0.00000
     43       7.6170      0.00000
     44       7.7303      0.00000
     45       7.8796      0.00000
     46       7.9281      0.00000
     47       8.2661      0.00000
     48       8.9722      0.00000

 k-point   116 :      -0.4286    0.4286    0.5000
  band No.  band energies     occupation 
      1     -57.4740      2.00000
      2     -56.8720      2.00000
      3     -56.3190      2.00000
      4     -55.5646      2.00000
      5     -34.2308      2.00000
      6     -30.9537      2.00000
      7     -30.5306      2.00000
      8     -30.4253      2.00000
      9     -30.4249      2.00000
     10     -30.0372      2.00000
     11     -30.0372      2.00000
     12     -29.5482      2.00000
     13     -29.5481      2.00000
     14     -29.1035      2.00000
     15     -29.1033      2.00000
     16     -26.5127      2.00000
     17      -2.0367      2.00000
     18      -1.7768      2.00000
     19      -1.7474      2.00000
     20      -0.3108      2.00000
     21      -0.0019      2.00000
     22       0.1715      2.00000
     23       0.6546      2.00000
     24       0.6825      2.00000
     25       0.6875      2.00000
     26       2.5418      2.00000
     27       2.7487      2.00000
     28       3.8367      2.00000
     29       3.8658      2.00000
     30       3.8947      2.00000
     31       4.4870      2.00000
     32       4.6765      2.00000
     33       4.8453      2.00000
     34       5.6936      2.00000
     35       5.8917      2.00000
     36       6.2029      2.00000
     37       6.7560      0.00000
     38       6.8565      0.00000
     39       7.2194      0.00000
     40       7.4879      0.00000
     41       7.5149      0.00000
     42       7.5433      0.00000
     43       7.6154      0.00000
     44       7.6477      0.00000
     45       7.7728      0.00000
     46       7.7903      0.00000
     47       8.1045      0.00000
     48       9.0168      0.00000


--------------------------------------------------------------------------------------------------------


 soft charge-density along one line, spin component           1
         0         1         2         3         4         5         6         7         8         9
 total charge-density along one line
 
 pseudopotential strength for first ion, spin component:           1
  6.151   9.340   0.000   0.000   0.000   0.001   0.001   0.001
  9.340  14.175   0.001   0.001   0.000   0.002   0.003   0.001
  0.000   0.001  -2.095  -0.002   0.001  -3.523  -0.006   0.000
  0.000   0.001  -0.002  -2.094  -0.002  -0.006  -3.524  -0.004
  0.000   0.000   0.001  -0.002  -2.095   0.000  -0.004  -3.523
  0.001   0.002  -3.523  -0.006   0.000  -5.715  -0.013  -0.001
  0.001   0.003  -0.006  -3.524  -0.004  -0.013  -5.719  -0.009
  0.001   0.001   0.000  -0.004  -3.523  -0.001  -0.009  -5.714
 total augmentation occupancy for first ion, spin component:           1
  2.610  -0.397  -0.063  -0.083  -0.043   0.018   0.024   0.012
 -0.397   0.082   0.013   0.017   0.009  -0.005  -0.006  -0.003
 -0.063   0.013   1.357   0.487   0.314  -0.292  -0.095  -0.064
 -0.083   0.017   0.487   1.670   0.329  -0.095  -0.355  -0.064
 -0.043   0.009   0.314   0.329   1.104  -0.064  -0.064  -0.241
  0.018  -0.005  -0.292  -0.095  -0.064   0.066   0.020   0.014
  0.024  -0.006  -0.095  -0.355  -0.064   0.020   0.080   0.014
  0.012  -0.003  -0.064  -0.064  -0.241   0.014   0.014   0.055


------------------------ aborting loop because EDIFF is reached ----------------------------------------




--------------------------------------------------------------------------------------------------------



  FREE ENERGIE OF THE ION-ELECTRON SYSTEM (eV)
  ---------------------------------------------------
  free  energy   TOTEN  =      -128.27910573 eV

  energy  without entropy=     -128.27779945  energy(sigma->0) =     -128.27845259
 


--------------------------------------------------------------------------------------------------------


    POTLOK:  cpu time    0.7295: real time    0.7360


--------------------------------------------------------------------------------------------------------


 writing wavefunctions
     LOOP+:  cpu time  632.5243: real time  639.2056
    4ORBIT:  cpu time    0.0000: real time    0.0000

 total amount of memory used by VASP MPI-rank0   327879. kBytes
=======================================================================

   base      :      30000. kBytes
   nonl-proj :     142973. kBytes
   fftplans  :      14375. kBytes
   grid      :      11100. kBytes
   one-center:         77. kBytes
   wavefun   :     129354. kBytes
 
  
  
 General timing and accounting informations for this job:
 ========================================================
  
                  Total CPU time used (sec):      637.962
                            User time (sec):      634.225
                          System time (sec):        3.737
                         Elapsed time (sec):      649.577
  
                   Maximum memory used (kb):      521644.
                   Average memory used (kb):          N/A
  
                          Minor page faults:       786882
                          Major page faults:           51
                 Voluntary context switches:         1194
