<?xml version="1.0" encoding="ISO-8859-1"?>
<modeling>
 <generator>
  <i name="program" type="string">vasp </i>
  <i name="version" type="string">6.2.0  </i>
  <i name="subversion" type="string">18Jan21 (build Jan 05 2022 15:41:44) complex                          parallel </i>
  <i name="platform" type="string">LinuxIFC </i>
  <i name="date" type="string">2025 05 07 </i>
  <i name="time" type="string">19:37:02 </i>
 </generator>
 <incar>
  <i type="string" name="SYSTEM">routine with relax: pwdword</i>
  <i type="string" name="PREC">Acc</i>
  <i type="int" name="IALGO">    38</i>
  <i type="string" name="ALGO">A</i>
  <i type="logical" name="ADDGRID"> T  </i>
  <i type="int" name="ICHARG">     2</i>
  <i type="int" name="NELM">   100</i>
  <i type="int" name="NELMIN">     6</i>
  <i name="EDIFF">      0.00000000</i>
  <i type="int" name="NSW">     0</i>
  <i type="int" name="ISIF">    -1</i>
  <i name="SYMPREC">      0.00010000</i>
  <i name="ENCUT">    600.00000000</i>
  <i type="logical" name="LREAL"> F  </i>
  <i type="int" name="ISMEAR">     0</i>
  <i name="SIGMA">      0.02000000</i>
  <i type="logical" name="LASPH"> T  </i>
  <i type="string" name="METAGGA">R2SCAN</i>
  <i type="logical" name="LMIXTAU"> F  </i>
 </incar>
 <primitive_cell>
  <structure name="primitive_cell" >
   <crystal>
    <varray name="basis" >
     <v>       3.56410993      -2.58022986       0.00000000 </v>
     <v>       1.86795195       2.58022986       3.03531691 </v>
     <v>      -1.86795195      -2.58022986       3.34300309 </v>
    </varray>
    <i name="volume">     89.39833074 </i>
    <varray name="rec_basis" >
     <v>       0.18409216      -0.13327313       0.00000000 </v>
     <v>       0.09648632       0.13327800       0.15678110 </v>
     <v>      -0.08760583      -0.12101124       0.15678110 </v>
    </varray>
   </crystal>
   <varray name="positions" >
    <v>       0.50000000       0.50000000       0.50000000 </v>
    <v>       0.50000000       0.50000000       0.00000000 </v>
    <v>       0.00000000       0.00000000       0.00000000 </v>
    <v>       0.00000000       0.00000000       0.50000000 </v>
   </varray>
  </structure>
  <varray name="primitive_index" >
   <v type="int" >        1 </v>
   <v type="int" >        3 </v>
   <v type="int" >        4 </v>
   <v type="int" >        7 </v>
  </varray>
 </primitive_cell>
 <kpoints>
  <generation param="Gamma">
   <v type="int" name="divisions">       7        7        8 </v>
   <v name="usershift">      0.00000000       0.00000000       0.00000000 </v>
   <v name="genvec1">      0.14285714       0.00000000       0.00000000 </v>
   <v name="genvec2">      0.00000000       0.14285714       0.00000000 </v>
   <v name="genvec3">      0.00000000       0.00000000       0.12500000 </v>
   <v name="shift">      0.00000000       0.00000000       0.00000000 </v>
  </generation>
  <varray name="kpointlist" >
   <v>       0.00000000       0.00000000       0.00000000 </v>
   <v>       0.14285714      -0.00000000       0.00000000 </v>
   <v>       0.28571429      -0.00000000       0.00000000 </v>
   <v>       0.42857143      -0.00000000       0.00000000 </v>
   <v>       0.14285714       0.14285714       0.00000000 </v>
   <v>       0.28571429       0.14285714       0.00000000 </v>
   <v>       0.42857143       0.14285714       0.00000000 </v>
   <v>      -0.42857143       0.14285714       0.00000000 </v>
   <v>      -0.28571429       0.14285714       0.00000000 </v>
   <v>      -0.14285714       0.14285714       0.00000000 </v>
   <v>       0.28571429       0.28571429       0.00000000 </v>
   <v>       0.42857143       0.28571429       0.00000000 </v>
   <v>      -0.42857143       0.28571429       0.00000000 </v>
   <v>      -0.28571429       0.28571429       0.00000000 </v>
   <v>       0.42857143       0.42857143       0.00000000 </v>
   <v>      -0.42857143       0.42857143       0.00000000 </v>
   <v>      -0.00000000       0.00000000       0.12500000 </v>
   <v>       0.14285714       0.00000000       0.12500000 </v>
   <v>       0.28571429       0.00000000       0.12500000 </v>
   <v>       0.42857143      -0.00000000       0.12500000 </v>
   <v>      -0.42857143       0.00000000       0.12500000 </v>
   <v>      -0.28571429       0.00000000       0.12500000 </v>
   <v>      -0.14285714       0.00000000       0.12500000 </v>
   <v>       0.14285714       0.14285714       0.12500000 </v>
   <v>       0.28571429       0.14285714       0.12500000 </v>
   <v>       0.42857143       0.14285714       0.12500000 </v>
   <v>      -0.42857143       0.14285714       0.12500000 </v>
   <v>      -0.28571429       0.14285714       0.12500000 </v>
   <v>      -0.14285714       0.14285714       0.12500000 </v>
   <v>       0.28571429       0.28571429       0.12500000 </v>
   <v>       0.42857143       0.28571429       0.12500000 </v>
   <v>      -0.42857143       0.28571429       0.12500000 </v>
   <v>      -0.28571429       0.28571429       0.12500000 </v>
   <v>      -0.14285714       0.28571429       0.12500000 </v>
   <v>       0.42857143       0.42857143       0.12500000 </v>
   <v>      -0.42857143       0.42857143       0.12500000 </v>
   <v>      -0.28571429       0.42857143       0.12500000 </v>
   <v>      -0.14285714       0.42857143       0.12500000 </v>
   <v>      -0.42857143      -0.42857143       0.12500000 </v>
   <v>      -0.28571429      -0.42857143       0.12500000 </v>
   <v>      -0.14285714      -0.42857143       0.12500000 </v>
   <v>      -0.28571429      -0.28571429       0.12500000 </v>
   <v>      -0.14285714      -0.28571429       0.12500000 </v>
   <v>      -0.14285714      -0.14285714       0.12500000 </v>
   <v>      -0.00000000       0.00000000       0.25000000 </v>
   <v>       0.14285714       0.00000000       0.25000000 </v>
   <v>       0.28571429       0.00000000       0.25000000 </v>
   <v>       0.42857143      -0.00000000       0.25000000 </v>
   <v>      -0.42857143       0.00000000       0.25000000 </v>
   <v>      -0.28571429       0.00000000       0.25000000 </v>
   <v>      -0.14285714       0.00000000       0.25000000 </v>
   <v>       0.14285714       0.14285714       0.25000000 </v>
   <v>       0.28571429       0.14285714       0.25000000 </v>
   <v>       0.42857143       0.14285714       0.25000000 </v>
   <v>      -0.42857143       0.14285714       0.25000000 </v>
   <v>      -0.28571429       0.14285714       0.25000000 </v>
   <v>      -0.14285714       0.14285714       0.25000000 </v>
   <v>       0.28571429       0.28571429       0.25000000 </v>
   <v>       0.42857143       0.28571429       0.25000000 </v>
   <v>      -0.42857143       0.28571429       0.25000000 </v>
   <v>      -0.28571429       0.28571429       0.25000000 </v>
   <v>      -0.14285714       0.28571429       0.25000000 </v>
   <v>       0.42857143       0.42857143       0.25000000 </v>
   <v>      -0.42857143       0.42857143       0.25000000 </v>
   <v>      -0.28571429       0.42857143       0.25000000 </v>
   <v>      -0.14285714       0.42857143       0.25000000 </v>
   <v>      -0.42857143      -0.42857143       0.25000000 </v>
   <v>      -0.28571429      -0.42857143       0.25000000 </v>
   <v>      -0.14285714      -0.42857143       0.25000000 </v>
   <v>      -0.28571429      -0.28571429       0.25000000 </v>
   <v>      -0.14285714      -0.28571429       0.25000000 </v>
   <v>      -0.14285714      -0.14285714       0.25000000 </v>
   <v>      -0.00000000       0.00000000       0.37500000 </v>
   <v>       0.14285714      -0.00000000       0.37500000 </v>
   <v>       0.28571429      -0.00000000       0.37500000 </v>
   <v>       0.42857143      -0.00000000       0.37500000 </v>
   <v>      -0.42857143       0.00000000       0.37500000 </v>
   <v>      -0.28571429       0.00000000       0.37500000 </v>
   <v>      -0.14285714       0.00000000       0.37500000 </v>
   <v>       0.14285714       0.14285714       0.37500000 </v>
   <v>       0.28571429       0.14285714       0.37500000 </v>
   <v>       0.42857143       0.14285714       0.37500000 </v>
   <v>      -0.42857143       0.14285714       0.37500000 </v>
   <v>      -0.28571429       0.14285714       0.37500000 </v>
   <v>      -0.14285714       0.14285714       0.37500000 </v>
   <v>       0.28571429       0.28571429       0.37500000 </v>
   <v>       0.42857143       0.28571429       0.37500000 </v>
   <v>      -0.42857143       0.28571429       0.37500000 </v>
   <v>      -0.28571429       0.28571429       0.37500000 </v>
   <v>      -0.14285714       0.28571429       0.37500000 </v>
   <v>       0.42857143       0.42857143       0.37500000 </v>
   <v>      -0.42857143       0.42857143       0.37500000 </v>
   <v>      -0.28571429       0.42857143       0.37500000 </v>
   <v>      -0.14285714       0.42857143       0.37500000 </v>
   <v>      -0.42857143      -0.42857143       0.37500000 </v>
   <v>      -0.28571429      -0.42857143       0.37500000 </v>
   <v>      -0.14285714      -0.42857143       0.37500000 </v>
   <v>      -0.28571429      -0.28571429       0.37500000 </v>
   <v>      -0.14285714      -0.28571429       0.37500000 </v>
   <v>      -0.14285714      -0.14285714       0.37500000 </v>
   <v>      -0.00000000       0.00000000       0.50000000 </v>
   <v>       0.14285714       0.00000000       0.50000000 </v>
   <v>       0.28571429       0.00000000       0.50000000 </v>
   <v>       0.42857143       0.00000000       0.50000000 </v>
   <v>       0.14285714       0.14285714       0.50000000 </v>
   <v>       0.28571429       0.14285714       0.50000000 </v>
   <v>       0.42857143       0.14285714       0.50000000 </v>
   <v>      -0.42857143       0.14285714       0.50000000 </v>
   <v>      -0.28571429       0.14285714       0.50000000 </v>
   <v>      -0.14285714       0.14285714       0.50000000 </v>
   <v>       0.28571429       0.28571429       0.50000000 </v>
   <v>       0.42857143       0.28571429       0.50000000 </v>
   <v>      -0.42857143       0.28571429       0.50000000 </v>
   <v>      -0.28571429       0.28571429       0.50000000 </v>
   <v>       0.42857143       0.42857143       0.50000000 </v>
   <v>      -0.42857143       0.42857143       0.50000000 </v>
  </varray>
  <varray name="weights" >
   <v>       0.00255102 </v>
   <v>       0.01020408 </v>
   <v>       0.01020408 </v>
   <v>       0.01020408 </v>
   <v>       0.00510204 </v>
   <v>       0.01020408 </v>
   <v>       0.01020408 </v>
   <v>       0.01020408 </v>
   <v>       0.01020408 </v>
   <v>       0.00510204 </v>
   <v>       0.00510204 </v>
   <v>       0.01020408 </v>
   <v>       0.01020408 </v>
   <v>       0.00510204 </v>
   <v>       0.00510204 </v>
   <v>       0.00510204 </v>
   <v>       0.00510204 </v>
   <v>       0.01020408 </v>
   <v>       0.01020408 </v>
   <v>       0.01020408 </v>
   <v>       0.01020408 </v>
   <v>       0.01020408 </v>
   <v>       0.01020408 </v>
   <v>       0.00510204 </v>
   <v>       0.01020408 </v>
   <v>       0.01020408 </v>
   <v>       0.01020408 </v>
   <v>       0.01020408 </v>
   <v>       0.01020408 </v>
   <v>       0.00510204 </v>
   <v>       0.01020408 </v>
   <v>       0.01020408 </v>
   <v>       0.01020408 </v>
   <v>       0.01020408 </v>
   <v>       0.00510204 </v>
   <v>       0.01020408 </v>
   <v>       0.01020408 </v>
   <v>       0.01020408 </v>
   <v>       0.00510204 </v>
   <v>       0.01020408 </v>
   <v>       0.01020408 </v>
   <v>       0.00510204 </v>
   <v>       0.01020408 </v>
   <v>       0.00510204 </v>
   <v>       0.00510204 </v>
   <v>       0.01020408 </v>
   <v>       0.01020408 </v>
   <v>       0.01020408 </v>
   <v>       0.01020408 </v>
   <v>       0.01020408 </v>
   <v>       0.01020408 </v>
   <v>       0.00510204 </v>
   <v>       0.01020408 </v>
   <v>       0.01020408 </v>
   <v>       0.01020408 </v>
   <v>       0.01020408 </v>
   <v>       0.01020408 </v>
   <v>       0.00510204 </v>
   <v>       0.01020408 </v>
   <v>       0.01020408 </v>
   <v>       0.01020408 </v>
   <v>       0.01020408 </v>
   <v>       0.00510204 </v>
   <v>       0.01020408 </v>
   <v>       0.01020408 </v>
   <v>       0.01020408 </v>
   <v>       0.00510204 </v>
   <v>       0.01020408 </v>
   <v>       0.01020408 </v>
   <v>       0.00510204 </v>
   <v>       0.01020408 </v>
   <v>       0.00510204 </v>
   <v>       0.00510204 </v>
   <v>       0.01020408 </v>
   <v>       0.01020408 </v>
   <v>       0.01020408 </v>
   <v>       0.01020408 </v>
   <v>       0.01020408 </v>
   <v>       0.01020408 </v>
   <v>       0.00510204 </v>
   <v>       0.01020408 </v>
   <v>       0.01020408 </v>
   <v>       0.01020408 </v>
   <v>       0.01020408 </v>
   <v>       0.01020408 </v>
   <v>       0.00510204 </v>
   <v>       0.01020408 </v>
   <v>       0.01020408 </v>
   <v>       0.01020408 </v>
   <v>       0.01020408 </v>
   <v>       0.00510204 </v>
   <v>       0.01020408 </v>
   <v>       0.01020408 </v>
   <v>       0.01020408 </v>
   <v>       0.00510204 </v>
   <v>       0.01020408 </v>
   <v>       0.01020408 </v>
   <v>       0.00510204 </v>
   <v>       0.01020408 </v>
   <v>       0.00510204 </v>
   <v>       0.00255102 </v>
   <v>       0.01020408 </v>
   <v>       0.01020408 </v>
   <v>       0.01020408 </v>
   <v>       0.00510204 </v>
   <v>       0.01020408 </v>
   <v>       0.01020408 </v>
   <v>       0.01020408 </v>
   <v>       0.01020408 </v>
   <v>       0.00510204 </v>
   <v>       0.00510204 </v>
   <v>       0.01020408 </v>
   <v>       0.01020408 </v>
   <v>       0.00510204 </v>
   <v>       0.00510204 </v>
   <v>       0.00510204 </v>
  </varray>
 </kpoints>
 <parameters>
  <separator name="general" >
   <i type="string" name="SYSTEM">routine with relax: pwdword</i>
   <i type="logical" name="LCOMPAT"> F  </i>
  </separator>
  <separator name="electronic" >
   <i type="string" name="PREC">acc</i>
   <i name="ENMAX">    600.00000000</i>
   <i name="ENAUG">    535.51400000</i>
   <i name="EDIFF">      0.00000000</i>
   <i type="int" name="IALGO">    58</i>
   <i type="int" name="IWAVPR">    10</i>
   <i type="int" name="NBANDS">    42</i>
   <i type="int" name="NBANDSLOW">    -1</i>
   <i type="int" name="NBANDSHIGH">    -1</i>
   <i name="NELECT">     70.00000000</i>
   <i type="int" name="TURBO">     0</i>
   <i type="int" name="IRESTART">     0</i>
   <i type="int" name="NREBOOT">     0</i>
   <i type="int" name="NMIN">     0</i>
   <i name="EREF">      0.00000000</i>
   <separator name="electronic smearing" >
    <i type="int" name="ISMEAR">     0</i>
    <i name="SIGMA">      0.02000000</i>
    <i name="KSPACING">      0.50000000</i>
    <i type="logical" name="KGAMMA"> T  </i>
    <i type="logical" name="KBLOWUP"> F  </i>
   </separator>
   <separator name="electronic projectors" >
    <i type="logical" name="LREAL"> F  </i>
    <v name="ROPT">      0.00000000      0.00000000      0.00000000</v>
    <i type="int" name="LMAXPAW">  -100</i>
    <i type="int" name="LMAXMIX">     2</i>
    <i type="logical" name="NLSPLINE"> F  </i>
   </separator>
   <separator name="electronic startup" >
    <i type="int" name="ISTART">     0</i>
    <i type="int" name="ICHARG">     2</i>
    <i type="int" name="INIWAV">     1</i>
   </separator>
   <separator name="electronic spin" >
    <i type="int" name="ISPIN">     1</i>
    <i type="logical" name="LNONCOLLINEAR"> F  </i>
    <v name="MAGMOM">      1.00000000      1.00000000      1.00000000      1.00000000      1.00000000      1.00000000      1.00000000      1.00000000</v>
    <i name="NUPDOWN">     -1.00000000</i>
    <i type="logical" name="LSORBIT"> F  </i>
    <v name="SAXIS">      0.00000000      0.00000000      1.00000000</v>
    <i type="logical" name="LSPIRAL"> F  </i>
    <v name="QSPIRAL">      0.00000000      0.00000000      0.00000000</v>
    <i type="logical" name="LZEROZ"> F  </i>
   </separator>
   <separator name="electronic exchange-correlation" >
    <i type="logical" name="LASPH"> T  </i>
    <i type="logical" name="LMETAGGA"> F  </i>
   </separator>
   <separator name="electronic convergence" >
    <i type="int" name="NELM">   100</i>
    <i type="int" name="NELMDL">    -5</i>
    <i type="int" name="NELMIN">     6</i>
    <i name="ENINI">    600.00000000</i>
    <separator name="electronic convergence detail" >
     <i type="logical" name="LDIAG"> T  </i>
     <i type="logical" name="LSUBROT"> F  </i>
     <i name="WEIMIN">      0.00000000</i>
     <i name="EBREAK">      0.00000000</i>
     <i name="DEPER">      0.30000000</i>
     <i type="int" name="NRMM">     4</i>
     <i name="TIME">      0.40000000</i>
    </separator>
   </separator>
   <separator name="electronic mixer" >
    <i name="AMIX">      0.40000000</i>
    <i name="BMIX">      1.00000000</i>
    <i name="AMIN">      0.10000000</i>
    <i name="AMIX_MAG">      1.60000000</i>
    <i name="BMIX_MAG">      1.00000000</i>
    <separator name="electronic mixer details" >
     <i type="int" name="IMIX">     4</i>
     <i type="logical" name="MIXFIRST"> F  </i>
     <i type="int" name="MAXMIX">   -45</i>
     <i name="WC">    100.00000000</i>
     <i type="int" name="INIMIX">     1</i>
     <i type="int" name="MIXPRE">     1</i>
     <i type="int" name="MREMOVE">     5</i>
    </separator>
   </separator>
   <separator name="electronic dipolcorrection" >
    <i type="logical" name="LDIPOL"> F  </i>
    <i type="logical" name="LMONO"> F  </i>
    <i type="int" name="IDIPOL">     0</i>
    <i name="EPSILON">      1.00000000</i>
    <v name="DIPOL">   -100.00000000   -100.00000000   -100.00000000</v>
    <i name="EFIELD">      0.00000000</i>
   </separator>
  </separator>
  <separator name="grids" >
   <i type="int" name="NGX">    54</i>
   <i type="int" name="NGY">    54</i>
   <i type="int" name="NGZ">    54</i>
   <i type="int" name="NGXF">   108</i>
   <i type="int" name="NGYF">   108</i>
   <i type="int" name="NGZF">   108</i>
   <i type="logical" name="ADDGRID"> T  </i>
  </separator>
  <separator name="ionic" >
   <i type="int" name="NSW">     0</i>
   <i type="int" name="IBRION">    -1</i>
   <i type="int" name="MDALGO">     0</i>
   <i type="int" name="ISIF">    -1</i>
   <i name="PSTRESS">      0.00000000</i>
   <i name="EDIFFG">      0.00000001</i>
   <i type="int" name="NFREE">     0</i>
   <i name="POTIM">      0.50000000</i>
   <i name="SMASS">     -3.00000000</i>
   <i name="SCALEE">      1.00000000</i>
  </separator>
  <separator name="ionic md" >
   <i name="TEBEG">      0.00010000</i>
   <i name="TEEND">      0.00010000</i>
   <i type="int" name="NBLOCK">     1</i>
   <i type="int" name="KBLOCK">     1</i>
   <i type="int" name="NPACO">   256</i>
   <i name="APACO">     16.00000000</i>
  </separator>
  <separator name="symmetry" >
   <i type="int" name="ISYM">     2</i>
   <i name="SYMPREC">      0.00010000</i>
  </separator>
  <separator name="dos" >
   <i type="int" name="LORBIT">     0</i>
   <v name="RWIGS">     -1.00000000     -1.00000000     -1.00000000</v>
   <i type="int" name="NEDOS">   301</i>
   <i name="EMIN">     10.00000000</i>
   <i name="EMAX">    -10.00000000</i>
   <i name="EFERMI">      0.00000000</i>
  </separator>
  <separator name="writing" >
   <i type="int" name="NWRITE">     2</i>
   <i type="logical" name="LWAVE"> T  </i>
   <i type="logical" name="LDOWNSAMPLE"> F  </i>
   <i type="logical" name="LCHARG"> T  </i>
   <i type="logical" name="LPARD"> F  </i>
   <i type="logical" name="LVTOT"> F  </i>
   <i type="logical" name="LVHAR"> F  </i>
   <i type="logical" name="LELF"> F  </i>
   <i type="logical" name="LOPTICS"> F  </i>
   <v name="STM">      0.00000000      0.00000000      0.00000000      0.00000000      0.00000000      0.00000000      0.00000000</v>
  </separator>
  <separator name="performance" >
   <i type="int" name="NPAR">     6</i>
   <i type="int" name="NSIM">     4</i>
   <i type="int" name="NBLK">    -1</i>
   <i type="logical" name="LPLANE"> T  </i>
   <i type="logical" name="LSCALAPACK"> T  </i>
   <i type="logical" name="LSCAAWARE"> F  </i>
   <i type="logical" name="LSCALU"> F  </i>
   <i type="logical" name="LASYNC"> F  </i>
   <i type="logical" name="LORBITALREAL"> F  </i>
  </separator>
  <separator name="miscellaneous" >
   <i type="int" name="IDIOT">     3</i>
   <i type="int" name="PHON_NSTRUCT">    -1</i>
   <i type="logical" name="LMUSIC"> F  </i>
   <v name="POMASS">     10.81100000     95.94000000     28.08500000</v>
   <v name="DARWINR">      0.00000000      0.00000000      0.00000000</v>
   <v name="DARWINV">      1.00000000      1.00000000      1.00000000</v>
   <i type="logical" name="LCORR"> T  </i>
  </separator>
  <i type="logical" name="GGA_COMPAT"> T  </i>
  <i type="logical" name="LBERRY"> F  </i>
  <i type="int" name="ICORELEVEL">     0</i>
  <i type="logical" name="LDAU"> F  </i>
  <i type="int" name="I_CONSTRAINED_M">     0</i>
  <separator name="electronic exchange-correlation" >
   <i type="string" name="GGA">--</i>
   <i type="int" name="VOSKOWN">     0</i>
   <i type="logical" name="LHFCALC"> F  </i>
   <i type="string" name="PRECFOCK"></i>
   <i type="logical" name="LSYMGRAD"> F  </i>
   <i type="logical" name="LHFONE"> F  </i>
   <i type="logical" name="LRHFCALC"> F  </i>
   <i type="logical" name="LTHOMAS"> F  </i>
   <i type="logical" name="LMODELHF"> F  </i>
   <i type="logical" name="LFOCKACE"> F  </i>
   <i name="ENCUT4O">     -1.00000000</i>
   <i type="int" name="EXXOEP">     0</i>
   <i type="int" name="FOURORBIT">     0</i>
   <i name="AEXX">      0.00000000</i>
   <i name="HFALPHA">      0.00000000</i>
   <i name="MCALPHA">      0.00000000</i>
   <i name="ALDAX">      1.00000000</i>
   <i name="AGGAX">      1.00000000</i>
   <i name="ALDAC">      1.00000000</i>
   <i name="AGGAC">      1.00000000</i>
   <i type="int" name="NKREDX">     1</i>
   <i type="int" name="NKREDY">     1</i>
   <i type="int" name="NKREDZ">     1</i>
   <i type="logical" name="SHIFTRED"> F  </i>
   <i type="logical" name="ODDONLY"> F  </i>
   <i type="logical" name="EVENONLY"> F  </i>
   <i type="int" name="LMAXFOCK">     0</i>
   <i type="int" name="NMAXFOCKAE">     0</i>
   <i type="logical" name="LFOCKAEDFT"> F  </i>
   <i name="HFSCREEN">      0.00000000</i>
   <i name="HFSCREENC">      0.00000000</i>
   <i type="int" name="NBANDSGWLOW">     0</i>
  </separator>
  <separator name="vdW DFT" >
   <i type="logical" name="LUSE_VDW"> F  </i>
   <i name="Zab_VDW">     -0.84910000</i>
   <i name="PARAM1">      0.12340000</i>
   <i name="PARAM2">      1.00000000</i>
   <i name="PARAM3">      0.00000000</i>
  </separator>
  <separator name="model GW" >
   <i type="int" name="MODEL_GW">     0</i>
   <i name="MODEL_EPS0">     13.40974961</i>
   <i name="MODEL_ALPHA">      1.00000000</i>
  </separator>
  <separator name="linear response parameters" >
   <i type="logical" name="LEPSILON"> F  </i>
   <i type="logical" name="LRPA"> F  </i>
   <i type="logical" name="LNABLA"> F  </i>
   <i type="logical" name="LVEL"> F  </i>
   <i type="int" name="KINTER">     0</i>
   <i name="CSHIFT">      0.10000000</i>
   <i name="OMEGAMAX">     -1.00000000</i>
   <i name="DEG_THRESHOLD">      0.00200000</i>
   <i name="RTIME">     -0.10000000</i>
   <i name="WPLASMAI">      0.00000000</i>
   <v name="DFIELD">      0.00000000      0.00000000      0.00000000</v>
   <v name="WPLASMA">      0.00000000      0.00000000      0.00000000      0.00000000      0.00000000      0.00000000      0.00000000      0.00000000      0.00000000</v>
  </separator>
  <separator name="orbital magnetization" >
   <i type="logical" name="NUCIND"> F  </i>
   <v name="MAGPOS">      0.00000000      0.00000000      0.00000000</v>
   <i type="logical" name="LNICSALL"> T  </i>
   <i type="logical" name="ORBITALMAG"> F  </i>
   <i type="logical" name="LMAGBLOCH"> F  </i>
   <i type="logical" name="LCHIMAG"> F  </i>
   <i type="logical" name="LGAUGE"> T  </i>
   <i type="int" name="MAGATOM">     0</i>
   <v name="MAGDIPOL">      0.00000000      0.00000000      0.00000000</v>
   <v name="AVECCONST">      0.00000000      0.00000000      0.00000000</v>
  </separator>
  <separator name="response functions" >
   <i type="logical" name="LFINITE_TEMPERATURE"> F  </i>
   <i type="logical" name="LADDER"> F  </i>
   <i type="logical" name="LRPAFORCE"> F  </i>
   <i type="logical" name="LFXC"> F  </i>
   <i type="logical" name="LHARTREE"> T  </i>
   <i type="int" name="IBSE">     0</i>
   <v type="int" name="KPOINT">    -1     0     0     0</v>
   <i type="logical" name="LTCTC"> F  </i>
   <i type="logical" name="LTCTE"> F  </i>
   <i type="logical" name="LTETE"> F  </i>
   <i type="logical" name="LTRIPLET"> F  </i>
   <i type="logical" name="LFXCEPS"> F  </i>
   <i type="logical" name="LFXHEG"> F  </i>
   <i type="int" name="NATURALO">     2</i>
   <i type="logical" name="LHOLEGF"> F  </i>
   <i type="logical" name="L2ORDER"> F  </i>
   <i type="logical" name="LDMP1"> F  </i>
   <i type="logical" name="LMP2LT"> F  </i>
   <i type="logical" name="LSMP2LT"> F  </i>
   <i type="logical" name="LGWLF"> F  </i>
   <i name="ENCUTGW">     -2.00000000</i>
   <i name="ENCUTGWSOFT">     -2.00000000</i>
   <i name="ENCUTLF">     -1.00000000</i>
   <i type="logical" name="LESF_SPLINES"> F  </i>
   <i type="int" name="LMAXMP2">    -1</i>
   <i name="SCISSOR">      0.00000000</i>
   <i type="int" name="NOMEGA">     0</i>
   <i type="int" name="NOMEGAR">     0</i>
   <i type="int" name="NBANDSGW">    -1</i>
   <i type="int" name="NBANDSO">    -1</i>
   <i type="int" name="NBANDSV">    -1</i>
   <i type="int" name="NELM">   100</i>
   <i type="int" name="NELMHF">     1</i>
   <i type="int" name="DIM">     3</i>
   <i type="int" name="IESPILON">     4</i>
   <i type="int" name="ANTIRES">     0</i>
   <i name="OMEGAMAX">    -30.00000000</i>
   <i name="OMEGAMIN">    -30.00000000</i>
   <i name="OMEGATL">   -200.00000000</i>
   <i type="int" name="OMEGAGRID">     0</i>
   <i name="CSHIFT">     -0.10000000</i>
   <i type="logical" name="LSELFENERGY"> F  </i>
   <i type="logical" name="LSPECTRAL"> F  </i>
   <i type="logical" name="LSPECTRALGW"> F  </i>
   <i type="logical" name="LSINGLES"> F  </i>
   <i type="logical" name="LFERMIGW"> F  </i>
   <i type="logical" name="ODDONLYGW"> F  </i>
   <i type="logical" name="EVENONLYGW"> F  </i>
   <i type="int" name="NKREDLFX">     1</i>
   <i type="int" name="NKREDLFY">     1</i>
   <i type="int" name="NKREDLFZ">     1</i>
   <i type="int" name="MAXMEM">  2800</i>
   <i type="int" name="TELESCOPE">     0</i>
   <i type="int" name="NTAUPAR">    -1</i>
   <i type="int" name="NOMEGAPAR">    -1</i>
   <i name="DAMP_NEWTON">      0.80000001</i>
   <i name="LAMBDA">      1.00000000</i>
  </separator>
  <separator name="External order field" >
   <i name="OFIELD_KAPPA">      0.00000000</i>
   <v name="OFIELD_K">      0.00000000      0.00000000      0.00000000</v>
   <i name="OFIELD_Q6_NEAR">      0.00000000</i>
   <i name="OFIELD_Q6_FAR">      0.00000000</i>
   <i name="OFIELD_A">      0.00000000</i>
  </separator>
 </parameters>
 <atominfo>
  <atoms>       8 </atoms>
  <types>       3 </types>
  <array name="atoms" >
   <dimension dim="1">ion</dimension>
   <field type="string">element</field>
   <field type="int">atomtype</field>
   <set>
    <rc><c>B </c><c>   1</c></rc>
    <rc><c>B </c><c>   1</c></rc>
    <rc><c>Mo</c><c>   2</c></rc>
    <rc><c>Mo</c><c>   2</c></rc>
    <rc><c>Mo</c><c>   2</c></rc>
    <rc><c>Mo</c><c>   2</c></rc>
    <rc><c>Si</c><c>   3</c></rc>
    <rc><c>Si</c><c>   3</c></rc>
   </set>
  </array>
  <array name="atomtypes" >
   <dimension dim="1">type</dimension>
   <field type="int">atomspertype</field>
   <field type="string">element</field>
   <field>mass</field>
   <field>valence</field>
   <field type="string">pseudopotential</field>
   <set>
    <rc><c>   2</c><c>B </c><c>     10.81100000</c><c>      3.00000000</c><c>  PAW_PBE B 06Sep2000                   </c></rc>
    <rc><c>   4</c><c>Mo</c><c>     95.94000000</c><c>     14.00000000</c><c>  PAW_PBE Mo_sv 02Feb2006               </c></rc>
    <rc><c>   2</c><c>Si</c><c>     28.08500000</c><c>      4.00000000</c><c>  PAW_PBE Si 05Jan2001                  </c></rc>
   </set>
  </array>
 </atominfo>
 <structure name="initialpos" >
  <crystal>
   <varray name="basis" >
    <v>       5.43206189       0.00000000      -3.34300309 </v>
    <v>      -1.69615798       5.16045971      -3.34300309 </v>
    <v>       0.00000000       0.00000000       6.37832000 </v>
   </varray>
   <i name="volume">    178.79666147 </i>
   <varray name="rec_basis" >
    <v>       0.18409216       0.06050806       0.00000000 </v>
    <v>       0.00000000       0.19378119       0.00000000 </v>
    <v>       0.09648632       0.13327800       0.15678110 </v>
   </varray>
  </crystal>
  <varray name="positions" >
   <v>       0.25000000       0.75000000       0.50000000 </v>
   <v>       0.75000000       0.25000000       0.50000000 </v>
   <v>       0.50000000       0.00000000       0.50000000 </v>
   <v>       0.50000000       0.50000000       0.00000000 </v>
   <v>       0.00000000       0.50000000       0.50000000 </v>
   <v>       0.00000000       0.00000000       0.00000000 </v>
   <v>       0.25000000       0.25000000       0.00000000 </v>
   <v>       0.75000000       0.75000000       0.00000000 </v>
  </varray>
 </structure>
 <calculation>
  <scstep>
   <time name="total">   19.94   20.10</time>
   <energy>
    <i name="alphaZ">    230.68636460 </i>
    <i name="ewald">  -5153.58501103 </i>
    <i name="hartreedc">  -2264.97479193 </i>
    <i name="XCdc">    303.14700998 </i>
    <i name="pawpsdc">   6194.65714934 </i>
    <i name="pawaedc">  -6160.44322926 </i>
    <i name="eentropy">     -0.00069180 </i>
    <i name="bandstr">   -383.19893077 </i>
    <i name="atom">   7797.60240368 </i>
    <i name="e_fr_energy">    563.89027280 </i>
    <i name="e_wo_entrp">    563.89096460 </i>
    <i name="e_0_energy">    563.89061870 </i>
   </energy>
  </scstep>
  <scstep>
   <time name="total">   19.13   19.28</time>
   <energy>
    <i name="e_fr_energy">   -115.89618159 </i>
    <i name="e_wo_entrp">   -115.89471974 </i>
    <i name="e_0_energy">   -115.89545067 </i>
   </energy>
  </scstep>
  <scstep>
   <time name="total">   21.97   22.15</time>
   <energy>
    <i name="e_fr_energy">   -147.51307156 </i>
    <i name="e_wo_entrp">   -147.51119262 </i>
    <i name="e_0_energy">   -147.51213209 </i>
   </energy>
  </scstep>
  <scstep>
   <time name="total">   20.55   20.72</time>
   <energy>
    <i name="e_fr_energy">   -148.67661682 </i>
    <i name="e_wo_entrp">   -148.67431486 </i>
    <i name="e_0_energy">   -148.67546584 </i>
   </energy>
  </scstep>
  <scstep>
   <time name="total">   23.68   23.86</time>
   <energy>
    <i name="e_fr_energy">   -148.72027940 </i>
    <i name="e_wo_entrp">   -148.71795328 </i>
    <i name="e_0_energy">   -148.71911634 </i>
   </energy>
  </scstep>
  <scstep>
   <time name="total">   22.44   22.61</time>
   <energy>
    <i name="e_fr_energy">   -101.51244395 </i>
    <i name="e_wo_entrp">   -101.51059654 </i>
    <i name="e_0_energy">   -101.51152024 </i>
   </energy>
  </scstep>
  <scstep>
   <time name="total">   22.32   22.50</time>
   <energy>
    <i name="e_fr_energy">   -115.93646681 </i>
    <i name="e_wo_entrp">   -115.93483883 </i>
    <i name="e_0_energy">   -115.93565282 </i>
   </energy>
  </scstep>
  <scstep>
   <time name="total">   22.59   22.76</time>
   <energy>
    <i name="e_fr_energy">   -118.02294547 </i>
    <i name="e_wo_entrp">   -118.02097884 </i>
    <i name="e_0_energy">   -118.02196215 </i>
   </energy>
  </scstep>
  <scstep>
   <time name="total">   22.35   22.52</time>
   <energy>
    <i name="e_fr_energy">   -118.64644751 </i>
    <i name="e_wo_entrp">   -118.64460784 </i>
    <i name="e_0_energy">   -118.64552767 </i>
   </energy>
  </scstep>
  <scstep>
   <time name="total">   22.87   23.05</time>
   <energy>
    <i name="e_fr_energy">   -118.93471807 </i>
    <i name="e_wo_entrp">   -118.93284769 </i>
    <i name="e_0_energy">   -118.93378288 </i>
   </energy>
  </scstep>
  <scstep>
   <time name="total">   22.64   22.81</time>
   <energy>
    <i name="e_fr_energy">   -119.03442482 </i>
    <i name="e_wo_entrp">   -119.03253679 </i>
    <i name="e_0_energy">   -119.03348081 </i>
   </energy>
  </scstep>
  <scstep>
   <time name="total">   22.38   22.55</time>
   <energy>
    <i name="e_fr_energy">   -119.08771585 </i>
    <i name="e_wo_entrp">   -119.08576586 </i>
    <i name="e_0_energy">   -119.08674086 </i>
   </energy>
  </scstep>
  <scstep>
   <time name="total">   22.47   22.64</time>
   <energy>
    <i name="e_fr_energy">   -119.12015611 </i>
    <i name="e_wo_entrp">   -119.11796051 </i>
    <i name="e_0_energy">   -119.11905831 </i>
   </energy>
  </scstep>
  <scstep>
   <time name="total">   22.52   22.69</time>
   <energy>
    <i name="e_fr_energy">   -119.14065951 </i>
    <i name="e_wo_entrp">   -119.13807216 </i>
    <i name="e_0_energy">   -119.13936583 </i>
   </energy>
  </scstep>
  <scstep>
   <time name="total">   22.48   22.65</time>
   <energy>
    <i name="e_fr_energy">   -119.15254454 </i>
    <i name="e_wo_entrp">   -119.14965256 </i>
    <i name="e_0_energy">   -119.15109855 </i>
   </energy>
  </scstep>
  <scstep>
   <time name="total">   22.99   23.17</time>
   <energy>
    <i name="e_fr_energy">   -119.15879628 </i>
    <i name="e_wo_entrp">   -119.15587235 </i>
    <i name="e_0_energy">   -119.15733432 </i>
   </energy>
  </scstep>
  <scstep>
   <time name="total">   22.39   22.56</time>
   <energy>
    <i name="e_fr_energy">   -119.16218973 </i>
    <i name="e_wo_entrp">   -119.15928748 </i>
    <i name="e_0_energy">   -119.16073861 </i>
   </energy>
  </scstep>
  <scstep>
   <time name="total">   22.62   22.80</time>
   <energy>
    <i name="e_fr_energy">   -119.16413922 </i>
    <i name="e_wo_entrp">   -119.16125915 </i>
    <i name="e_0_energy">   -119.16269919 </i>
   </energy>
  </scstep>
  <scstep>
   <time name="total">   22.51   22.68</time>
   <energy>
    <i name="e_fr_energy">   -119.16522881 </i>
    <i name="e_wo_entrp">   -119.16238217 </i>
    <i name="e_0_energy">   -119.16380549 </i>
   </energy>
  </scstep>
  <scstep>
   <time name="total">   23.07   23.24</time>
   <energy>
    <i name="e_fr_energy">   -119.16600033 </i>
    <i name="e_wo_entrp">   -119.16319053 </i>
    <i name="e_0_energy">   -119.16459543 </i>
   </energy>
  </scstep>
  <scstep>
   <time name="total">   22.80   22.98</time>
   <energy>
    <i name="e_fr_energy">   -119.16661482 </i>
    <i name="e_wo_entrp">   -119.16383276 </i>
    <i name="e_0_energy">   -119.16522379 </i>
   </energy>
  </scstep>
  <scstep>
   <time name="total">   22.79   22.96</time>
   <energy>
    <i name="e_fr_energy">   -119.16698136 </i>
    <i name="e_wo_entrp">   -119.16421144 </i>
    <i name="e_0_energy">   -119.16559640 </i>
   </energy>
  </scstep>
  <scstep>
   <time name="total">   22.70   22.88</time>
   <energy>
    <i name="e_fr_energy">   -119.16716606 </i>
    <i name="e_wo_entrp">   -119.16439679 </i>
    <i name="e_0_energy">   -119.16578142 </i>
   </energy>
  </scstep>
  <scstep>
   <time name="total">   22.52   22.70</time>
   <energy>
    <i name="e_fr_energy">   -119.16729163 </i>
    <i name="e_wo_entrp">   -119.16451431 </i>
    <i name="e_0_energy">   -119.16590297 </i>
   </energy>
  </scstep>
  <scstep>
   <time name="total">   22.83   23.00</time>
   <energy>
    <i name="e_fr_energy">   -119.16737271 </i>
    <i name="e_wo_entrp">   -119.16458466 </i>
    <i name="e_0_energy">   -119.16597869 </i>
   </energy>
  </scstep>
  <scstep>
   <time name="total">   22.62   22.79</time>
   <energy>
    <i name="e_fr_energy">   -119.16741836 </i>
    <i name="e_wo_entrp">   -119.16462175 </i>
    <i name="e_0_energy">   -119.16602005 </i>
   </energy>
  </scstep>
  <scstep>
   <time name="total">   22.27   22.46</time>
   <energy>
    <i name="e_fr_energy">   -119.16745124 </i>
    <i name="e_wo_entrp">   -119.16464961 </i>
    <i name="e_0_energy">   -119.16605043 </i>
   </energy>
  </scstep>
  <scstep>
   <time name="total">   22.41   22.58</time>
   <energy>
    <i name="e_fr_energy">   -119.16747154 </i>
    <i name="e_wo_entrp">   -119.16466796 </i>
    <i name="e_0_energy">   -119.16606975 </i>
   </energy>
  </scstep>
  <scstep>
   <time name="total">   22.61   22.78</time>
   <energy>
    <i name="e_fr_energy">   -119.16748175 </i>
    <i name="e_wo_entrp">   -119.16467722 </i>
    <i name="e_0_energy">   -119.16607949 </i>
   </energy>
  </scstep>
  <scstep>
   <time name="total">   22.56   22.74</time>
   <energy>
    <i name="e_fr_energy">   -119.16748733 </i>
    <i name="e_wo_entrp">   -119.16468333 </i>
    <i name="e_0_energy">   -119.16608533 </i>
   </energy>
  </scstep>
  <scstep>
   <time name="total">   22.65   22.82</time>
   <energy>
    <i name="e_fr_energy">   -119.16749139 </i>
    <i name="e_wo_entrp">   -119.16468866 </i>
    <i name="e_0_energy">   -119.16609003 </i>
   </energy>
  </scstep>
  <scstep>
   <time name="total">   22.40   22.58</time>
   <energy>
    <i name="e_fr_energy">   -119.16749350 </i>
    <i name="e_wo_entrp">   -119.16469247 </i>
    <i name="e_0_energy">   -119.16609298 </i>
   </energy>
  </scstep>
  <scstep>
   <time name="total">   22.47   22.65</time>
   <energy>
    <i name="e_fr_energy">   -119.16749512 </i>
    <i name="e_wo_entrp">   -119.16469530 </i>
    <i name="e_0_energy">   -119.16609521 </i>
   </energy>
  </scstep>
  <scstep>
   <time name="total">   22.57   22.74</time>
   <energy>
    <i name="e_fr_energy">   -119.16749618 </i>
    <i name="e_wo_entrp">   -119.16469714 </i>
    <i name="e_0_energy">   -119.16609666 </i>
   </energy>
  </scstep>
  <scstep>
   <time name="total">   22.79   22.96</time>
   <energy>
    <i name="e_fr_energy">   -119.16749688 </i>
    <i name="e_wo_entrp">   -119.16469808 </i>
    <i name="e_0_energy">   -119.16609748 </i>
   </energy>
  </scstep>
  <scstep>
   <time name="total">   22.56   22.74</time>
   <energy>
    <i name="e_fr_energy">   -119.16749721 </i>
    <i name="e_wo_entrp">   -119.16469844 </i>
    <i name="e_0_energy">   -119.16609782 </i>
   </energy>
  </scstep>
  <scstep>
   <time name="total">   22.48   22.65</time>
   <energy>
    <i name="e_fr_energy">   -119.16749749 </i>
    <i name="e_wo_entrp">   -119.16469845 </i>
    <i name="e_0_energy">   -119.16609797 </i>
   </energy>
  </scstep>
  <scstep>
   <time name="total">   22.45   22.62</time>
   <energy>
    <i name="e_fr_energy">   -119.16749766 </i>
    <i name="e_wo_entrp">   -119.16469836 </i>
    <i name="e_0_energy">   -119.16609801 </i>
   </energy>
  </scstep>
  <scstep>
   <time name="total">   22.74   22.92</time>
   <energy>
    <i name="e_fr_energy">   -119.16749778 </i>
    <i name="e_wo_entrp">   -119.16469759 </i>
    <i name="e_0_energy">   -119.16609768 </i>
   </energy>
  </scstep>
  <scstep>
   <time name="total">   22.50   22.68</time>
   <energy>
    <i name="e_fr_energy">   -119.16749783 </i>
    <i name="e_wo_entrp">   -119.16469775 </i>
    <i name="e_0_energy">   -119.16609779 </i>
   </energy>
  </scstep>
  <scstep>
   <time name="total">   22.05   22.24</time>
   <energy>
    <i name="e_fr_energy">   -119.16749793 </i>
    <i name="e_wo_entrp">   -119.16469790 </i>
    <i name="e_0_energy">   -119.16609791 </i>
   </energy>
  </scstep>
  <scstep>
   <time name="total">   22.77   22.94</time>
   <energy>
    <i name="e_fr_energy">   -119.16749794 </i>
    <i name="e_wo_entrp">   -119.16469793 </i>
    <i name="e_0_energy">   -119.16609794 </i>
   </energy>
  </scstep>
  <scstep>
   <time name="total">   22.45   22.63</time>
   <energy>
    <i name="e_fr_energy">   -119.16749794 </i>
    <i name="e_wo_entrp">   -119.16469796 </i>
    <i name="e_0_energy">   -119.16609795 </i>
   </energy>
  </scstep>
  <scstep>
   <time name="total">   22.85   23.03</time>
   <energy>
    <i name="e_fr_energy">   -119.16749794 </i>
    <i name="e_wo_entrp">   -119.16469801 </i>
    <i name="e_0_energy">   -119.16609798 </i>
   </energy>
  </scstep>
  <scstep>
   <time name="total">   23.14   23.32</time>
   <energy>
    <i name="e_fr_energy">   -119.16749795 </i>
    <i name="e_wo_entrp">   -119.16469804 </i>
    <i name="e_0_energy">   -119.16609799 </i>
   </energy>
  </scstep>
  <scstep>
   <time name="total">   22.54   22.71</time>
   <energy>
    <i name="e_fr_energy">   -119.16749795 </i>
    <i name="e_wo_entrp">   -119.16469806 </i>
    <i name="e_0_energy">   -119.16609800 </i>
   </energy>
  </scstep>
  <scstep>
   <time name="total">   22.90   23.08</time>
   <energy>
    <i name="e_fr_energy">   -119.16749795 </i>
    <i name="e_wo_entrp">   -119.16469808 </i>
    <i name="e_0_energy">   -119.16609801 </i>
   </energy>
  </scstep>
  <scstep>
   <time name="total">   22.60   22.77</time>
   <energy>
    <i name="e_fr_energy">   -119.16749795 </i>
    <i name="e_wo_entrp">   -119.16469813 </i>
    <i name="e_0_energy">   -119.16609804 </i>
   </energy>
  </scstep>
  <scstep>
   <time name="total">   22.67   22.84</time>
   <energy>
    <i name="e_fr_energy">   -119.16749795 </i>
    <i name="e_wo_entrp">   -119.16469815 </i>
    <i name="e_0_energy">   -119.16609805 </i>
   </energy>
  </scstep>
  <scstep>
   <time name="total">   22.50   22.68</time>
   <energy>
    <i name="e_fr_energy">   -119.16749796 </i>
    <i name="e_wo_entrp">   -119.16469820 </i>
    <i name="e_0_energy">   -119.16609808 </i>
   </energy>
  </scstep>
  <scstep>
   <time name="total">   22.29   22.46</time>
   <energy>
    <i name="e_fr_energy">   -119.16749796 </i>
    <i name="e_wo_entrp">   -119.16469820 </i>
    <i name="e_0_energy">   -119.16609808 </i>
   </energy>
  </scstep>
  <scstep>
   <time name="total">   22.38   22.56</time>
   <energy>
    <i name="e_fr_energy">   -119.16749795 </i>
    <i name="e_wo_entrp">   -119.16469820 </i>
    <i name="e_0_energy">   -119.16609807 </i>
   </energy>
  </scstep>
  <scstep>
   <time name="total">   22.36   22.54</time>
   <energy>
    <i name="e_fr_energy">   -119.16749796 </i>
    <i name="e_wo_entrp">   -119.16469820 </i>
    <i name="e_0_energy">   -119.16609808 </i>
   </energy>
  </scstep>
  <scstep>
   <time name="total">   25.78   25.99</time>
   <energy>
    <i name="alphaZ">    230.68636460 </i>
    <i name="ewald">  -5153.58501103 </i>
    <i name="hartreedc">  -2162.95711641 </i>
    <i name="XCdc">    307.46414536 </i>
    <i name="pawpsdc">   6878.41242021 </i>
    <i name="pawaedc">  -6856.36157636 </i>
    <i name="eentropy">     -0.00279976 </i>
    <i name="bandstr">  -1160.42632825 </i>
    <i name="atom">   7797.60240368 </i>
    <i name="e_fr_energy">   -119.16749796 </i>
    <i name="e_wo_entrp">   -119.16469820 </i>
    <i name="e_0_energy">   -119.16609808 </i>
   </energy>
  </scstep>
  <structure>
   <crystal>
    <varray name="basis" >
     <v>       5.43206189       0.00000000      -3.34300309 </v>
     <v>      -1.69615798       5.16045971      -3.34300309 </v>
     <v>       0.00000000       0.00000000       6.37832000 </v>
    </varray>
    <i name="volume">    178.79666147 </i>
    <varray name="rec_basis" >
     <v>       0.18409216       0.06050806       0.00000000 </v>
     <v>       0.00000000       0.19378119       0.00000000 </v>
     <v>       0.09648632       0.13327800       0.15678110 </v>
    </varray>
   </crystal>
   <varray name="positions" >
    <v>       0.25000000       0.75000000       0.50000000 </v>
    <v>       0.75000000       0.25000000       0.50000000 </v>
    <v>       0.50000000       0.00000000       0.50000000 </v>
    <v>       0.50000000       0.50000000       0.00000000 </v>
    <v>       0.00000000       0.50000000       0.50000000 </v>
    <v>       0.00000000       0.00000000       0.00000000 </v>
    <v>       0.25000000       0.25000000       0.00000000 </v>
    <v>       0.75000000       0.75000000       0.00000000 </v>
   </varray>
  </structure>
  <varray name="forces" >
   <v>       0.00000000       0.00000000       0.00000000 </v>
   <v>       0.00000000       0.00000000       0.00000000 </v>
   <v>       0.00000000       0.00000000       0.00000000 </v>
   <v>       0.00000000       0.00000000       0.00000000 </v>
   <v>       0.00000000       0.00000000       0.00000000 </v>
   <v>       0.00000000       0.00000000       0.00000000 </v>
   <v>       0.00000000       0.00000000       0.00000000 </v>
   <v>       0.00000000       0.00000000       0.00000000 </v>
  </varray>
  <varray name="stress" >
   <v>       0.00000000       0.00000000       0.00000000 </v>
   <v>       0.00000000       0.00000000       0.00000000 </v>
   <v>       0.00000000       0.00000000       0.00000000 </v>
  </varray>
  <energy>
   <i name="e_fr_energy">   -119.16749796 </i>
   <i name="e_wo_entrp">   -119.16469820 </i>
   <i name="e_0_energy">   -119.16609808 </i>
  </energy>
  <time name="totalsc"> 1217.84 1227.28</time>
  <eigenvalues>
   <array>
    <dimension dim="1">band</dimension>
    <dimension dim="2">kpoint</dimension>
    <dimension dim="3">spin</dimension>
    <field>eigene</field>
    <field>occ</field>
    <set>
     <set comment="spin 1">
      <set comment="kpoint 1">
       <r>  -58.5791    1.0000 </r>
       <r>  -58.5776    1.0000 </r>
       <r>  -58.1099    1.0000 </r>
       <r>  -58.1093    1.0000 </r>
       <r>  -31.9135    1.0000 </r>
       <r>  -31.9112    1.0000 </r>
       <r>  -31.8962    1.0000 </r>
       <r>  -31.8961    1.0000 </r>
       <r>  -31.8767    1.0000 </r>
       <r>  -31.8766    1.0000 </r>
       <r>  -31.5778    1.0000 </r>
       <r>  -31.5638    1.0000 </r>
       <r>  -31.4084    1.0000 </r>
       <r>  -31.4082    1.0000 </r>
       <r>  -31.3965    1.0000 </r>
       <r>  -31.3964    1.0000 </r>
       <r>   -4.5644    1.0000 </r>
       <r>   -1.5332    1.0000 </r>
       <r>   -1.0207    1.0000 </r>
       <r>   -0.5717    1.0000 </r>
       <r>    0.7158    1.0000 </r>
       <r>    0.7158    1.0000 </r>
       <r>    0.8055    1.0000 </r>
       <r>    1.4162    1.0000 </r>
       <r>    1.5788    1.0000 </r>
       <r>    2.4622    1.0000 </r>
       <r>    2.5091    1.0000 </r>
       <r>    2.7198    1.0000 </r>
       <r>    2.7645    1.0000 </r>
       <r>    3.5548    1.0000 </r>
       <r>    3.5548    1.0000 </r>
       <r>    3.7765    1.0000 </r>
       <r>    3.8156    1.0000 </r>
       <r>    3.8157    1.0000 </r>
       <r>    5.1383    0.0000 </r>
       <r>    5.1383    0.0000 </r>
       <r>    5.2556    0.0000 </r>
       <r>    5.4454    0.0000 </r>
       <r>    5.4456    0.0000 </r>
       <r>    5.4898    0.0000 </r>
       <r>    5.9273    0.0000 </r>
       <r>    5.9273    0.0000 </r>
      </set>
      <set comment="kpoint 2">
       <r>  -58.5790    1.0000 </r>
       <r>  -58.5776    1.0000 </r>
       <r>  -58.1099    1.0000 </r>
       <r>  -58.1094    1.0000 </r>
       <r>  -31.9132    1.0000 </r>
       <r>  -31.9112    1.0000 </r>
       <r>  -31.8951    1.0000 </r>
       <r>  -31.8877    1.0000 </r>
       <r>  -31.8776    1.0000 </r>
       <r>  -31.8696    1.0000 </r>
       <r>  -31.5772    1.0000 </r>
       <r>  -31.5646    1.0000 </r>
       <r>  -31.4162    1.0000 </r>
       <r>  -31.4078    1.0000 </r>
       <r>  -31.4050    1.0000 </r>
       <r>  -31.3971    1.0000 </r>
       <r>   -4.4601    1.0000 </r>
       <r>   -1.7991    1.0000 </r>
       <r>   -1.0770    1.0000 </r>
       <r>   -0.8093    1.0000 </r>
       <r>    0.7949    1.0000 </r>
       <r>    0.9312    1.0000 </r>
       <r>    1.1592    1.0000 </r>
       <r>    1.6527    1.0000 </r>
       <r>    1.6544    1.0000 </r>
       <r>    2.5143    1.0000 </r>
       <r>    2.5248    1.0000 </r>
       <r>    2.6928    1.0000 </r>
       <r>    2.8866    1.0000 </r>
       <r>    3.1817    1.0000 </r>
       <r>    3.2795    1.0000 </r>
       <r>    3.5110    1.0000 </r>
       <r>    4.2176    1.0000 </r>
       <r>    4.3390    1.0000 </r>
       <r>    4.8748    0.0000 </r>
       <r>    5.0308    0.0000 </r>
       <r>    5.1412    0.0000 </r>
       <r>    5.3612    0.0000 </r>
       <r>    5.4039    0.0000 </r>
       <r>    5.4151    0.0000 </r>
       <r>    5.4504    0.0000 </r>
       <r>    6.3187    0.0000 </r>
      </set>
      <set comment="kpoint 3">
       <r>  -58.5786    1.0000 </r>
       <r>  -58.5777    1.0000 </r>
       <r>  -58.1100    1.0000 </r>
       <r>  -58.1096    1.0000 </r>
       <r>  -31.9127    1.0000 </r>
       <r>  -31.9113    1.0000 </r>
       <r>  -31.8923    1.0000 </r>
       <r>  -31.8802    1.0000 </r>
       <r>  -31.8670    1.0000 </r>
       <r>  -31.8535    1.0000 </r>
       <r>  -31.5756    1.0000 </r>
       <r>  -31.5668    1.0000 </r>
       <r>  -31.4345    1.0000 </r>
       <r>  -31.4259    1.0000 </r>
       <r>  -31.4062    1.0000 </r>
       <r>  -31.3988    1.0000 </r>
       <r>   -4.1557    1.0000 </r>
       <r>   -2.3966    1.0000 </r>
       <r>   -1.2005    1.0000 </r>
       <r>   -1.1184    1.0000 </r>
       <r>    1.0262    1.0000 </r>
       <r>    1.2651    1.0000 </r>
       <r>    1.8543    1.0000 </r>
       <r>    1.9279    1.0000 </r>
       <r>    2.3070    1.0000 </r>
       <r>    2.3141    1.0000 </r>
       <r>    2.5687    1.0000 </r>
       <r>    2.7069    1.0000 </r>
       <r>    2.9382    1.0000 </r>
       <r>    3.0101    1.0000 </r>
       <r>    3.1547    1.0000 </r>
       <r>    3.3089    1.0000 </r>
       <r>    4.2341    1.0000 </r>
       <r>    4.5691    0.0000 </r>
       <r>    4.7083    0.0000 </r>
       <r>    4.7898    0.0000 </r>
       <r>    4.8607    0.0000 </r>
       <r>    5.0360    0.0000 </r>
       <r>    5.1539    0.0000 </r>
       <r>    5.3448    0.0000 </r>
       <r>    5.5858    0.0000 </r>
       <r>    5.6184    0.0000 </r>
      </set>
      <set comment="kpoint 4">
       <r>  -58.5782    1.0000 </r>
       <r>  -58.5779    1.0000 </r>
       <r>  -58.1100    1.0000 </r>
       <r>  -58.1098    1.0000 </r>
       <r>  -31.9121    1.0000 </r>
       <r>  -31.9116    1.0000 </r>
       <r>  -31.8884    1.0000 </r>
       <r>  -31.8840    1.0000 </r>
       <r>  -31.8468    1.0000 </r>
       <r>  -31.8416    1.0000 </r>
       <r>  -31.5729    1.0000 </r>
       <r>  -31.5698    1.0000 </r>
       <r>  -31.4489    1.0000 </r>
       <r>  -31.4455    1.0000 </r>
       <r>  -31.4039    1.0000 </r>
       <r>  -31.4013    1.0000 </r>
       <r>   -3.6764    1.0000 </r>
       <r>   -3.0664    1.0000 </r>
       <r>   -1.2966    1.0000 </r>
       <r>   -1.2836    1.0000 </r>
       <r>    1.3899    1.0000 </r>
       <r>    1.7115    1.0000 </r>
       <r>    1.8483    1.0000 </r>
       <r>    2.1067    1.0000 </r>
       <r>    2.2726    1.0000 </r>
       <r>    2.3443    1.0000 </r>
       <r>    2.6743    1.0000 </r>
       <r>    3.0317    1.0000 </r>
       <r>    3.1381    1.0000 </r>
       <r>    3.1412    1.0000 </r>
       <r>    3.2486    1.0000 </r>
       <r>    3.6750    1.0000 </r>
       <r>    3.8513    1.0000 </r>
       <r>    4.0595    1.0000 </r>
       <r>    4.2685    1.0000 </r>
       <r>    4.5856    0.0000 </r>
       <r>    4.7225    0.0000 </r>
       <r>    4.8805    0.0000 </r>
       <r>    5.1413    0.0000 </r>
       <r>    5.1798    0.0000 </r>
       <r>    5.3109    0.0000 </r>
       <r>    5.6471    0.0000 </r>
      </set>
      <set comment="kpoint 5">
       <r>  -58.5789    1.0000 </r>
       <r>  -58.5776    1.0000 </r>
       <r>  -58.1100    1.0000 </r>
       <r>  -58.1094    1.0000 </r>
       <r>  -31.9131    1.0000 </r>
       <r>  -31.9111    1.0000 </r>
       <r>  -31.8871    1.0000 </r>
       <r>  -31.8865    1.0000 </r>
       <r>  -31.8709    1.0000 </r>
       <r>  -31.8699    1.0000 </r>
       <r>  -31.5756    1.0000 </r>
       <r>  -31.5665    1.0000 </r>
       <r>  -31.4162    1.0000 </r>
       <r>  -31.4152    1.0000 </r>
       <r>  -31.4060    1.0000 </r>
       <r>  -31.4053    1.0000 </r>
       <r>   -4.2683    1.0000 </r>
       <r>   -2.1933    1.0000 </r>
       <r>   -1.2046    1.0000 </r>
       <r>   -1.0430    1.0000 </r>
       <r>    1.0516    1.0000 </r>
       <r>    1.1280    1.0000 </r>
       <r>    1.7290    1.0000 </r>
       <r>    1.7507    1.0000 </r>
       <r>    2.2131    1.0000 </r>
       <r>    2.4940    1.0000 </r>
       <r>    2.5909    1.0000 </r>
       <r>    2.8085    1.0000 </r>
       <r>    2.8532    1.0000 </r>
       <r>    2.8748    1.0000 </r>
       <r>    2.9232    1.0000 </r>
       <r>    2.9548    1.0000 </r>
       <r>    4.6995    0.0000 </r>
       <r>    4.7843    0.0000 </r>
       <r>    4.8451    0.0000 </r>
       <r>    4.8464    0.0000 </r>
       <r>    5.0748    0.0000 </r>
       <r>    5.0947    0.0000 </r>
       <r>    5.1902    0.0000 </r>
       <r>    5.2854    0.0000 </r>
       <r>    5.5990    0.0000 </r>
       <r>    5.7180    0.0000 </r>
      </set>
      <set comment="kpoint 6">
       <r>  -58.5785    1.0000 </r>
       <r>  -58.5777    1.0000 </r>
       <r>  -58.1101    1.0000 </r>
       <r>  -58.1096    1.0000 </r>
       <r>  -31.9127    1.0000 </r>
       <r>  -31.9111    1.0000 </r>
       <r>  -31.8843    1.0000 </r>
       <r>  -31.8729    1.0000 </r>
       <r>  -31.8663    1.0000 </r>
       <r>  -31.8540    1.0000 </r>
       <r>  -31.5732    1.0000 </r>
       <r>  -31.5694    1.0000 </r>
       <r>  -31.4342    1.0000 </r>
       <r>  -31.4264    1.0000 </r>
       <r>  -31.4142    1.0000 </r>
       <r>  -31.4073    1.0000 </r>
       <r>   -3.8862    1.0000 </r>
       <r>   -2.7291    1.0000 </r>
       <r>   -1.5608    1.0000 </r>
       <r>   -1.0978    1.0000 </r>
       <r>    1.3642    1.0000 </r>
       <r>    1.5979    1.0000 </r>
       <r>    1.9205    1.0000 </r>
       <r>    2.2068    1.0000 </r>
       <r>    2.2914    1.0000 </r>
       <r>    2.5636    1.0000 </r>
       <r>    2.6881    1.0000 </r>
       <r>    2.7605    1.0000 </r>
       <r>    2.8147    1.0000 </r>
       <r>    2.9204    1.0000 </r>
       <r>    2.9980    1.0000 </r>
       <r>    3.2503    1.0000 </r>
       <r>    4.1729    1.0000 </r>
       <r>    4.3243    1.0000 </r>
       <r>    4.6228    0.0000 </r>
       <r>    4.7517    0.0000 </r>
       <r>    4.9198    0.0000 </r>
       <r>    5.0976    0.0000 </r>
       <r>    5.1382    0.0000 </r>
       <r>    5.3357    0.0000 </r>
       <r>    5.4620    0.0000 </r>
       <r>    5.5511    0.0000 </r>
      </set>
      <set comment="kpoint 7">
       <r>  -58.5782    1.0000 </r>
       <r>  -58.5778    1.0000 </r>
       <r>  -58.1101    1.0000 </r>
       <r>  -58.1098    1.0000 </r>
       <r>  -31.9121    1.0000 </r>
       <r>  -31.9113    1.0000 </r>
       <r>  -31.8806    1.0000 </r>
       <r>  -31.8764    1.0000 </r>
       <r>  -31.8465    1.0000 </r>
       <r>  -31.8417    1.0000 </r>
       <r>  -31.5727    1.0000 </r>
       <r>  -31.5703    1.0000 </r>
       <r>  -31.4488    1.0000 </r>
       <r>  -31.4458    1.0000 </r>
       <r>  -31.4121    1.0000 </r>
       <r>  -31.4097    1.0000 </r>
       <r>   -3.3474    1.0000 </r>
       <r>   -3.3147    1.0000 </r>
       <r>   -1.6974    1.0000 </r>
       <r>   -1.1461    1.0000 </r>
       <r>    1.6440    1.0000 </r>
       <r>    1.7691    1.0000 </r>
       <r>    1.7973    1.0000 </r>
       <r>    2.1631    1.0000 </r>
       <r>    2.2397    1.0000 </r>
       <r>    2.4970    1.0000 </r>
       <r>    2.6641    1.0000 </r>
       <r>    3.1492    1.0000 </r>
       <r>    3.1829    1.0000 </r>
       <r>    3.2831    1.0000 </r>
       <r>    3.4764    1.0000 </r>
       <r>    3.5475    1.0000 </r>
       <r>    3.9099    1.0000 </r>
       <r>    3.9744    1.0000 </r>
       <r>    4.1933    1.0000 </r>
       <r>    4.2280    1.0000 </r>
       <r>    4.8437    0.0000 </r>
       <r>    4.9143    0.0000 </r>
       <r>    4.9922    0.0000 </r>
       <r>    5.1486    0.0000 </r>
       <r>    5.2743    0.0000 </r>
       <r>    5.8279    0.0000 </r>
      </set>
      <set comment="kpoint 8">
       <r>  -58.5781    1.0000 </r>
       <r>  -58.5779    1.0000 </r>
       <r>  -58.1100    1.0000 </r>
       <r>  -58.1099    1.0000 </r>
       <r>  -31.9118    1.0000 </r>
       <r>  -31.9116    1.0000 </r>
       <r>  -31.8804    1.0000 </r>
       <r>  -31.8765    1.0000 </r>
       <r>  -31.8463    1.0000 </r>
       <r>  -31.8419    1.0000 </r>
       <r>  -31.5755    1.0000 </r>
       <r>  -31.5675    1.0000 </r>
       <r>  -31.4489    1.0000 </r>
       <r>  -31.4457    1.0000 </r>
       <r>  -31.4121    1.0000 </r>
       <r>  -31.4096    1.0000 </r>
       <r>   -3.8414    1.0000 </r>
       <r>   -2.7096    1.0000 </r>
       <r>   -1.6405    1.0000 </r>
       <r>   -1.1168    1.0000 </r>
       <r>    1.2029    1.0000 </r>
       <r>    1.4343    1.0000 </r>
       <r>    2.1527    1.0000 </r>
       <r>    2.1853    1.0000 </r>
       <r>    2.2344    1.0000 </r>
       <r>    2.4813    1.0000 </r>
       <r>    2.8065    1.0000 </r>
       <r>    2.8458    1.0000 </r>
       <r>    3.1713    1.0000 </r>
       <r>    3.2800    1.0000 </r>
       <r>    3.4385    1.0000 </r>
       <r>    3.6136    1.0000 </r>
       <r>    3.8992    1.0000 </r>
       <r>    4.1102    1.0000 </r>
       <r>    4.3142    1.0000 </r>
       <r>    4.5364    0.0000 </r>
       <r>    4.7213    0.0000 </r>
       <r>    4.7471    0.0000 </r>
       <r>    4.9500    0.0000 </r>
       <r>    5.3461    0.0000 </r>
       <r>    5.5478    0.0000 </r>
       <r>    5.7771    0.0000 </r>
      </set>
      <set comment="kpoint 9">
       <r>  -58.5785    1.0000 </r>
       <r>  -58.5777    1.0000 </r>
       <r>  -58.1099    1.0000 </r>
       <r>  -58.1098    1.0000 </r>
       <r>  -31.9124    1.0000 </r>
       <r>  -31.9114    1.0000 </r>
       <r>  -31.8841    1.0000 </r>
       <r>  -31.8730    1.0000 </r>
       <r>  -31.8662    1.0000 </r>
       <r>  -31.8542    1.0000 </r>
       <r>  -31.5773    1.0000 </r>
       <r>  -31.5652    1.0000 </r>
       <r>  -31.4342    1.0000 </r>
       <r>  -31.4264    1.0000 </r>
       <r>  -31.4143    1.0000 </r>
       <r>  -31.4073    1.0000 </r>
       <r>   -4.2337    1.0000 </r>
       <r>   -2.0788    1.0000 </r>
       <r>   -1.4568    1.0000 </r>
       <r>   -0.9980    1.0000 </r>
       <r>    0.9010    1.0000 </r>
       <r>    1.2082    1.0000 </r>
       <r>    1.5717    1.0000 </r>
       <r>    1.9217    1.0000 </r>
       <r>    1.9398    1.0000 </r>
       <r>    2.5421    1.0000 </r>
       <r>    2.6995    1.0000 </r>
       <r>    2.7577    1.0000 </r>
       <r>    3.2382    1.0000 </r>
       <r>    3.2640    1.0000 </r>
       <r>    3.4166    1.0000 </r>
       <r>    3.5438    1.0000 </r>
       <r>    4.2612    1.0000 </r>
       <r>    4.3362    1.0000 </r>
       <r>    4.4866    0.0520 </r>
       <r>    4.5870    0.0000 </r>
       <r>    4.6600    0.0000 </r>
       <r>    4.9549    0.0000 </r>
       <r>    5.1697    0.0000 </r>
       <r>    5.4942    0.0000 </r>
       <r>    5.6542    0.0000 </r>
       <r>    6.3527    0.0000 </r>
      </set>
      <set comment="kpoint 10">
       <r>  -58.5788    1.0000 </r>
       <r>  -58.5776    1.0000 </r>
       <r>  -58.1099    1.0000 </r>
       <r>  -58.1095    1.0000 </r>
       <r>  -31.9130    1.0000 </r>
       <r>  -31.9113    1.0000 </r>
       <r>  -31.8871    1.0000 </r>
       <r>  -31.8863    1.0000 </r>
       <r>  -31.8709    1.0000 </r>
       <r>  -31.8702    1.0000 </r>
       <r>  -31.5779    1.0000 </r>
       <r>  -31.5642    1.0000 </r>
       <r>  -31.4161    1.0000 </r>
       <r>  -31.4153    1.0000 </r>
       <r>  -31.4061    1.0000 </r>
       <r>  -31.4052    1.0000 </r>
       <r>   -4.4473    1.0000 </r>
       <r>   -1.6983    1.0000 </r>
       <r>   -1.2352    1.0000 </r>
       <r>   -0.8146    1.0000 </r>
       <r>    0.7871    1.0000 </r>
       <r>    1.0585    1.0000 </r>
       <r>    1.1292    1.0000 </r>
       <r>    1.3971    1.0000 </r>
       <r>    1.7357    1.0000 </r>
       <r>    2.5461    1.0000 </r>
       <r>    2.5796    1.0000 </r>
       <r>    2.8175    1.0000 </r>
       <r>    2.8537    1.0000 </r>
       <r>    3.5141    1.0000 </r>
       <r>    3.6299    1.0000 </r>
       <r>    3.7536    1.0000 </r>
       <r>    3.8909    1.0000 </r>
       <r>    3.9789    1.0000 </r>
       <r>    4.8362    0.0000 </r>
       <r>    4.9762    0.0000 </r>
       <r>    4.9809    0.0000 </r>
       <r>    4.9935    0.0000 </r>
       <r>    5.3408    0.0000 </r>
       <r>    5.5257    0.0000 </r>
       <r>    6.0015    0.0000 </r>
       <r>    6.0981    0.0000 </r>
      </set>
      <set comment="kpoint 11">
       <r>  -58.5783    1.0000 </r>
       <r>  -58.5777    1.0000 </r>
       <r>  -58.1103    1.0000 </r>
       <r>  -58.1097    1.0000 </r>
       <r>  -31.9124    1.0000 </r>
       <r>  -31.9110    1.0000 </r>
       <r>  -31.8656    1.0000 </r>
       <r>  -31.8632    1.0000 </r>
       <r>  -31.8572    1.0000 </r>
       <r>  -31.8543    1.0000 </r>
       <r>  -31.5726    1.0000 </r>
       <r>  -31.5705    1.0000 </r>
       <r>  -31.4346    1.0000 </r>
       <r>  -31.4315    1.0000 </r>
       <r>  -31.4290    1.0000 </r>
       <r>  -31.4265    1.0000 </r>
       <r>   -3.4493    1.0000 </r>
       <r>   -3.0601    1.0000 </r>
       <r>   -1.9854    1.0000 </r>
       <r>   -1.1246    1.0000 </r>
       <r>    1.6098    1.0000 </r>
       <r>    1.9300    1.0000 </r>
       <r>    1.9721    1.0000 </r>
       <r>    2.1343    1.0000 </r>
       <r>    2.2388    1.0000 </r>
       <r>    2.5784    1.0000 </r>
       <r>    2.9836    1.0000 </r>
       <r>    2.9968    1.0000 </r>
       <r>    3.0258    1.0000 </r>
       <r>    3.1117    1.0000 </r>
       <r>    3.3408    1.0000 </r>
       <r>    3.5300    1.0000 </r>
       <r>    3.9714    1.0000 </r>
       <r>    4.0534    1.0000 </r>
       <r>    4.1710    1.0000 </r>
       <r>    4.3968    1.0000 </r>
       <r>    4.6829    0.0000 </r>
       <r>    5.0132    0.0000 </r>
       <r>    5.1248    0.0000 </r>
       <r>    5.3346    0.0000 </r>
       <r>    5.3920    0.0000 </r>
       <r>    5.4778    0.0000 </r>
      </set>
      <set comment="kpoint 12">
       <r>  -58.5780    1.0000 </r>
       <r>  -58.5778    1.0000 </r>
       <r>  -58.1103    1.0000 </r>
       <r>  -58.1099    1.0000 </r>
       <r>  -31.9119    1.0000 </r>
       <r>  -31.9110    1.0000 </r>
       <r>  -31.8617    1.0000 </r>
       <r>  -31.8585    1.0000 </r>
       <r>  -31.8455    1.0000 </r>
       <r>  -31.8420    1.0000 </r>
       <r>  -31.5755    1.0000 </r>
       <r>  -31.5680    1.0000 </r>
       <r>  -31.4487    1.0000 </r>
       <r>  -31.4466    1.0000 </r>
       <r>  -31.4312    1.0000 </r>
       <r>  -31.4295    1.0000 </r>
       <r>   -3.4489    1.0000 </r>
       <r>   -2.8970    1.0000 </r>
       <r>   -2.1500    1.0000 </r>
       <r>   -1.1825    1.0000 </r>
       <r>    1.1455    1.0000 </r>
       <r>    1.7932    1.0000 </r>
       <r>    2.3514    1.0000 </r>
       <r>    2.4733    1.0000 </r>
       <r>    2.4870    1.0000 </r>
       <r>    2.5536    1.0000 </r>
       <r>    2.9269    1.0000 </r>
       <r>    3.2749    1.0000 </r>
       <r>    3.3178    1.0000 </r>
       <r>    3.3550    1.0000 </r>
       <r>    3.5801    1.0000 </r>
       <r>    3.6248    1.0000 </r>
       <r>    3.6261    1.0000 </r>
       <r>    3.8502    1.0000 </r>
       <r>    4.1504    1.0000 </r>
       <r>    4.4783    0.1486 </r>
       <r>    4.4918    0.0230 </r>
       <r>    4.8203    0.0000 </r>
       <r>    4.9597    0.0000 </r>
       <r>    5.3004    0.0000 </r>
       <r>    5.4466    0.0000 </r>
       <r>    5.5932    0.0000 </r>
      </set>
      <set comment="kpoint 13">
       <r>  -58.5780    1.0000 </r>
       <r>  -58.5778    1.0000 </r>
       <r>  -58.1103    1.0000 </r>
       <r>  -58.1100    1.0000 </r>
       <r>  -31.9116    1.0000 </r>
       <r>  -31.9113    1.0000 </r>
       <r>  -31.8615    1.0000 </r>
       <r>  -31.8588    1.0000 </r>
       <r>  -31.8452    1.0000 </r>
       <r>  -31.8423    1.0000 </r>
       <r>  -31.5775    1.0000 </r>
       <r>  -31.5661    1.0000 </r>
       <r>  -31.4488    1.0000 </r>
       <r>  -31.4465    1.0000 </r>
       <r>  -31.4314    1.0000 </r>
       <r>  -31.4293    1.0000 </r>
       <r>   -3.8378    1.0000 </r>
       <r>   -2.3307    1.0000 </r>
       <r>   -2.0464    1.0000 </r>
       <r>   -1.2110    1.0000 </r>
       <r>    0.8454    1.0000 </r>
       <r>    1.4647    1.0000 </r>
       <r>    2.1397    1.0000 </r>
       <r>    2.3961    1.0000 </r>
       <r>    2.6810    1.0000 </r>
       <r>    2.7257    1.0000 </r>
       <r>    2.8585    1.0000 </r>
       <r>    3.1366    1.0000 </r>
       <r>    3.3204    1.0000 </r>
       <r>    3.4720    1.0000 </r>
       <r>    3.4897    1.0000 </r>
       <r>    3.7404    1.0000 </r>
       <r>    3.9532    1.0000 </r>
       <r>    4.0552    1.0000 </r>
       <r>    4.2497    1.0000 </r>
       <r>    4.2951    1.0000 </r>
       <r>    4.4792    0.1349 </r>
       <r>    4.6463    0.0000 </r>
       <r>    4.8438    0.0000 </r>
       <r>    5.5913    0.0000 </r>
       <r>    5.6729    0.0000 </r>
       <r>    5.9035    0.0000 </r>
      </set>
      <set comment="kpoint 14">
       <r>  -58.5783    1.0000 </r>
       <r>  -58.5777    1.0000 </r>
       <r>  -58.1100    1.0000 </r>
       <r>  -58.1100    1.0000 </r>
       <r>  -31.9118    1.0000 </r>
       <r>  -31.9114    1.0000 </r>
       <r>  -31.8654    1.0000 </r>
       <r>  -31.8628    1.0000 </r>
       <r>  -31.8573    1.0000 </r>
       <r>  -31.8547    1.0000 </r>
       <r>  -31.5781    1.0000 </r>
       <r>  -31.5650    1.0000 </r>
       <r>  -31.4346    1.0000 </r>
       <r>  -31.4318    1.0000 </r>
       <r>  -31.4290    1.0000 </r>
       <r>  -31.4263    1.0000 </r>
       <r>   -4.1196    1.0000 </r>
       <r>   -1.9794    1.0000 </r>
       <r>   -1.7785    1.0000 </r>
       <r>   -1.1547    1.0000 </r>
       <r>    0.7444    1.0000 </r>
       <r>    1.3522    1.0000 </r>
       <r>    1.8395    1.0000 </r>
       <r>    1.9594    1.0000 </r>
       <r>    2.1515    1.0000 </r>
       <r>    2.7022    1.0000 </r>
       <r>    2.9168    1.0000 </r>
       <r>    3.0663    1.0000 </r>
       <r>    3.0764    1.0000 </r>
       <r>    3.4289    1.0000 </r>
       <r>    3.7024    1.0000 </r>
       <r>    3.8420    1.0000 </r>
       <r>    4.0297    1.0000 </r>
       <r>    4.3372    1.0000 </r>
       <r>    4.3591    1.0000 </r>
       <r>    4.3735    1.0000 </r>
       <r>    4.5196    0.0000 </r>
       <r>    4.5679    0.0000 </r>
       <r>    5.0636    0.0000 </r>
       <r>    5.7310    0.0000 </r>
       <r>    5.7588    0.0000 </r>
       <r>    5.9053    0.0000 </r>
      </set>
      <set comment="kpoint 15">
       <r>  -58.5778    1.0000 </r>
       <r>  -58.5777    1.0000 </r>
       <r>  -58.1105    1.0000 </r>
       <r>  -58.1100    1.0000 </r>
       <r>  -31.9117    1.0000 </r>
       <r>  -31.9108    1.0000 </r>
       <r>  -31.8466    1.0000 </r>
       <r>  -31.8453    1.0000 </r>
       <r>  -31.8425    1.0000 </r>
       <r>  -31.8408    1.0000 </r>
       <r>  -31.5775    1.0000 </r>
       <r>  -31.5665    1.0000 </r>
       <r>  -31.4503    1.0000 </r>
       <r>  -31.4495    1.0000 </r>
       <r>  -31.4456    1.0000 </r>
       <r>  -31.4451    1.0000 </r>
       <r>   -3.5494    1.0000 </r>
       <r>   -2.4240    1.0000 </r>
       <r>   -2.4201    1.0000 </r>
       <r>   -1.2943    1.0000 </r>
       <r>    0.8178    1.0000 </r>
       <r>    1.4730    1.0000 </r>
       <r>    2.6770    1.0000 </r>
       <r>    2.7669    1.0000 </r>
       <r>    2.7715    1.0000 </r>
       <r>    2.9601    1.0000 </r>
       <r>    3.2865    1.0000 </r>
       <r>    3.3342    1.0000 </r>
       <r>    3.4062    1.0000 </r>
       <r>    3.4756    1.0000 </r>
       <r>    3.5179    1.0000 </r>
       <r>    3.6267    1.0000 </r>
       <r>    3.6980    1.0000 </r>
       <r>    3.7147    1.0000 </r>
       <r>    3.9621    1.0000 </r>
       <r>    4.2200    1.0000 </r>
       <r>    4.5492    0.0000 </r>
       <r>    4.6059    0.0000 </r>
       <r>    5.0635    0.0000 </r>
       <r>    5.2056    0.0000 </r>
       <r>    5.5486    0.0000 </r>
       <r>    5.8069    0.0000 </r>
      </set>
      <set comment="kpoint 16">
       <r>  -58.5778    1.0000 </r>
       <r>  -58.5777    1.0000 </r>
       <r>  -58.1105    1.0000 </r>
       <r>  -58.1100    1.0000 </r>
       <r>  -31.9116    1.0000 </r>
       <r>  -31.9109    1.0000 </r>
       <r>  -31.8464    1.0000 </r>
       <r>  -31.8455    1.0000 </r>
       <r>  -31.8420    1.0000 </r>
       <r>  -31.8413    1.0000 </r>
       <r>  -31.5782    1.0000 </r>
       <r>  -31.5658    1.0000 </r>
       <r>  -31.4503    1.0000 </r>
       <r>  -31.4495    1.0000 </r>
       <r>  -31.4459    1.0000 </r>
       <r>  -31.4449    1.0000 </r>
       <r>   -3.7054    1.0000 </r>
       <r>   -2.3594    1.0000 </r>
       <r>   -2.1556    1.0000 </r>
       <r>   -1.3480    1.0000 </r>
       <r>    0.7087    1.0000 </r>
       <r>    1.3140    1.0000 </r>
       <r>    2.6207    1.0000 </r>
       <r>    2.6944    1.0000 </r>
       <r>    2.8458    1.0000 </r>
       <r>    2.8943    1.0000 </r>
       <r>    3.2192    1.0000 </r>
       <r>    3.3558    1.0000 </r>
       <r>    3.3654    1.0000 </r>
       <r>    3.4060    1.0000 </r>
       <r>    3.6620    1.0000 </r>
       <r>    3.8006    1.0000 </r>
       <r>    3.9229    1.0000 </r>
       <r>    3.9498    1.0000 </r>
       <r>    4.0233    1.0000 </r>
       <r>    4.1266    1.0000 </r>
       <r>    4.1845    1.0000 </r>
       <r>    4.7276    0.0000 </r>
       <r>    4.8356    0.0000 </r>
       <r>    5.4143    0.0000 </r>
       <r>    5.5051    0.0000 </r>
       <r>    5.9108    0.0000 </r>
      </set>
      <set comment="kpoint 17">
       <r>  -58.5789    1.0000 </r>
       <r>  -58.5776    1.0000 </r>
       <r>  -58.1099    1.0000 </r>
       <r>  -58.1095    1.0000 </r>
       <r>  -31.9131    1.0000 </r>
       <r>  -31.9112    1.0000 </r>
       <r>  -31.8891    1.0000 </r>
       <r>  -31.8887    1.0000 </r>
       <r>  -31.8723    1.0000 </r>
       <r>  -31.8715    1.0000 </r>
       <r>  -31.5779    1.0000 </r>
       <r>  -31.5641    1.0000 </r>
       <r>  -31.4145    1.0000 </r>
       <r>  -31.4136    1.0000 </r>
       <r>  -31.4038    1.0000 </r>
       <r>  -31.4033    1.0000 </r>
       <r>   -4.4745    1.0000 </r>
       <r>   -1.6647    1.0000 </r>
       <r>   -1.1864    1.0000 </r>
       <r>   -0.7692    1.0000 </r>
       <r>    0.7912    1.0000 </r>
       <r>    0.9836    1.0000 </r>
       <r>    1.0441    1.0000 </r>
       <r>    1.4014    1.0000 </r>
       <r>    1.6997    1.0000 </r>
       <r>    2.5357    1.0000 </r>
       <r>    2.5523    1.0000 </r>
       <r>    2.7951    1.0000 </r>
       <r>    2.8335    1.0000 </r>
       <r>    3.5230    1.0000 </r>
       <r>    3.6125    1.0000 </r>
       <r>    3.7587    1.0000 </r>
       <r>    3.8743    1.0000 </r>
       <r>    3.9431    1.0000 </r>
       <r>    4.9098    0.0000 </r>
       <r>    5.0177    0.0000 </r>
       <r>    5.0274    0.0000 </r>
       <r>    5.0603    0.0000 </r>
       <r>    5.3648    0.0000 </r>
       <r>    5.5065    0.0000 </r>
       <r>    6.0080    0.0000 </r>
       <r>    6.0910    0.0000 </r>
      </set>
      <set comment="kpoint 18">
       <r>  -58.5786    1.0000 </r>
       <r>  -58.5777    1.0000 </r>
       <r>  -58.1099    1.0000 </r>
       <r>  -58.1097    1.0000 </r>
       <r>  -31.9125    1.0000 </r>
       <r>  -31.9113    1.0000 </r>
       <r>  -31.8864    1.0000 </r>
       <r>  -31.8742    1.0000 </r>
       <r>  -31.8692    1.0000 </r>
       <r>  -31.8562    1.0000 </r>
       <r>  -31.5773    1.0000 </r>
       <r>  -31.5651    1.0000 </r>
       <r>  -31.4318    1.0000 </r>
       <r>  -31.4234    1.0000 </r>
       <r>  -31.4127    1.0000 </r>
       <r>  -31.4051    1.0000 </r>
       <r>   -4.2733    1.0000 </r>
       <r>   -2.0407    1.0000 </r>
       <r>   -1.3926    1.0000 </r>
       <r>   -0.9682    1.0000 </r>
       <r>    0.9052    1.0000 </r>
       <r>    1.1422    1.0000 </r>
       <r>    1.5380    1.0000 </r>
       <r>    1.8436    1.0000 </r>
       <r>    1.8910    1.0000 </r>
       <r>    2.5319    1.0000 </r>
       <r>    2.6892    1.0000 </r>
       <r>    2.7174    1.0000 </r>
       <r>    3.1901    1.0000 </r>
       <r>    3.2489    1.0000 </r>
       <r>    3.4101    1.0000 </r>
       <r>    3.5266    1.0000 </r>
       <r>    4.2455    1.0000 </r>
       <r>    4.3917    1.0000 </r>
       <r>    4.4738    0.2347 </r>
       <r>    4.6772    0.0000 </r>
       <r>    4.7259    0.0000 </r>
       <r>    4.9947    0.0000 </r>
       <r>    5.2036    0.0000 </r>
       <r>    5.4791    0.0000 </r>
       <r>    5.6416    0.0000 </r>
       <r>    6.3674    0.0000 </r>
      </set>
      <set comment="kpoint 19">
       <r>  -58.5782    1.0000 </r>
       <r>  -58.5778    1.0000 </r>
       <r>  -58.1100    1.0000 </r>
       <r>  -58.1099    1.0000 </r>
       <r>  -31.9119    1.0000 </r>
       <r>  -31.9116    1.0000 </r>
       <r>  -31.8827    1.0000 </r>
       <r>  -31.8777    1.0000 </r>
       <r>  -31.8483    1.0000 </r>
       <r>  -31.8426    1.0000 </r>
       <r>  -31.5755    1.0000 </r>
       <r>  -31.5674    1.0000 </r>
       <r>  -31.4478    1.0000 </r>
       <r>  -31.4439    1.0000 </r>
       <r>  -31.4106    1.0000 </r>
       <r>  -31.4074    1.0000 </r>
       <r>   -3.8893    1.0000 </r>
       <r>   -2.6750    1.0000 </r>
       <r>   -1.5746    1.0000 </r>
       <r>   -1.1095    1.0000 </r>
       <r>    1.2072    1.0000 </r>
       <r>    1.3767    1.0000 </r>
       <r>    2.1288    1.0000 </r>
       <r>    2.1387    1.0000 </r>
       <r>    2.2287    1.0000 </r>
       <r>    2.4768    1.0000 </r>
       <r>    2.7650    1.0000 </r>
       <r>    2.8057    1.0000 </r>
       <r>    3.1246    1.0000 </r>
       <r>    3.2435    1.0000 </r>
       <r>    3.4069    1.0000 </r>
       <r>    3.6388    1.0000 </r>
       <r>    3.9544    1.0000 </r>
       <r>    4.0727    1.0000 </r>
       <r>    4.3754    1.0000 </r>
       <r>    4.5888    0.0000 </r>
       <r>    4.7169    0.0000 </r>
       <r>    4.7816    0.0000 </r>
       <r>    4.9910    0.0000 </r>
       <r>    5.3492    0.0000 </r>
       <r>    5.5604    0.0000 </r>
       <r>    5.9278    0.0000 </r>
      </set>
      <set comment="kpoint 20">
       <r>  -58.5781    1.0000 </r>
       <r>  -58.5779    1.0000 </r>
       <r>  -58.1101    1.0000 </r>
       <r>  -58.1098    1.0000 </r>
       <r>  -31.9121    1.0000 </r>
       <r>  -31.9114    1.0000 </r>
       <r>  -31.8818    1.0000 </r>
       <r>  -31.8786    1.0000 </r>
       <r>  -31.8449    1.0000 </r>
       <r>  -31.8412    1.0000 </r>
       <r>  -31.5727    1.0000 </r>
       <r>  -31.5702    1.0000 </r>
       <r>  -31.4495    1.0000 </r>
       <r>  -31.4472    1.0000 </r>
       <r>  -31.4099    1.0000 </r>
       <r>  -31.4081    1.0000 </r>
       <r>   -3.3632    1.0000 </r>
       <r>   -3.3210    1.0000 </r>
       <r>   -1.6420    1.0000 </r>
       <r>   -1.1542    1.0000 </r>
       <r>    1.6453    1.0000 </r>
       <r>    1.7442    1.0000 </r>
       <r>    1.7612    1.0000 </r>
       <r>    2.1811    1.0000 </r>
       <r>    2.2439    1.0000 </r>
       <r>    2.4410    1.0000 </r>
       <r>    2.6720    1.0000 </r>
       <r>    3.1748    1.0000 </r>
       <r>    3.1813    1.0000 </r>
       <r>    3.3230    1.0000 </r>
       <r>    3.4489    1.0000 </r>
       <r>    3.5321    1.0000 </r>
       <r>    3.8629    1.0000 </r>
       <r>    3.9958    1.0000 </r>
       <r>    4.2339    1.0000 </r>
       <r>    4.2613    1.0000 </r>
       <r>    4.7436    0.0000 </r>
       <r>    4.9012    0.0000 </r>
       <r>    5.0284    0.0000 </r>
       <r>    5.1404    0.0000 </r>
       <r>    5.2819    0.0000 </r>
       <r>    5.8058    0.0000 </r>
      </set>
      <set comment="kpoint 21">
       <r>  -58.5785    1.0000 </r>
       <r>  -58.5777    1.0000 </r>
       <r>  -58.1101    1.0000 </r>
       <r>  -58.1096    1.0000 </r>
       <r>  -31.9126    1.0000 </r>
       <r>  -31.9112    1.0000 </r>
       <r>  -31.8857    1.0000 </r>
       <r>  -31.8749    1.0000 </r>
       <r>  -31.8636    1.0000 </r>
       <r>  -31.8518    1.0000 </r>
       <r>  -31.5731    1.0000 </r>
       <r>  -31.5694    1.0000 </r>
       <r>  -31.4366    1.0000 </r>
       <r>  -31.4291    1.0000 </r>
       <r>  -31.4122    1.0000 </r>
       <r>  -31.4057    1.0000 </r>
       <r>   -3.8710    1.0000 </r>
       <r>   -2.7638    1.0000 </r>
       <r>   -1.5288    1.0000 </r>
       <r>   -1.1108    1.0000 </r>
       <r>    1.3481    1.0000 </r>
       <r>    1.6232    1.0000 </r>
       <r>    1.9336    1.0000 </r>
       <r>    2.1579    1.0000 </r>
       <r>    2.2890    1.0000 </r>
       <r>    2.5629    1.0000 </r>
       <r>    2.6472    1.0000 </r>
       <r>    2.7925    1.0000 </r>
       <r>    2.8488    1.0000 </r>
       <r>    2.9339    1.0000 </r>
       <r>    3.0164    1.0000 </r>
       <r>    3.3310    1.0000 </r>
       <r>    4.1184    1.0000 </r>
       <r>    4.2936    1.0000 </r>
       <r>    4.5924    0.0000 </r>
       <r>    4.7433    0.0000 </r>
       <r>    4.8838    0.0000 </r>
       <r>    5.1067    0.0000 </r>
       <r>    5.1536    0.0000 </r>
       <r>    5.3056    0.0000 </r>
       <r>    5.4100    0.0000 </r>
       <r>    5.5506    0.0000 </r>
      </set>
      <set comment="kpoint 22">
       <r>  -58.5789    1.0000 </r>
       <r>  -58.5776    1.0000 </r>
       <r>  -58.1100    1.0000 </r>
       <r>  -58.1094    1.0000 </r>
       <r>  -31.9131    1.0000 </r>
       <r>  -31.9111    1.0000 </r>
       <r>  -31.8885    1.0000 </r>
       <r>  -31.8849    1.0000 </r>
       <r>  -31.8723    1.0000 </r>
       <r>  -31.8685    1.0000 </r>
       <r>  -31.5756    1.0000 </r>
       <r>  -31.5665    1.0000 </r>
       <r>  -31.4178    1.0000 </r>
       <r>  -31.4137    1.0000 </r>
       <r>  -31.4077    1.0000 </r>
       <r>  -31.4038    1.0000 </r>
       <r>   -4.2665    1.0000 </r>
       <r>   -2.1974    1.0000 </r>
       <r>   -1.2023    1.0000 </r>
       <r>   -1.0455    1.0000 </r>
       <r>    1.0439    1.0000 </r>
       <r>    1.1378    1.0000 </r>
       <r>    1.7310    1.0000 </r>
       <r>    1.7535    1.0000 </r>
       <r>    2.2142    1.0000 </r>
       <r>    2.4887    1.0000 </r>
       <r>    2.5929    1.0000 </r>
       <r>    2.7804    1.0000 </r>
       <r>    2.8786    1.0000 </r>
       <r>    2.8848    1.0000 </r>
       <r>    2.9236    1.0000 </r>
       <r>    2.9583    1.0000 </r>
       <r>    4.6764    0.0000 </r>
       <r>    4.7963    0.0000 </r>
       <r>    4.8277    0.0000 </r>
       <r>    4.8620    0.0000 </r>
       <r>    5.0613    0.0000 </r>
       <r>    5.1179    0.0000 </r>
       <r>    5.1808    0.0000 </r>
       <r>    5.2919    0.0000 </r>
       <r>    5.5984    0.0000 </r>
       <r>    5.7384    0.0000 </r>
      </set>
      <set comment="kpoint 23">
       <r>  -58.5790    1.0000 </r>
       <r>  -58.5776    1.0000 </r>
       <r>  -58.1099    1.0000 </r>
       <r>  -58.1093    1.0000 </r>
       <r>  -31.9133    1.0000 </r>
       <r>  -31.9112    1.0000 </r>
       <r>  -31.8952    1.0000 </r>
       <r>  -31.8896    1.0000 </r>
       <r>  -31.8772    1.0000 </r>
       <r>  -31.8712    1.0000 </r>
       <r>  -31.5772    1.0000 </r>
       <r>  -31.5645    1.0000 </r>
       <r>  -31.4144    1.0000 </r>
       <r>  -31.4080    1.0000 </r>
[...]
       <r>    3.0042    1.0000 </r>
       <r>    3.1019    1.0000 </r>
       <r>    3.1542    1.0000 </r>
       <r>    4.3761    1.0000 </r>
       <r>    4.4991    0.0060 </r>
       <r>    4.9603    0.0000 </r>
       <r>    5.0667    0.0000 </r>
       <r>    5.0706    0.0000 </r>
       <r>    5.2510    0.0000 </r>
       <r>    5.8935    0.0000 </r>
       <r>    6.1359    0.0000 </r>
       <r>    6.1622    0.0000 </r>
      </set>
      <set comment="kpoint 115">
       <r>  -58.5791    1.0000 </r>
       <r>  -58.5776    1.0000 </r>
       <r>  -58.1103    1.0000 </r>
       <r>  -58.1089    1.0000 </r>
       <r>  -31.9143    1.0000 </r>
       <r>  -31.9105    1.0000 </r>
       <r>  -31.8941    1.0000 </r>
       <r>  -31.8941    1.0000 </r>
       <r>  -31.8749    1.0000 </r>
       <r>  -31.8745    1.0000 </r>
       <r>  -31.5755    1.0000 </r>
       <r>  -31.5661    1.0000 </r>
       <r>  -31.4103    1.0000 </r>
       <r>  -31.4099    1.0000 </r>
       <r>  -31.3990    1.0000 </r>
       <r>  -31.3989    1.0000 </r>
       <r>   -3.3045    1.0000 </r>
       <r>   -3.2394    1.0000 </r>
       <r>   -2.0355    1.0000 </r>
       <r>    0.0808    1.0000 </r>
       <r>    0.6241    1.0000 </r>
       <r>    1.7710    1.0000 </r>
       <r>    1.8460    1.0000 </r>
       <r>    1.8480    1.0000 </r>
       <r>    1.8494    1.0000 </r>
       <r>    1.8811    1.0000 </r>
       <r>    2.3135    1.0000 </r>
       <r>    2.5442    1.0000 </r>
       <r>    2.6811    1.0000 </r>
       <r>    2.6969    1.0000 </r>
       <r>    2.7536    1.0000 </r>
       <r>    3.1888    1.0000 </r>
       <r>    3.1930    1.0000 </r>
       <r>    4.7635    0.0000 </r>
       <r>    4.7778    0.0000 </r>
       <r>    5.1052    0.0000 </r>
       <r>    5.1073    0.0000 </r>
       <r>    5.2137    0.0000 </r>
       <r>    5.4249    0.0000 </r>
       <r>    5.6420    0.0000 </r>
       <r>    5.6701    0.0000 </r>
       <r>    6.9934    0.0000 </r>
      </set>
      <set comment="kpoint 116">
       <r>  -58.5791    1.0000 </r>
       <r>  -58.5776    1.0000 </r>
       <r>  -58.1104    1.0000 </r>
       <r>  -58.1088    1.0000 </r>
       <r>  -31.9143    1.0000 </r>
       <r>  -31.9105    1.0000 </r>
       <r>  -31.8943    1.0000 </r>
       <r>  -31.8940    1.0000 </r>
       <r>  -31.8747    1.0000 </r>
       <r>  -31.8746    1.0000 </r>
       <r>  -31.5761    1.0000 </r>
       <r>  -31.5655    1.0000 </r>
       <r>  -31.4101    1.0000 </r>
       <r>  -31.4101    1.0000 </r>
       <r>  -31.3991    1.0000 </r>
       <r>  -31.3988    1.0000 </r>
       <r>   -3.2920    1.0000 </r>
       <r>   -3.1959    1.0000 </r>
       <r>   -2.0794    1.0000 </r>
       <r>   -0.0916    1.0000 </r>
       <r>    0.9118    1.0000 </r>
       <r>    1.7216    1.0000 </r>
       <r>    1.8041    1.0000 </r>
       <r>    1.8420    1.0000 </r>
       <r>    1.9878    1.0000 </r>
       <r>    1.9945    1.0000 </r>
       <r>    1.9949    1.0000 </r>
       <r>    2.5469    1.0000 </r>
       <r>    2.6872    1.0000 </r>
       <r>    2.6968    1.0000 </r>
       <r>    2.7570    1.0000 </r>
       <r>    2.9927    1.0000 </r>
       <r>    2.9982    1.0000 </r>
       <r>    4.7375    0.0000 </r>
       <r>    4.7516    0.0000 </r>
       <r>    5.2114    0.0000 </r>
       <r>    5.3690    0.0000 </r>
       <r>    5.4217    0.0000 </r>
       <r>    5.4245    0.0000 </r>
       <r>    5.7177    0.0000 </r>
       <r>    5.8302    0.0000 </r>
       <r>    6.6950    0.0000 </r>
      </set>
     </set>
    </set>
   </array>
  </eigenvalues>
  <separator name="orbital magnetization" >
   <v name="MAGDIPOLOUT">      0.00000000      0.00000000      0.00000000</v>
  </separator>
  <dos>
   <i name="efermi">      4.46357359 </i>
   <total>
    <array>
     <dimension dim="1">gridpoints</dimension>
     <dimension dim="2">spin</dimension>
     <field>energy</field>
     <field>total</field>
     <field>integrated</field>
     <set>
      <set comment="spin 1">
       <r>   -61.8577     0.0000     0.0000 </r>
       <r>   -61.6173     0.0000     0.0000 </r>
       <r>   -61.3769     0.0000     0.0000 </r>
       <r>   -61.1364     0.0000     0.0000 </r>
       <r>   -60.8960     0.0000     0.0000 </r>
       <r>   -60.6556     0.0000     0.0000 </r>
       <r>   -60.4151     0.0000     0.0000 </r>
       <r>   -60.1747     0.0000     0.0000 </r>
       <r>   -59.9343     0.0000     0.0000 </r>
       <r>   -59.6938     0.0000     0.0000 </r>
       <r>   -59.4534     0.0000     0.0000 </r>
       <r>   -59.2130     0.0000     0.0000 </r>
       <r>   -58.9725     0.0000     0.0000 </r>
       <r>   -58.7321     0.0000     0.0000 </r>
       <r>   -58.4917    16.6367     4.0000 </r>
       <r>   -58.2513     0.0000     4.0000 </r>
       <r>   -58.0108    16.6367     8.0000 </r>
       <r>   -57.7704     0.0000     8.0000 </r>
       <r>   -57.5300     0.0000     8.0000 </r>
       <r>   -57.2895     0.0000     8.0000 </r>
       <r>   -57.0491     0.0000     8.0000 </r>
       <r>   -56.8087     0.0000     8.0000 </r>
       <r>   -56.5682     0.0000     8.0000 </r>
       <r>   -56.3278     0.0000     8.0000 </r>
       <r>   -56.0874     0.0000     8.0000 </r>
       <r>   -55.8469     0.0000     8.0000 </r>
       <r>   -55.6065     0.0000     8.0000 </r>
       <r>   -55.3661     0.0000     8.0000 </r>
       <r>   -55.1256     0.0000     8.0000 </r>
       <r>   -54.8852     0.0000     8.0000 </r>
       <r>   -54.6448     0.0000     8.0000 </r>
       <r>   -54.4043     0.0000     8.0000 </r>
       <r>   -54.1639     0.0000     8.0000 </r>
       <r>   -53.9235     0.0000     8.0000 </r>
       <r>   -53.6830     0.0000     8.0000 </r>
       <r>   -53.4426     0.0000     8.0000 </r>
       <r>   -53.2022     0.0000     8.0000 </r>
       <r>   -52.9617     0.0000     8.0000 </r>
       <r>   -52.7213     0.0000     8.0000 </r>
       <r>   -52.4809     0.0000     8.0000 </r>
       <r>   -52.2404     0.0000     8.0000 </r>
       <r>   -52.0000     0.0000     8.0000 </r>
       <r>   -51.7596     0.0000     8.0000 </r>
       <r>   -51.5191     0.0000     8.0000 </r>
       <r>   -51.2787     0.0000     8.0000 </r>
       <r>   -51.0383     0.0000     8.0000 </r>
       <r>   -50.7978     0.0000     8.0000 </r>
       <r>   -50.5574     0.0000     8.0000 </r>
       <r>   -50.3170     0.0000     8.0000 </r>
       <r>   -50.0765     0.0000     8.0000 </r>
       <r>   -49.8361     0.0000     8.0000 </r>
       <r>   -49.5957     0.0000     8.0000 </r>
       <r>   -49.3552     0.0000     8.0000 </r>
       <r>   -49.1148     0.0000     8.0000 </r>
       <r>   -48.8744     0.0000     8.0000 </r>
       <r>   -48.6339     0.0000     8.0000 </r>
       <r>   -48.3935     0.0000     8.0000 </r>
       <r>   -48.1531     0.0000     8.0000 </r>
       <r>   -47.9126     0.0000     8.0000 </r>
       <r>   -47.6722     0.0000     8.0000 </r>
       <r>   -47.4318     0.0000     8.0000 </r>
       <r>   -47.1913     0.0000     8.0000 </r>
       <r>   -46.9509     0.0000     8.0000 </r>
       <r>   -46.7105     0.0000     8.0000 </r>
       <r>   -46.4701     0.0000     8.0000 </r>
       <r>   -46.2296     0.0000     8.0000 </r>
       <r>   -45.9892     0.0000     8.0000 </r>
       <r>   -45.7488     0.0000     8.0000 </r>
       <r>   -45.5083     0.0000     8.0000 </r>
       <r>   -45.2679     0.0000     8.0000 </r>
       <r>   -45.0275     0.0000     8.0000 </r>
       <r>   -44.7870     0.0000     8.0000 </r>
       <r>   -44.5466     0.0000     8.0000 </r>
       <r>   -44.3062     0.0000     8.0000 </r>
       <r>   -44.0657     0.0000     8.0000 </r>
       <r>   -43.8253     0.0000     8.0000 </r>
       <r>   -43.5849     0.0000     8.0000 </r>
       <r>   -43.3444     0.0000     8.0000 </r>
       <r>   -43.1040     0.0000     8.0000 </r>
       <r>   -42.8636     0.0000     8.0000 </r>
       <r>   -42.6231     0.0000     8.0000 </r>
       <r>   -42.3827     0.0000     8.0000 </r>
       <r>   -42.1423     0.0000     8.0000 </r>
       <r>   -41.9018     0.0000     8.0000 </r>
       <r>   -41.6614     0.0000     8.0000 </r>
       <r>   -41.4210     0.0000     8.0000 </r>
       <r>   -41.1805     0.0000     8.0000 </r>
       <r>   -40.9401     0.0000     8.0000 </r>
       <r>   -40.6997     0.0000     8.0000 </r>
       <r>   -40.4592     0.0000     8.0000 </r>
       <r>   -40.2188     0.0000     8.0000 </r>
       <r>   -39.9784     0.0000     8.0000 </r>
       <r>   -39.7379     0.0000     8.0000 </r>
       <r>   -39.4975     0.0000     8.0000 </r>
       <r>   -39.2571     0.0000     8.0000 </r>
       <r>   -39.0166     0.0000     8.0000 </r>
       <r>   -38.7762     0.0000     8.0000 </r>
       <r>   -38.5358     0.0000     8.0000 </r>
       <r>   -38.2953     0.0000     8.0000 </r>
       <r>   -38.0549     0.0000     8.0000 </r>
       <r>   -37.8145     0.0000     8.0000 </r>
       <r>   -37.5740     0.0000     8.0000 </r>
       <r>   -37.3336     0.0000     8.0000 </r>
       <r>   -37.0932     0.0000     8.0000 </r>
       <r>   -36.8527     0.0000     8.0000 </r>
       <r>   -36.6123     0.0000     8.0000 </r>
       <r>   -36.3719     0.0000     8.0000 </r>
       <r>   -36.1314     0.0000     8.0000 </r>
       <r>   -35.8910     0.0000     8.0000 </r>
       <r>   -35.6506     0.0000     8.0000 </r>
       <r>   -35.4101     0.0000     8.0000 </r>
       <r>   -35.1697     0.0000     8.0000 </r>
       <r>   -34.9293     0.0000     8.0000 </r>
       <r>   -34.6889     0.0000     8.0000 </r>
       <r>   -34.4484     0.0000     8.0000 </r>
       <r>   -34.2080     0.0000     8.0000 </r>
       <r>   -33.9676     0.0000     8.0000 </r>
       <r>   -33.7271     0.0000     8.0000 </r>
       <r>   -33.4867     0.0000     8.0000 </r>
       <r>   -33.2463     0.0000     8.0000 </r>
       <r>   -33.0058     0.0000     8.0000 </r>
       <r>   -32.7654     0.0000     8.0000 </r>
       <r>   -32.5250     0.0000     8.0000 </r>
       <r>   -32.2845     0.0000     8.0000 </r>
       <r>   -32.0441     0.0000     8.0000 </r>
       <r>   -31.8037    49.8860    19.9942 </r>
       <r>   -31.5632    11.8013    22.8374 </r>
       <r>   -31.3228    33.2734    32.0000 </r>
       <r>   -31.0824     0.0000    32.0000 </r>
       <r>   -30.8419     0.0000    32.0000 </r>
       <r>   -30.6015     0.0000    32.0000 </r>
       <r>   -30.3611     0.0000    32.0000 </r>
       <r>   -30.1206     0.0000    32.0000 </r>
       <r>   -29.8802     0.0000    32.0000 </r>
       <r>   -29.6398     0.0000    32.0000 </r>
       <r>   -29.3993     0.0000    32.0000 </r>
       <r>   -29.1589     0.0000    32.0000 </r>
       <r>   -28.9185     0.0000    32.0000 </r>
       <r>   -28.6780     0.0000    32.0000 </r>
       <r>   -28.4376     0.0000    32.0000 </r>
       <r>   -28.1972     0.0000    32.0000 </r>
       <r>   -27.9567     0.0000    32.0000 </r>
       <r>   -27.7163     0.0000    32.0000 </r>
       <r>   -27.4759     0.0000    32.0000 </r>
       <r>   -27.2354     0.0000    32.0000 </r>
       <r>   -26.9950     0.0000    32.0000 </r>
       <r>   -26.7546     0.0000    32.0000 </r>
       <r>   -26.5141     0.0000    32.0000 </r>
       <r>   -26.2737     0.0000    32.0000 </r>
       <r>   -26.0333     0.0000    32.0000 </r>
       <r>   -25.7928     0.0000    32.0000 </r>
       <r>   -25.5524     0.0000    32.0000 </r>
       <r>   -25.3120     0.0000    32.0000 </r>
       <r>   -25.0715     0.0000    32.0000 </r>
       <r>   -24.8311     0.0000    32.0000 </r>
       <r>   -24.5907     0.0000    32.0000 </r>
       <r>   -24.3502     0.0000    32.0000 </r>
       <r>   -24.1098     0.0000    32.0000 </r>
       <r>   -23.8694     0.0000    32.0000 </r>
       <r>   -23.6289     0.0000    32.0000 </r>
       <r>   -23.3885     0.0000    32.0000 </r>
       <r>   -23.1481     0.0000    32.0000 </r>
       <r>   -22.9077     0.0000    32.0000 </r>
       <r>   -22.6672     0.0000    32.0000 </r>
       <r>   -22.4268     0.0000    32.0000 </r>
       <r>   -22.1864     0.0000    32.0000 </r>
       <r>   -21.9459     0.0000    32.0000 </r>
       <r>   -21.7055     0.0000    32.0000 </r>
       <r>   -21.4651     0.0000    32.0000 </r>
       <r>   -21.2246     0.0000    32.0000 </r>
       <r>   -20.9842     0.0000    32.0000 </r>
       <r>   -20.7438     0.0000    32.0000 </r>
       <r>   -20.5033     0.0000    32.0000 </r>
       <r>   -20.2629     0.0000    32.0000 </r>
       <r>   -20.0225     0.0000    32.0000 </r>
       <r>   -19.7820     0.0000    32.0000 </r>
       <r>   -19.5416     0.0000    32.0000 </r>
       <r>   -19.3012     0.0000    32.0000 </r>
       <r>   -19.0607     0.0000    32.0000 </r>
       <r>   -18.8203     0.0000    32.0000 </r>
       <r>   -18.5799     0.0000    32.0000 </r>
       <r>   -18.3394     0.0000    32.0000 </r>
       <r>   -18.0990     0.0000    32.0000 </r>
       <r>   -17.8586     0.0000    32.0000 </r>
       <r>   -17.6181     0.0000    32.0000 </r>
       <r>   -17.3777     0.0000    32.0000 </r>
       <r>   -17.1373     0.0000    32.0000 </r>
       <r>   -16.8968     0.0000    32.0000 </r>
       <r>   -16.6564     0.0000    32.0000 </r>
       <r>   -16.4160     0.0000    32.0000 </r>
       <r>   -16.1755     0.0000    32.0000 </r>
       <r>   -15.9351     0.0000    32.0000 </r>
       <r>   -15.6947     0.0000    32.0000 </r>
       <r>   -15.4542     0.0000    32.0000 </r>
       <r>   -15.2138     0.0000    32.0000 </r>
       <r>   -14.9734     0.0000    32.0000 </r>
       <r>   -14.7329     0.0000    32.0000 </r>
       <r>   -14.4925     0.0000    32.0000 </r>
       <r>   -14.2521     0.0000    32.0000 </r>
       <r>   -14.0116     0.0000    32.0000 </r>
       <r>   -13.7712     0.0000    32.0000 </r>
       <r>   -13.5308     0.0000    32.0000 </r>
       <r>   -13.2903     0.0000    32.0000 </r>
       <r>   -13.0499     0.0000    32.0000 </r>
       <r>   -12.8095     0.0000    32.0000 </r>
       <r>   -12.5690     0.0000    32.0000 </r>
       <r>   -12.3286     0.0000    32.0000 </r>
       <r>   -12.0882     0.0000    32.0000 </r>
       <r>   -11.8477     0.0000    32.0000 </r>
       <r>   -11.6073     0.0000    32.0000 </r>
       <r>   -11.3669     0.0000    32.0000 </r>
       <r>   -11.1265     0.0000    32.0000 </r>
       <r>   -10.8860     0.0000    32.0000 </r>
       <r>   -10.6456     0.0000    32.0000 </r>
       <r>   -10.4052     0.0000    32.0000 </r>
       <r>   -10.1647     0.0000    32.0000 </r>
       <r>    -9.9243     0.0000    32.0000 </r>
       <r>    -9.6839     0.0000    32.0000 </r>
       <r>    -9.4434     0.0000    32.0000 </r>
       <r>    -9.2030     0.0000    32.0000 </r>
       <r>    -8.9626     0.0000    32.0000 </r>
       <r>    -8.7221     0.0000    32.0000 </r>
       <r>    -8.4817     0.0000    32.0000 </r>
       <r>    -8.2413     0.0000    32.0000 </r>
       <r>    -8.0008     0.0000    32.0000 </r>
       <r>    -7.7604     0.0000    32.0000 </r>
       <r>    -7.5200     0.0000    32.0000 </r>
       <r>    -7.2795     0.0000    32.0000 </r>
       <r>    -7.0391     0.0000    32.0000 </r>
       <r>    -6.7987     0.0000    32.0000 </r>
       <r>    -6.5582     0.0000    32.0000 </r>
       <r>    -6.3178     0.0000    32.0000 </r>
       <r>    -6.0774     0.0000    32.0000 </r>
       <r>    -5.8369     0.0000    32.0000 </r>
       <r>    -5.5965     0.0000    32.0000 </r>
       <r>    -5.3561     0.0000    32.0000 </r>
       <r>    -5.1156     0.0000    32.0000 </r>
       <r>    -4.8752     0.0000    32.0000 </r>
       <r>    -4.6348     0.0000    32.0000 </r>
       <r>    -4.3943     0.2648    32.0688 </r>
       <r>    -4.1539     0.6491    32.2632 </r>
       <r>    -3.9135     0.6682    32.5331 </r>
       <r>    -3.6730     1.0217    32.9855 </r>
       <r>    -3.4326     1.8539    33.5886 </r>
       <r>    -3.1922     1.9341    34.1997 </r>
       <r>    -2.9517     1.2359    34.6645 </r>
       <r>    -2.7113     1.1121    35.1041 </r>
       <r>    -2.4709     0.6724    35.4066 </r>
       <r>    -2.2304     1.4093    35.9154 </r>
       <r>    -1.9900     2.2671    36.6165 </r>
       <r>    -1.7496     1.3482    37.1609 </r>
       <r>    -1.5091     1.4778    37.7635 </r>
       <r>    -1.2687     1.3322    38.2336 </r>
       <r>    -1.0283     2.1301    38.9305 </r>
       <r>    -0.7878     0.8058    39.1784 </r>
       <r>    -0.5474     0.9685    39.5135 </r>
       <r>    -0.3070     0.1252    39.7036 </r>
       <r>    -0.0665     0.2974    39.8062 </r>
       <r>     0.1739     0.5301    40.0050 </r>
       <r>     0.4143     0.4770    40.1657 </r>
       <r>     0.6547     1.1896    40.4595 </r>
       <r>     0.8952     1.7355    40.9632 </r>
       <r>     1.1356     1.3987    41.4587 </r>
       <r>     1.3760     2.0048    42.2065 </r>
       <r>     1.6165     2.7935    43.3655 </r>
       <r>     1.8569     5.4084    45.1218 </r>
       <r>     2.0973     3.9350    46.7573 </r>
       <r>     2.3378     7.3480    49.1085 </r>
       <r>     2.5782     6.5415    51.3636 </r>
       <r>     2.8186     8.6208    54.2411 </r>
       <r>     3.0591     7.9377    56.8728 </r>
       <r>     3.2995     9.2431    59.9060 </r>
       <r>     3.5399     8.2401    63.0067 </r>
       <r>     3.7804     4.3996    64.7721 </r>
       <r>     4.0208     4.3226    66.1821 </r>
       <r>     4.2612     6.6433    68.3065 </r>
       <r>     4.5017     5.5273    70.4667 </r>
       <r>     4.7421     6.9086    72.7172 </r>
       <r>     4.9825     6.9490    75.2116 </r>
       <r>     5.2230     5.9185    77.4536 </r>
       <r>     5.4634     7.2354    79.7549 </r>
       <r>     5.7038     6.2375    82.1171 </r>
       <r>     5.9443     1.7493    82.9818 </r>
       <r>     6.1847     1.0337    83.4424 </r>
       <r>     6.4251     0.9745    83.7751 </r>
       <r>     6.6656     0.4111    83.8948 </r>
       <r>     6.9060     0.2546    83.9898 </r>
       <r>     7.1464     0.0424    84.0000 </r>
       <r>     7.3869     0.0000    84.0000 </r>
       <r>     7.6273     0.0000    84.0000 </r>
       <r>     7.8677     0.0000    84.0000 </r>
       <r>     8.1082     0.0000    84.0000 </r>
       <r>     8.3486     0.0000    84.0000 </r>
       <r>     8.5890     0.0000    84.0000 </r>
       <r>     8.8295     0.0000    84.0000 </r>
       <r>     9.0699     0.0000    84.0000 </r>
       <r>     9.3103     0.0000    84.0000 </r>
       <r>     9.5508     0.0000    84.0000 </r>
       <r>     9.7912     0.0000    84.0000 </r>
       <r>    10.0316     0.0000    84.0000 </r>
       <r>    10.2721     0.0000    84.0000 </r>
      </set>
     </set>
    </array>
   </total>
  </dos>
 </calculation>
 <structure name="finalpos" >
  <crystal>
   <varray name="basis" >
    <v>       5.43206189       0.00000000      -3.34300309 </v>
    <v>      -1.69615798       5.16045971      -3.34300309 </v>
    <v>       0.00000000       0.00000000       6.37832000 </v>
   </varray>
   <i name="volume">    178.79666147 </i>
   <varray name="rec_basis" >
    <v>       0.18409216       0.06050806       0.00000000 </v>
    <v>       0.00000000       0.19378119       0.00000000 </v>
    <v>       0.09648632       0.13327800       0.15678110 </v>
   </varray>
  </crystal>
  <varray name="positions" >
   <v>       0.25000000       0.75000000       0.50000000 </v>
   <v>       0.75000000       0.25000000       0.50000000 </v>
   <v>       0.50000000       0.00000000       0.50000000 </v>
   <v>       0.50000000       0.50000000       0.00000000 </v>
   <v>       0.00000000       0.50000000       0.50000000 </v>
   <v>       0.00000000       0.00000000       0.00000000 </v>
   <v>       0.25000000       0.25000000       0.00000000 </v>
   <v>       0.75000000       0.75000000       0.00000000 </v>
  </varray>
 </structure>
</modeling>
