<?xml version="1.0" encoding="ISO-8859-1"?>
<modeling>
 <generator>
  <i name="program" type="string">vasp </i>
  <i name="version" type="string">6.2.0  </i>
  <i name="subversion" type="string">18Jan21 (build Jan 05 2022 15:41:44) complex                          parallel </i>
  <i name="platform" type="string">LinuxIFC </i>
  <i name="date" type="string">2025 05 07 </i>
  <i name="time" type="string">20:38:42 </i>
 </generator>
 <incar>
  <i type="string" name="SYSTEM">routine with relax: pwdword</i>
  <i type="string" name="PREC">Acc</i>
  <i type="int" name="IALGO">    38</i>
  <i type="string" name="ALGO">A</i>
  <i type="logical" name="ADDGRID"> T  </i>
  <i type="int" name="ICHARG">     2</i>
  <i type="int" name="NELM">   100</i>
  <i type="int" name="NELMIN">     6</i>
  <i name="EDIFF">      0.00000000</i>
  <i type="int" name="NSW">     0</i>
  <i type="int" name="ISIF">    -1</i>
  <i name="ENCUT">    600.00000000</i>
  <i type="logical" name="LREAL"> F  </i>
  <i type="int" name="ISMEAR">     0</i>
  <i name="SIGMA">      0.02000000</i>
  <i type="logical" name="LASPH"> T  </i>
  <i type="string" name="METAGGA">R2SCAN</i>
  <i type="logical" name="LMIXTAU"> F  </i>
 </incar>
 <primitive_cell>
  <structure name="primitive_cell" >
   <crystal>
    <varray name="basis" >
     <v>       5.81259187       0.00000000      -2.98893382 </v>
     <v>      -2.16450684       5.39454673      -2.98893382 </v>
     <v>       0.00000000       0.00000000       6.53605000 </v>
    </varray>
    <i name="volume">    204.94633441 </i>
    <varray name="rec_basis" >
     <v>       0.17204029       0.06902941       0.00000000 </v>
     <v>       0.00000000       0.18537239       0.00000000 </v>
     <v>       0.07867398       0.11633787       0.15299761 </v>
    </varray>
   </crystal>
   <varray name="positions" >
    <v>       0.50000000       0.00000000       0.50000000 </v>
    <v>       0.00000000       0.50000000       0.50000000 </v>
    <v>       0.24906000       0.74906000       0.99812000 </v>
    <v>       0.50000000       0.50000000       1.00000000 </v>
    <v>       0.75094000       0.25094000       0.00188000 </v>
    <v>       0.74906000       0.75094000       0.50000000 </v>
    <v>       0.25094000       0.24906000       0.50000000 </v>
    <v>       0.00000000       0.00000000       0.00000000 </v>
    <v>       0.25000000       0.75000000       0.50000000 </v>
    <v>       0.75000000       0.25000000       0.50000000 </v>
   </varray>
  </structure>
  <varray name="primitive_index" >
   <v type="int" >        1 </v>
   <v type="int" >        2 </v>
   <v type="int" >        3 </v>
   <v type="int" >        4 </v>
   <v type="int" >        5 </v>
   <v type="int" >        6 </v>
   <v type="int" >        7 </v>
   <v type="int" >        8 </v>
   <v type="int" >        9 </v>
   <v type="int" >       10 </v>
  </varray>
 </primitive_cell>
 <kpoints>
  <generation param="Gamma">
   <v type="int" name="divisions">       7        7        7 </v>
   <v name="usershift">      0.00000000       0.00000000       0.00000000 </v>
   <v name="genvec1">      0.14285714      -0.00000000       0.00000000 </v>
   <v name="genvec2">      0.00000000       0.14285714       0.00000000 </v>
   <v name="genvec3">      0.00000000       0.00000000       0.14285714 </v>
   <v name="shift">      0.00000000       0.00000000       0.00000000 </v>
  </generation>
  <varray name="kpointlist" >
   <v>       0.00000000       0.00000000       0.00000000 </v>
   <v>       0.14285714      -0.00000000       0.00000000 </v>
   <v>       0.28571429      -0.00000000       0.00000000 </v>
   <v>       0.42857143      -0.00000000       0.00000000 </v>
   <v>       0.14285714       0.14285714       0.00000000 </v>
   <v>       0.28571429       0.14285714       0.00000000 </v>
   <v>       0.42857143       0.14285714       0.00000000 </v>
   <v>      -0.42857143       0.14285714       0.00000000 </v>
   <v>      -0.28571429       0.14285714       0.00000000 </v>
   <v>      -0.14285714       0.14285714       0.00000000 </v>
   <v>       0.28571429       0.28571429       0.00000000 </v>
   <v>       0.42857143       0.28571429       0.00000000 </v>
   <v>      -0.42857143       0.28571429       0.00000000 </v>
   <v>      -0.28571429       0.28571429       0.00000000 </v>
   <v>       0.42857143       0.42857143       0.00000000 </v>
   <v>      -0.42857143       0.42857143       0.00000000 </v>
   <v>       0.00000000      -0.00000000       0.14285714 </v>
   <v>       0.14285714      -0.00000000       0.14285714 </v>
   <v>       0.28571429      -0.00000000       0.14285714 </v>
   <v>       0.42857143      -0.00000000       0.14285714 </v>
   <v>      -0.42857143       0.00000000       0.14285714 </v>
   <v>      -0.28571429       0.00000000       0.14285714 </v>
   <v>      -0.14285714       0.00000000       0.14285714 </v>
   <v>       0.14285714       0.14285714       0.14285714 </v>
   <v>       0.28571429       0.14285714       0.14285714 </v>
   <v>       0.42857143       0.14285714       0.14285714 </v>
   <v>      -0.42857143       0.14285714       0.14285714 </v>
   <v>      -0.28571429       0.14285714       0.14285714 </v>
   <v>      -0.14285714       0.14285714       0.14285714 </v>
   <v>       0.28571429       0.28571429       0.14285714 </v>
   <v>       0.42857143       0.28571429       0.14285714 </v>
   <v>      -0.42857143       0.28571429       0.14285714 </v>
   <v>      -0.28571429       0.28571429       0.14285714 </v>
   <v>      -0.14285714       0.28571429       0.14285714 </v>
   <v>       0.42857143       0.42857143       0.14285714 </v>
   <v>      -0.42857143       0.42857143       0.14285714 </v>
   <v>      -0.28571429       0.42857143       0.14285714 </v>
   <v>      -0.14285714       0.42857143       0.14285714 </v>
   <v>      -0.42857143      -0.42857143       0.14285714 </v>
   <v>      -0.28571429      -0.42857143       0.14285714 </v>
   <v>      -0.14285714      -0.42857143       0.14285714 </v>
   <v>      -0.28571429      -0.28571429       0.14285714 </v>
   <v>      -0.14285714      -0.28571429       0.14285714 </v>
   <v>      -0.14285714      -0.14285714       0.14285714 </v>
   <v>       0.00000000      -0.00000000       0.28571429 </v>
   <v>       0.14285714      -0.00000000       0.28571429 </v>
   <v>       0.28571429      -0.00000000       0.28571429 </v>
   <v>       0.42857143      -0.00000000       0.28571429 </v>
   <v>      -0.42857143       0.00000000       0.28571429 </v>
   <v>      -0.28571429       0.00000000       0.28571429 </v>
   <v>      -0.14285714      -0.00000000       0.28571429 </v>
   <v>       0.14285714       0.14285714       0.28571429 </v>
   <v>       0.28571429       0.14285714       0.28571429 </v>
   <v>       0.42857143       0.14285714       0.28571429 </v>
   <v>      -0.42857143       0.14285714       0.28571429 </v>
   <v>      -0.28571429       0.14285714       0.28571429 </v>
   <v>      -0.14285714       0.14285714       0.28571429 </v>
   <v>       0.28571429       0.28571429       0.28571429 </v>
   <v>       0.42857143       0.28571429       0.28571429 </v>
   <v>      -0.42857143       0.28571429       0.28571429 </v>
   <v>      -0.28571429       0.28571429       0.28571429 </v>
   <v>      -0.14285714       0.28571429       0.28571429 </v>
   <v>       0.42857143       0.42857143       0.28571429 </v>
   <v>      -0.42857143       0.42857143       0.28571429 </v>
   <v>      -0.28571429       0.42857143       0.28571429 </v>
   <v>      -0.14285714       0.42857143       0.28571429 </v>
   <v>      -0.42857143      -0.42857143       0.28571429 </v>
   <v>      -0.28571429      -0.42857143       0.28571429 </v>
   <v>      -0.14285714      -0.42857143       0.28571429 </v>
   <v>      -0.28571429      -0.28571429       0.28571429 </v>
   <v>      -0.14285714      -0.28571429       0.28571429 </v>
   <v>      -0.14285714      -0.14285714       0.28571429 </v>
   <v>      -0.00000000      -0.00000000       0.42857143 </v>
   <v>       0.14285714      -0.00000000       0.42857143 </v>
   <v>       0.28571429      -0.00000000       0.42857143 </v>
   <v>       0.42857143      -0.00000000       0.42857143 </v>
   <v>      -0.42857143       0.00000000       0.42857143 </v>
   <v>      -0.28571429      -0.00000000       0.42857143 </v>
   <v>      -0.14285714      -0.00000000       0.42857143 </v>
   <v>       0.14285714       0.14285714       0.42857143 </v>
   <v>       0.28571429       0.14285714       0.42857143 </v>
   <v>       0.42857143       0.14285714       0.42857143 </v>
   <v>      -0.42857143       0.14285714       0.42857143 </v>
   <v>      -0.28571429       0.14285714       0.42857143 </v>
   <v>      -0.14285714       0.14285714       0.42857143 </v>
   <v>       0.28571429       0.28571429       0.42857143 </v>
   <v>       0.42857143       0.28571429       0.42857143 </v>
   <v>      -0.42857143       0.28571429       0.42857143 </v>
   <v>      -0.28571429       0.28571429       0.42857143 </v>
   <v>      -0.14285714       0.28571429       0.42857143 </v>
   <v>       0.42857143       0.42857143       0.42857143 </v>
   <v>      -0.42857143       0.42857143       0.42857143 </v>
   <v>      -0.28571429       0.42857143       0.42857143 </v>
   <v>      -0.14285714       0.42857143       0.42857143 </v>
   <v>      -0.42857143      -0.42857143       0.42857143 </v>
   <v>      -0.28571429      -0.42857143       0.42857143 </v>
   <v>      -0.14285714      -0.42857143       0.42857143 </v>
   <v>      -0.28571429      -0.28571429       0.42857143 </v>
   <v>      -0.14285714      -0.28571429       0.42857143 </v>
   <v>      -0.14285714      -0.14285714       0.42857143 </v>
  </varray>
  <varray name="weights" >
   <v>       0.00291545 </v>
   <v>       0.01166181 </v>
   <v>       0.01166181 </v>
   <v>       0.01166181 </v>
   <v>       0.00583090 </v>
   <v>       0.01166181 </v>
   <v>       0.01166181 </v>
   <v>       0.01166181 </v>
   <v>       0.01166181 </v>
   <v>       0.00583090 </v>
   <v>       0.00583090 </v>
   <v>       0.01166181 </v>
   <v>       0.01166181 </v>
   <v>       0.00583090 </v>
   <v>       0.00583090 </v>
   <v>       0.00583090 </v>
   <v>       0.00583090 </v>
   <v>       0.01166181 </v>
   <v>       0.01166181 </v>
   <v>       0.01166181 </v>
   <v>       0.01166181 </v>
   <v>       0.01166181 </v>
   <v>       0.01166181 </v>
   <v>       0.00583090 </v>
   <v>       0.01166181 </v>
   <v>       0.01166181 </v>
   <v>       0.01166181 </v>
   <v>       0.01166181 </v>
   <v>       0.01166181 </v>
   <v>       0.00583090 </v>
   <v>       0.01166181 </v>
   <v>       0.01166181 </v>
   <v>       0.01166181 </v>
   <v>       0.01166181 </v>
   <v>       0.00583090 </v>
   <v>       0.01166181 </v>
   <v>       0.01166181 </v>
   <v>       0.01166181 </v>
   <v>       0.00583090 </v>
   <v>       0.01166181 </v>
   <v>       0.01166181 </v>
   <v>       0.00583090 </v>
   <v>       0.01166181 </v>
   <v>       0.00583090 </v>
   <v>       0.00583090 </v>
   <v>       0.01166181 </v>
   <v>       0.01166181 </v>
   <v>       0.01166181 </v>
   <v>       0.01166181 </v>
   <v>       0.01166181 </v>
   <v>       0.01166181 </v>
   <v>       0.00583090 </v>
   <v>       0.01166181 </v>
   <v>       0.01166181 </v>
   <v>       0.01166181 </v>
   <v>       0.01166181 </v>
   <v>       0.01166181 </v>
   <v>       0.00583090 </v>
   <v>       0.01166181 </v>
   <v>       0.01166181 </v>
   <v>       0.01166181 </v>
   <v>       0.01166181 </v>
   <v>       0.00583090 </v>
   <v>       0.01166181 </v>
   <v>       0.01166181 </v>
   <v>       0.01166181 </v>
   <v>       0.00583090 </v>
   <v>       0.01166181 </v>
   <v>       0.01166181 </v>
   <v>       0.00583090 </v>
   <v>       0.01166181 </v>
   <v>       0.00583090 </v>
   <v>       0.00583090 </v>
   <v>       0.01166181 </v>
   <v>       0.01166181 </v>
   <v>       0.01166181 </v>
   <v>       0.01166181 </v>
   <v>       0.01166181 </v>
   <v>       0.01166181 </v>
   <v>       0.00583090 </v>
   <v>       0.01166181 </v>
   <v>       0.01166181 </v>
   <v>       0.01166181 </v>
   <v>       0.01166181 </v>
   <v>       0.01166181 </v>
   <v>       0.00583090 </v>
   <v>       0.01166181 </v>
   <v>       0.01166181 </v>
   <v>       0.01166181 </v>
   <v>       0.01166181 </v>
   <v>       0.00583090 </v>
   <v>       0.01166181 </v>
   <v>       0.01166181 </v>
   <v>       0.01166181 </v>
   <v>       0.00583090 </v>
   <v>       0.01166181 </v>
   <v>       0.01166181 </v>
   <v>       0.00583090 </v>
   <v>       0.01166181 </v>
   <v>       0.00583090 </v>
  </varray>
 </kpoints>
 <parameters>
  <separator name="general" >
   <i type="string" name="SYSTEM">routine with relax: pwdword</i>
   <i type="logical" name="LCOMPAT"> F  </i>
  </separator>
  <separator name="electronic" >
   <i type="string" name="PREC">acc</i>
   <i name="ENMAX">    600.00000000</i>
   <i name="ENAUG">    535.51400000</i>
   <i name="EDIFF">      0.00000000</i>
   <i type="int" name="IALGO">    58</i>
   <i type="int" name="IWAVPR">    10</i>
   <i type="int" name="NBANDS">    60</i>
   <i type="int" name="NBANDSLOW">    -1</i>
   <i type="int" name="NBANDSHIGH">    -1</i>
   <i name="NELECT">     98.00000000</i>
   <i type="int" name="TURBO">     0</i>
   <i type="int" name="IRESTART">     0</i>
   <i type="int" name="NREBOOT">     0</i>
   <i type="int" name="NMIN">     0</i>
   <i name="EREF">      0.00000000</i>
   <separator name="electronic smearing" >
    <i type="int" name="ISMEAR">     0</i>
    <i name="SIGMA">      0.02000000</i>
    <i name="KSPACING">      0.50000000</i>
    <i type="logical" name="KGAMMA"> T  </i>
    <i type="logical" name="KBLOWUP"> T  </i>
   </separator>
   <separator name="electronic projectors" >
    <i type="logical" name="LREAL"> F  </i>
    <v name="ROPT">      0.00000000      0.00000000      0.00000000</v>
    <i type="int" name="LMAXPAW">  -100</i>
    <i type="int" name="LMAXMIX">     2</i>
    <i type="logical" name="NLSPLINE"> F  </i>
   </separator>
   <separator name="electronic startup" >
    <i type="int" name="ISTART">     0</i>
    <i type="int" name="ICHARG">     2</i>
    <i type="int" name="INIWAV">     1</i>
   </separator>
   <separator name="electronic spin" >
    <i type="int" name="ISPIN">     1</i>
    <i type="logical" name="LNONCOLLINEAR"> F  </i>
    <v name="MAGMOM">      1.00000000      1.00000000      1.00000000      1.00000000      1.00000000      1.00000000      1.00000000      1.00000000      1.00000000      1.00000000</v>
    <i name="NUPDOWN">     -1.00000000</i>
    <i type="logical" name="LSORBIT"> F  </i>
    <v name="SAXIS">      0.00000000      0.00000000      1.00000000</v>
    <i type="logical" name="LSPIRAL"> F  </i>
    <v name="QSPIRAL">      0.00000000      0.00000000      0.00000000</v>
    <i type="logical" name="LZEROZ"> F  </i>
   </separator>
   <separator name="electronic exchange-correlation" >
    <i type="logical" name="LASPH"> T  </i>
    <i type="logical" name="LMETAGGA"> F  </i>
   </separator>
   <separator name="electronic convergence" >
    <i type="int" name="NELM">   100</i>
    <i type="int" name="NELMDL">    -5</i>
    <i type="int" name="NELMIN">     6</i>
    <i name="ENINI">    600.00000000</i>
    <separator name="electronic convergence detail" >
     <i type="logical" name="LDIAG"> T  </i>
     <i type="logical" name="LSUBROT"> F  </i>
     <i name="WEIMIN">      0.00000000</i>
     <i name="EBREAK">      0.00000000</i>
     <i name="DEPER">      0.30000000</i>
     <i type="int" name="NRMM">     4</i>
     <i name="TIME">      0.40000000</i>
    </separator>
   </separator>
   <separator name="electronic mixer" >
    <i name="AMIX">      0.40000000</i>
    <i name="BMIX">      1.00000000</i>
    <i name="AMIN">      0.10000000</i>
    <i name="AMIX_MAG">      1.60000000</i>
    <i name="BMIX_MAG">      1.00000000</i>
    <separator name="electronic mixer details" >
     <i type="int" name="IMIX">     4</i>
     <i type="logical" name="MIXFIRST"> F  </i>
     <i type="int" name="MAXMIX">   -45</i>
     <i name="WC">    100.00000000</i>
     <i type="int" name="INIMIX">     1</i>
     <i type="int" name="MIXPRE">     1</i>
     <i type="int" name="MREMOVE">     5</i>
    </separator>
   </separator>
   <separator name="electronic dipolcorrection" >
    <i type="logical" name="LDIPOL"> F  </i>
    <i type="logical" name="LMONO"> F  </i>
    <i type="int" name="IDIPOL">     0</i>
    <i name="EPSILON">      1.00000000</i>
    <v name="DIPOL">   -100.00000000   -100.00000000   -100.00000000</v>
    <i name="EFIELD">      0.00000000</i>
   </separator>
  </separator>
  <separator name="grids" >
   <i type="int" name="NGX">    54</i>
   <i type="int" name="NGY">    54</i>
   <i type="int" name="NGZ">    54</i>
   <i type="int" name="NGXF">   108</i>
   <i type="int" name="NGYF">   108</i>
   <i type="int" name="NGZF">   108</i>
   <i type="logical" name="ADDGRID"> T  </i>
  </separator>
  <separator name="ionic" >
   <i type="int" name="NSW">     0</i>
   <i type="int" name="IBRION">    -1</i>
   <i type="int" name="MDALGO">     0</i>
   <i type="int" name="ISIF">    -1</i>
   <i name="PSTRESS">      0.00000000</i>
   <i name="EDIFFG">      0.00000001</i>
   <i type="int" name="NFREE">     0</i>
   <i name="POTIM">      0.50000000</i>
   <i name="SMASS">     -3.00000000</i>
   <i name="SCALEE">      1.00000000</i>
  </separator>
  <separator name="ionic md" >
   <i name="TEBEG">      0.00010000</i>
   <i name="TEEND">      0.00010000</i>
   <i type="int" name="NBLOCK">     1</i>
   <i type="int" name="KBLOCK">     1</i>
   <i type="int" name="NPACO">   256</i>
   <i name="APACO">     16.00000000</i>
  </separator>
  <separator name="symmetry" >
   <i type="int" name="ISYM">     2</i>
   <i name="SYMPREC">      0.00001000</i>
  </separator>
  <separator name="dos" >
   <i type="int" name="LORBIT">     0</i>
   <v name="RWIGS">     -1.00000000     -1.00000000     -1.00000000</v>
   <i type="int" name="NEDOS">   301</i>
   <i name="EMIN">     10.00000000</i>
   <i name="EMAX">    -10.00000000</i>
   <i name="EFERMI">      0.00000000</i>
  </separator>
  <separator name="writing" >
   <i type="int" name="NWRITE">     2</i>
   <i type="logical" name="LWAVE"> T  </i>
   <i type="logical" name="LDOWNSAMPLE"> F  </i>
   <i type="logical" name="LCHARG"> T  </i>
   <i type="logical" name="LPARD"> F  </i>
   <i type="logical" name="LVTOT"> F  </i>
   <i type="logical" name="LVHAR"> F  </i>
   <i type="logical" name="LELF"> F  </i>
   <i type="logical" name="LOPTICS"> F  </i>
   <v name="STM">      0.00000000      0.00000000      0.00000000      0.00000000      0.00000000      0.00000000      0.00000000</v>
  </separator>
  <separator name="performance" >
   <i type="int" name="NPAR">     6</i>
   <i type="int" name="NSIM">     4</i>
   <i type="int" name="NBLK">    -1</i>
   <i type="logical" name="LPLANE"> T  </i>
   <i type="logical" name="LSCALAPACK"> T  </i>
   <i type="logical" name="LSCAAWARE"> F  </i>
   <i type="logical" name="LSCALU"> F  </i>
   <i type="logical" name="LASYNC"> F  </i>
   <i type="logical" name="LORBITALREAL"> F  </i>
  </separator>
  <separator name="miscellaneous" >
   <i type="int" name="IDIOT">     3</i>
   <i type="int" name="PHON_NSTRUCT">    -1</i>
   <i type="logical" name="LMUSIC"> F  </i>
   <v name="POMASS">     10.81100000     95.94000000     28.08500000</v>
   <v name="DARWINR">      0.00000000      0.00000000      0.00000000</v>
   <v name="DARWINV">      1.00000000      1.00000000      1.00000000</v>
   <i type="logical" name="LCORR"> T  </i>
  </separator>
  <i type="logical" name="GGA_COMPAT"> T  </i>
  <i type="logical" name="LBERRY"> F  </i>
  <i type="int" name="ICORELEVEL">     0</i>
  <i type="logical" name="LDAU"> F  </i>
  <i type="int" name="I_CONSTRAINED_M">     0</i>
  <separator name="electronic exchange-correlation" >
   <i type="string" name="GGA">--</i>
   <i type="int" name="VOSKOWN">     0</i>
   <i type="logical" name="LHFCALC"> F  </i>
   <i type="string" name="PRECFOCK"></i>
   <i type="logical" name="LSYMGRAD"> F  </i>
   <i type="logical" name="LHFONE"> F  </i>
   <i type="logical" name="LRHFCALC"> F  </i>
   <i type="logical" name="LTHOMAS"> F  </i>
   <i type="logical" name="LMODELHF"> F  </i>
   <i type="logical" name="LFOCKACE"> F  </i>
   <i name="ENCUT4O">     -1.00000000</i>
   <i type="int" name="EXXOEP">     0</i>
   <i type="int" name="FOURORBIT">     0</i>
   <i name="AEXX">      0.00000000</i>
   <i name="HFALPHA">      0.00000000</i>
   <i name="MCALPHA">      0.00000000</i>
   <i name="ALDAX">      1.00000000</i>
   <i name="AGGAX">      1.00000000</i>
   <i name="ALDAC">      1.00000000</i>
   <i name="AGGAC">      1.00000000</i>
   <i type="int" name="NKREDX">     1</i>
   <i type="int" name="NKREDY">     1</i>
   <i type="int" name="NKREDZ">     1</i>
   <i type="logical" name="SHIFTRED"> F  </i>
   <i type="logical" name="ODDONLY"> F  </i>
   <i type="logical" name="EVENONLY"> F  </i>
   <i type="int" name="LMAXFOCK">     0</i>
   <i type="int" name="NMAXFOCKAE">     0</i>
   <i type="logical" name="LFOCKAEDFT"> F  </i>
   <i name="HFSCREEN">      0.00000000</i>
   <i name="HFSCREENC">      0.00000000</i>
   <i type="int" name="NBANDSGWLOW">     0</i>
  </separator>
  <separator name="vdW DFT" >
   <i type="logical" name="LUSE_VDW"> F  </i>
   <i name="Zab_VDW">     -0.84910000</i>
   <i name="PARAM1">      0.12340000</i>
   <i name="PARAM2">      1.00000000</i>
   <i name="PARAM3">      0.00000000</i>
  </separator>
  <separator name="model GW" >
   <i type="int" name="MODEL_GW">     0</i>
   <i name="MODEL_EPS0">     12.29678006</i>
   <i name="MODEL_ALPHA">      1.00000000</i>
  </separator>
  <separator name="linear response parameters" >
   <i type="logical" name="LEPSILON"> F  </i>
   <i type="logical" name="LRPA"> F  </i>
   <i type="logical" name="LNABLA"> F  </i>
   <i type="logical" name="LVEL"> F  </i>
   <i type="int" name="KINTER">     0</i>
   <i name="CSHIFT">      0.10000000</i>
   <i name="OMEGAMAX">     -1.00000000</i>
   <i name="DEG_THRESHOLD">      0.00200000</i>
   <i name="RTIME">     -0.10000000</i>
   <i name="WPLASMAI">      0.00000000</i>
   <v name="DFIELD">      0.00000000      0.00000000      0.00000000</v>
   <v name="WPLASMA">      0.00000000      0.00000000      0.00000000      0.00000000      0.00000000      0.00000000      0.00000000      0.00000000      0.00000000</v>
  </separator>
  <separator name="orbital magnetization" >
   <i type="logical" name="NUCIND"> F  </i>
   <v name="MAGPOS">      0.00000000      0.00000000      0.00000000</v>
   <i type="logical" name="LNICSALL"> T  </i>
   <i type="logical" name="ORBITALMAG"> F  </i>
   <i type="logical" name="LMAGBLOCH"> F  </i>
   <i type="logical" name="LCHIMAG"> F  </i>
   <i type="logical" name="LGAUGE"> T  </i>
   <i type="int" name="MAGATOM">     0</i>
   <v name="MAGDIPOL">      0.00000000      0.00000000      0.00000000</v>
   <v name="AVECCONST">      0.00000000      0.00000000      0.00000000</v>
  </separator>
  <separator name="response functions" >
   <i type="logical" name="LFINITE_TEMPERATURE"> F  </i>
   <i type="logical" name="LADDER"> F  </i>
   <i type="logical" name="LRPAFORCE"> F  </i>
   <i type="logical" name="LFXC"> F  </i>
   <i type="logical" name="LHARTREE"> T  </i>
   <i type="int" name="IBSE">     0</i>
   <v type="int" name="KPOINT">    -1     0     0     0</v>
   <i type="logical" name="LTCTC"> F  </i>
   <i type="logical" name="LTCTE"> F  </i>
   <i type="logical" name="LTETE"> F  </i>
   <i type="logical" name="LTRIPLET"> F  </i>
   <i type="logical" name="LFXCEPS"> F  </i>
   <i type="logical" name="LFXHEG"> F  </i>
   <i type="int" name="NATURALO">     2</i>
   <i type="logical" name="LHOLEGF"> F  </i>
   <i type="logical" name="L2ORDER"> F  </i>
   <i type="logical" name="LDMP1"> F  </i>
   <i type="logical" name="LMP2LT"> F  </i>
   <i type="logical" name="LSMP2LT"> F  </i>
   <i type="logical" name="LGWLF"> F  </i>
   <i name="ENCUTGW">     -2.00000000</i>
   <i name="ENCUTGWSOFT">     -2.00000000</i>
   <i name="ENCUTLF">     -1.00000000</i>
   <i type="logical" name="LESF_SPLINES"> F  </i>
   <i type="int" name="LMAXMP2">    -1</i>
   <i name="SCISSOR">      0.00000000</i>
   <i type="int" name="NOMEGA">     0</i>
   <i type="int" name="NOMEGAR">     0</i>
   <i type="int" name="NBANDSGW">    -1</i>
   <i type="int" name="NBANDSO">    -1</i>
   <i type="int" name="NBANDSV">    -1</i>
   <i type="int" name="NELM">   100</i>
   <i type="int" name="NELMHF">     1</i>
   <i type="int" name="DIM">     3</i>
   <i type="int" name="IESPILON">     4</i>
   <i type="int" name="ANTIRES">     0</i>
   <i name="OMEGAMAX">    -30.00000000</i>
   <i name="OMEGAMIN">    -30.00000000</i>
   <i name="OMEGATL">   -200.00000000</i>
   <i type="int" name="OMEGAGRID">     0</i>
   <i name="CSHIFT">     -0.10000000</i>
   <i type="logical" name="LSELFENERGY"> F  </i>
   <i type="logical" name="LSPECTRAL"> F  </i>
   <i type="logical" name="LSPECTRALGW"> F  </i>
   <i type="logical" name="LSINGLES"> F  </i>
   <i type="logical" name="LFERMIGW"> F  </i>
   <i type="logical" name="ODDONLYGW"> F  </i>
   <i type="logical" name="EVENONLYGW"> F  </i>
   <i type="int" name="NKREDLFX">     1</i>
   <i type="int" name="NKREDLFY">     1</i>
   <i type="int" name="NKREDLFZ">     1</i>
   <i type="int" name="MAXMEM">  2800</i>
   <i type="int" name="TELESCOPE">     0</i>
   <i type="int" name="NTAUPAR">    -1</i>
   <i type="int" name="NOMEGAPAR">    -1</i>
   <i name="DAMP_NEWTON">      0.80000001</i>
   <i name="LAMBDA">      1.00000000</i>
  </separator>
  <separator name="External order field" >
   <i name="OFIELD_KAPPA">      0.00000000</i>
   <v name="OFIELD_K">      0.00000000      0.00000000      0.00000000</v>
   <i name="OFIELD_Q6_NEAR">      0.00000000</i>
   <i name="OFIELD_Q6_FAR">      0.00000000</i>
   <i name="OFIELD_A">      0.00000000</i>
  </separator>
 </parameters>
 <atominfo>
  <atoms>      10 </atoms>
  <types>       3 </types>
  <array name="atoms" >
   <dimension dim="1">ion</dimension>
   <field type="string">element</field>
   <field type="int">atomtype</field>
   <set>
    <rc><c>B </c><c>   1</c></rc>
    <rc><c>B </c><c>   1</c></rc>
    <rc><c>Mo</c><c>   2</c></rc>
    <rc><c>Mo</c><c>   2</c></rc>
    <rc><c>Mo</c><c>   2</c></rc>
    <rc><c>Mo</c><c>   2</c></rc>
    <rc><c>Mo</c><c>   2</c></rc>
    <rc><c>Mo</c><c>   2</c></rc>
    <rc><c>Si</c><c>   3</c></rc>
    <rc><c>Si</c><c>   3</c></rc>
   </set>
  </array>
  <array name="atomtypes" >
   <dimension dim="1">type</dimension>
   <field type="int">atomspertype</field>
   <field type="string">element</field>
   <field>mass</field>
   <field>valence</field>
   <field type="string">pseudopotential</field>
   <set>
    <rc><c>   2</c><c>B </c><c>     10.81100000</c><c>      3.00000000</c><c>  PAW_PBE B 06Sep2000                   </c></rc>
    <rc><c>   6</c><c>Mo</c><c>     95.94000000</c><c>     14.00000000</c><c>  PAW_PBE Mo_sv 02Feb2006               </c></rc>
    <rc><c>   2</c><c>Si</c><c>     28.08500000</c><c>      4.00000000</c><c>  PAW_PBE Si 05Jan2001                  </c></rc>
   </set>
  </array>
 </atominfo>
 <structure name="initialpos" >
  <crystal>
   <varray name="basis" >
    <v>       5.81259187       0.00000000      -2.98893382 </v>
    <v>      -2.16450684       5.39454673      -2.98893382 </v>
    <v>       0.00000000       0.00000000       6.53605000 </v>
   </varray>
   <i name="volume">    204.94633441 </i>
   <varray name="rec_basis" >
    <v>       0.17204029       0.06902941       0.00000000 </v>
    <v>       0.00000000       0.18537239       0.00000000 </v>
    <v>       0.07867398       0.11633787       0.15299761 </v>
   </varray>
  </crystal>
  <varray name="positions" >
   <v>       0.50000000       0.00000000       0.50000000 </v>
   <v>       0.00000000       0.50000000       0.50000000 </v>
   <v>       0.24906000       0.74906000       0.99812000 </v>
   <v>       0.50000000       0.50000000       0.00000000 </v>
   <v>       0.75094000       0.25094000       0.00188000 </v>
   <v>       0.74906000       0.75094000       0.50000000 </v>
   <v>       0.25094000       0.24906000       0.50000000 </v>
   <v>       0.00000000       0.00000000       0.00000000 </v>
   <v>       0.25000000       0.75000000       0.50000000 </v>
   <v>       0.75000000       0.25000000       0.50000000 </v>
  </varray>
 </structure>
 <calculation>
  <scstep>
   <time name="total">   29.69   29.97</time>
   <energy>
    <i name="alphaZ">    407.64059476 </i>
    <i name="ewald">  -7473.29666116 </i>
    <i name="hartreedc">  -3604.02324059 </i>
    <i name="XCdc">    458.25809976 </i>
    <i name="pawpsdc">   9166.97638771 </i>
    <i name="pawaedc">  -9126.13493418 </i>
    <i name="eentropy">     -0.00072078 </i>
    <i name="bandstr">   -372.91545439 </i>
    <i name="atom">  11522.16744521 </i>
    <i name="e_fr_energy">    978.67151635 </i>
    <i name="e_wo_entrp">    978.67223713 </i>
    <i name="e_0_energy">    978.67187674 </i>
   </energy>
  </scstep>
  <scstep>
   <time name="total">   28.94   29.22</time>
   <energy>
    <i name="e_fr_energy">   -163.92327202 </i>
    <i name="e_wo_entrp">   -163.92091151 </i>
    <i name="e_0_energy">   -163.92209177 </i>
   </energy>
  </scstep>
  <scstep>
   <time name="total">   32.65   32.96</time>
   <energy>
    <i name="e_fr_energy">   -212.25013482 </i>
    <i name="e_wo_entrp">   -212.24732862 </i>
    <i name="e_0_energy">   -212.24873172 </i>
   </energy>
  </scstep>
  <scstep>
   <time name="total">   31.66   31.96</time>
   <energy>
    <i name="e_fr_energy">   -213.69594019 </i>
    <i name="e_wo_entrp">   -213.69085323 </i>
    <i name="e_0_energy">   -213.69339671 </i>
   </energy>
  </scstep>
  <scstep>
   <time name="total">   34.00   34.31</time>
   <energy>
    <i name="e_fr_energy">   -213.73597429 </i>
    <i name="e_wo_entrp">   -213.73085402 </i>
    <i name="e_0_energy">   -213.73341416 </i>
   </energy>
  </scstep>
  <scstep>
   <time name="total">   32.33   32.68</time>
   <energy>
    <i name="e_fr_energy">   -155.94804385 </i>
    <i name="e_wo_entrp">   -155.94510607 </i>
    <i name="e_0_energy">   -155.94657496 </i>
   </energy>
  </scstep>
  <scstep>
   <time name="total">   37.08   37.37</time>
   <energy>
    <i name="e_fr_energy">   -167.72798327 </i>
    <i name="e_wo_entrp">   -167.72549348 </i>
    <i name="e_0_energy">   -167.72673837 </i>
   </energy>
  </scstep>
  <scstep>
   <time name="total">   37.46   37.76</time>
   <energy>
    <i name="e_fr_energy">   -170.23269574 </i>
    <i name="e_wo_entrp">   -170.22973301 </i>
    <i name="e_0_energy">   -170.23121438 </i>
   </energy>
  </scstep>
  <scstep>
   <time name="total">   39.53   39.83</time>
   <energy>
    <i name="e_fr_energy">   -170.85960127 </i>
    <i name="e_wo_entrp">   -170.85652917 </i>
    <i name="e_0_energy">   -170.85806522 </i>
   </energy>
  </scstep>
  <scstep>
   <time name="total">   37.46   37.76</time>
   <energy>
    <i name="e_fr_energy">   -171.10444908 </i>
    <i name="e_wo_entrp">   -171.10103620 </i>
    <i name="e_0_energy">   -171.10274264 </i>
   </energy>
  </scstep>
  <scstep>
   <time name="total">   36.92   37.22</time>
   <energy>
    <i name="e_fr_energy">   -171.19695502 </i>
    <i name="e_wo_entrp">   -171.19344954 </i>
    <i name="e_0_energy">   -171.19520228 </i>
   </energy>
  </scstep>
  <scstep>
   <time name="total">   39.38   39.69</time>
   <energy>
    <i name="e_fr_energy">   -171.23953928 </i>
    <i name="e_wo_entrp">   -171.23589671 </i>
    <i name="e_0_energy">   -171.23771799 </i>
   </energy>
  </scstep>
  <scstep>
   <time name="total">   38.41   38.71</time>
   <energy>
    <i name="e_fr_energy">   -171.25853177 </i>
    <i name="e_wo_entrp">   -171.25490264 </i>
    <i name="e_0_energy">   -171.25671720 </i>
   </energy>
  </scstep>
  <scstep>
   <time name="total">   35.84   36.15</time>
   <energy>
    <i name="e_fr_energy">   -171.26805876 </i>
    <i name="e_wo_entrp">   -171.26440135 </i>
    <i name="e_0_energy">   -171.26623006 </i>
   </energy>
  </scstep>
  <scstep>
   <time name="total">   36.94   37.23</time>
   <energy>
    <i name="e_fr_energy">   -171.27325478 </i>
    <i name="e_wo_entrp">   -171.26961193 </i>
    <i name="e_0_energy">   -171.27143335 </i>
   </energy>
  </scstep>
  <scstep>
   <time name="total">   39.18   39.48</time>
   <energy>
    <i name="e_fr_energy">   -171.27594342 </i>
    <i name="e_wo_entrp">   -171.27227677 </i>
    <i name="e_0_energy">   -171.27411009 </i>
   </energy>
  </scstep>
  <scstep>
   <time name="total">   37.40   37.69</time>
   <energy>
    <i name="e_fr_energy">   -171.27719953 </i>
    <i name="e_wo_entrp">   -171.27351672 </i>
    <i name="e_0_energy">   -171.27535813 </i>
   </energy>
  </scstep>
  <scstep>
   <time name="total">   38.34   38.64</time>
   <energy>
    <i name="e_fr_energy">   -171.27773371 </i>
    <i name="e_wo_entrp">   -171.27403176 </i>
    <i name="e_0_energy">   -171.27588274 </i>
   </energy>
  </scstep>
  <scstep>
   <time name="total">   37.76   38.05</time>
   <energy>
    <i name="e_fr_energy">   -171.27803064 </i>
    <i name="e_wo_entrp">   -171.27430869 </i>
    <i name="e_0_energy">   -171.27616967 </i>
   </energy>
  </scstep>
  <scstep>
   <time name="total">   37.63   37.93</time>
   <energy>
    <i name="e_fr_energy">   -171.27820889 </i>
    <i name="e_wo_entrp">   -171.27446703 </i>
    <i name="e_0_energy">   -171.27633796 </i>
   </energy>
  </scstep>
  <scstep>
   <time name="total">   37.77   38.06</time>
   <energy>
    <i name="e_fr_energy">   -171.27831790 </i>
    <i name="e_wo_entrp">   -171.27456193 </i>
    <i name="e_0_energy">   -171.27643991 </i>
   </energy>
  </scstep>
  <scstep>
   <time name="total">   37.10   37.41</time>
   <energy>
    <i name="e_fr_energy">   -171.27837575 </i>
    <i name="e_wo_entrp">   -171.27461108 </i>
    <i name="e_0_energy">   -171.27649341 </i>
   </energy>
  </scstep>
  <scstep>
   <time name="total">   39.98   40.27</time>
   <energy>
    <i name="e_fr_energy">   -171.27840084 </i>
    <i name="e_wo_entrp">   -171.27463026 </i>
    <i name="e_0_energy">   -171.27651555 </i>
   </energy>
  </scstep>
  <scstep>
   <time name="total">   37.79   38.08</time>
   <energy>
    <i name="e_fr_energy">   -171.27841504 </i>
    <i name="e_wo_entrp">   -171.27464057 </i>
    <i name="e_0_energy">   -171.27652780 </i>
   </energy>
  </scstep>
  <scstep>
   <time name="total">   39.70   40.00</time>
   <energy>
    <i name="e_fr_energy">   -171.27842363 </i>
    <i name="e_wo_entrp">   -171.27464686 </i>
    <i name="e_0_energy">   -171.27653525 </i>
   </energy>
  </scstep>
  <scstep>
   <time name="total">   39.89   40.20</time>
   <energy>
    <i name="e_fr_energy">   -171.27842883 </i>
    <i name="e_wo_entrp">   -171.27465153 </i>
    <i name="e_0_energy">   -171.27654018 </i>
   </energy>
  </scstep>
  <scstep>
   <time name="total">   39.49   39.79</time>
   <energy>
    <i name="e_fr_energy">   -171.27843153 </i>
    <i name="e_wo_entrp">   -171.27465433 </i>
    <i name="e_0_energy">   -171.27654293 </i>
   </energy>
  </scstep>
  <scstep>
   <time name="total">   39.39   39.68</time>
   <energy>
    <i name="e_fr_energy">   -171.27843268 </i>
    <i name="e_wo_entrp">   -171.27465586 </i>
    <i name="e_0_energy">   -171.27654427 </i>
   </energy>
  </scstep>
  <scstep>
   <time name="total">   38.41   38.70</time>
   <energy>
    <i name="e_fr_energy">   -171.27843333 </i>
    <i name="e_wo_entrp">   -171.27465709 </i>
    <i name="e_0_energy">   -171.27654521 </i>
   </energy>
  </scstep>
  <scstep>
   <time name="total">   40.32   40.62</time>
   <energy>
    <i name="e_fr_energy">   -171.27843373 </i>
    <i name="e_wo_entrp">   -171.27465819 </i>
    <i name="e_0_energy">   -171.27654596 </i>
   </energy>
  </scstep>
  <scstep>
   <time name="total">   39.43   39.73</time>
   <energy>
    <i name="e_fr_energy">   -171.27843400 </i>
    <i name="e_wo_entrp">   -171.27465902 </i>
    <i name="e_0_energy">   -171.27654651 </i>
   </energy>
  </scstep>
  <scstep>
   <time name="total">   39.86   40.16</time>
   <energy>
    <i name="e_fr_energy">   -171.27843412 </i>
    <i name="e_wo_entrp">   -171.27465950 </i>
    <i name="e_0_energy">   -171.27654681 </i>
   </energy>
  </scstep>
  <scstep>
   <time name="total">   39.26   39.56</time>
   <energy>
    <i name="e_fr_energy">   -171.27843418 </i>
    <i name="e_wo_entrp">   -171.27465982 </i>
    <i name="e_0_energy">   -171.27654700 </i>
   </energy>
  </scstep>
  <scstep>
   <time name="total">   37.52   37.81</time>
   <energy>
    <i name="e_fr_energy">   -171.27843422 </i>
    <i name="e_wo_entrp">   -171.27466007 </i>
    <i name="e_0_energy">   -171.27654715 </i>
   </energy>
  </scstep>
  <scstep>
   <time name="total">   40.35   40.65</time>
   <energy>
    <i name="e_fr_energy">   -171.27843425 </i>
    <i name="e_wo_entrp">   -171.27466016 </i>
    <i name="e_0_energy">   -171.27654721 </i>
   </energy>
  </scstep>
  <scstep>
   <time name="total">   38.24   38.54</time>
   <energy>
    <i name="e_fr_energy">   -171.27843426 </i>
    <i name="e_wo_entrp">   -171.27466015 </i>
    <i name="e_0_energy">   -171.27654721 </i>
   </energy>
  </scstep>
  <scstep>
   <time name="total">   37.23   37.52</time>
   <energy>
    <i name="e_fr_energy">   -171.27843427 </i>
    <i name="e_wo_entrp">   -171.27466013 </i>
    <i name="e_0_energy">   -171.27654720 </i>
   </energy>
  </scstep>
  <scstep>
   <time name="total">   38.37   38.66</time>
   <energy>
    <i name="e_fr_energy">   -171.27843429 </i>
    <i name="e_wo_entrp">   -171.27466003 </i>
    <i name="e_0_energy">   -171.27654716 </i>
   </energy>
  </scstep>
  <scstep>
   <time name="total">   39.38   39.69</time>
   <energy>
    <i name="e_fr_energy">   -171.27843430 </i>
    <i name="e_wo_entrp">   -171.27466000 </i>
    <i name="e_0_energy">   -171.27654715 </i>
   </energy>
  </scstep>
  <scstep>
   <time name="total">   36.38   36.66</time>
   <energy>
    <i name="e_fr_energy">   -171.27843430 </i>
    <i name="e_wo_entrp">   -171.27465996 </i>
    <i name="e_0_energy">   -171.27654713 </i>
   </energy>
  </scstep>
  <scstep>
   <time name="total">   37.39   37.67</time>
   <energy>
    <i name="e_fr_energy">   -171.27843430 </i>
    <i name="e_wo_entrp">   -171.27465994 </i>
    <i name="e_0_energy">   -171.27654712 </i>
   </energy>
  </scstep>
  <scstep>
   <time name="total">   37.71   37.99</time>
   <energy>
    <i name="e_fr_energy">   -171.27843430 </i>
    <i name="e_wo_entrp">   -171.27465982 </i>
    <i name="e_0_energy">   -171.27654706 </i>
   </energy>
  </scstep>
  <scstep>
   <time name="total">   39.26   39.55</time>
   <energy>
    <i name="e_fr_energy">   -171.27843431 </i>
    <i name="e_wo_entrp">   -171.27465980 </i>
    <i name="e_0_energy">   -171.27654705 </i>
   </energy>
  </scstep>
  <scstep>
   <time name="total">   44.44   44.77</time>
   <energy>
    <i name="alphaZ">    407.64059476 </i>
    <i name="ewald">  -7473.29666116 </i>
    <i name="hartreedc">  -3520.32166112 </i>
    <i name="XCdc">    467.69437876 </i>
    <i name="pawpsdc">  10879.36034405 </i>
    <i name="pawaedc"> -10852.86179379 </i>
    <i name="eentropy">     -0.00377452 </i>
    <i name="bandstr">  -1601.65730651 </i>
    <i name="atom">  11522.16744521 </i>
    <i name="e_fr_energy">   -171.27843431 </i>
    <i name="e_wo_entrp">   -171.27465979 </i>
    <i name="e_0_energy">   -171.27654705 </i>
   </energy>
  </scstep>
  <structure>
   <crystal>
    <varray name="basis" >
     <v>       5.81259187       0.00000000      -2.98893382 </v>
     <v>      -2.16450684       5.39454673      -2.98893382 </v>
     <v>       0.00000000       0.00000000       6.53605000 </v>
    </varray>
    <i name="volume">    204.94633441 </i>
    <varray name="rec_basis" >
     <v>       0.17204029       0.06902941       0.00000000 </v>
     <v>       0.00000000       0.18537239       0.00000000 </v>
     <v>       0.07867398       0.11633787       0.15299761 </v>
    </varray>
   </crystal>
   <varray name="positions" >
    <v>       0.50000000       0.00000000       0.50000000 </v>
    <v>       0.00000000       0.50000000       0.50000000 </v>
    <v>       0.24906000       0.74906000       0.99812000 </v>
    <v>       0.50000000       0.50000000       0.00000000 </v>
    <v>       0.75094000       0.25094000       0.00188000 </v>
    <v>       0.74906000       0.75094000       0.50000000 </v>
    <v>       0.25094000       0.24906000       0.50000000 </v>
    <v>       0.00000000       0.00000000       0.00000000 </v>
    <v>       0.25000000       0.75000000       0.50000000 </v>
    <v>       0.75000000       0.25000000       0.50000000 </v>
   </varray>
  </structure>
  <varray name="forces" >
   <v>       0.00000000       0.00000000       0.00000000 </v>
   <v>       0.00000000       0.00000000       0.00000000 </v>
   <v>       0.00000000       0.00000000       0.00000000 </v>
   <v>       0.00000000       0.00000000       0.00000000 </v>
   <v>       0.00000000       0.00000000       0.00000000 </v>
   <v>       0.00000000       0.00000000       0.00000000 </v>
   <v>       0.00000000       0.00000000       0.00000000 </v>
   <v>       0.00000000       0.00000000       0.00000000 </v>
   <v>       0.00000000       0.00000000       0.00000000 </v>
   <v>       0.00000000       0.00000000       0.00000000 </v>
  </varray>
  <varray name="stress" >
   <v>       0.00000000       0.00000000       0.00000000 </v>
   <v>       0.00000000       0.00000000       0.00000000 </v>
   <v>       0.00000000       0.00000000       0.00000000 </v>
  </varray>
  <energy>
   <i name="e_fr_energy">   -171.27843431 </i>
   <i name="e_wo_entrp">   -171.27465979 </i>
   <i name="e_0_energy">   -171.27654705 </i>
  </energy>
  <time name="totalsc"> 1658.62 1671.76</time>
  <eigenvalues>
   <array>
    <dimension dim="1">band</dimension>
    <dimension dim="2">kpoint</dimension>
    <dimension dim="3">spin</dimension>
    <field>eigene</field>
    <field>occ</field>
    <set>
     <set comment="spin 1">
      <set comment="kpoint 1">
       <r>  -56.8246    1.0000 </r>
       <r>  -56.5747    1.0000 </r>
       <r>  -56.5747    1.0000 </r>
       <r>  -56.5628    1.0000 </r>
       <r>  -56.4031    1.0000 </r>
       <r>  -56.1431    1.0000 </r>
       <r>  -31.3686    1.0000 </r>
       <r>  -31.3685    1.0000 </r>
       <r>  -30.1284    1.0000 </r>
       <r>  -30.1033    1.0000 </r>
       <r>  -30.0734    1.0000 </r>
       <r>  -30.0237    1.0000 </r>
       <r>  -29.9902    1.0000 </r>
       <r>  -29.9902    1.0000 </r>
       <r>  -29.9302    1.0000 </r>
       <r>  -29.9301    1.0000 </r>
       <r>  -29.9292    1.0000 </r>
       <r>  -29.9291    1.0000 </r>
       <r>  -29.9132    1.0000 </r>
       <r>  -29.8644    1.0000 </r>
       <r>  -29.7357    1.0000 </r>
       <r>  -29.5566    1.0000 </r>
       <r>  -28.5791    1.0000 </r>
       <r>  -28.5789    1.0000 </r>
       <r>   -4.2706    1.0000 </r>
       <r>   -2.0926    1.0000 </r>
       <r>   -1.4493    1.0000 </r>
       <r>    1.5472    1.0000 </r>
       <r>    1.8388    1.0000 </r>
       <r>    2.0032    1.0000 </r>
       <r>    2.0032    1.0000 </r>
       <r>    2.0092    1.0000 </r>
       <r>    2.1422    1.0000 </r>
       <r>    2.4452    1.0000 </r>
       <r>    3.2350    1.0000 </r>
       <r>    3.2351    1.0000 </r>
       <r>    3.9782    1.0000 </r>
       <r>    3.9783    1.0000 </r>
       <r>    4.0577    1.0000 </r>
       <r>    4.0578    1.0000 </r>
       <r>    4.1629    1.0000 </r>
       <r>    5.5221    1.0000 </r>
       <r>    5.5692    1.0000 </r>
       <r>    5.5743    1.0000 </r>
       <r>    5.5746    1.0000 </r>
       <r>    5.9073    1.0000 </r>
       <r>    6.0802    1.0000 </r>
       <r>    6.2711    1.0000 </r>
       <r>    6.2713    1.0000 </r>
       <r>    6.3999    0.0043 </r>
       <r>    6.4083    0.0006 </r>
       <r>    6.7808    0.0000 </r>
       <r>    6.7809    0.0000 </r>
       <r>    6.8243    0.0000 </r>
       <r>    7.0397    0.0000 </r>
       <r>    7.0397    0.0000 </r>
       <r>    7.1163    0.0000 </r>
       <r>    7.5205    0.0000 </r>
       <r>    7.9777    0.0000 </r>
       <r>    8.5835    0.0000 </r>
      </set>
      <set comment="kpoint 2">
       <r>  -56.8169    1.0000 </r>
       <r>  -56.6015    1.0000 </r>
       <r>  -56.5741    1.0000 </r>
       <r>  -56.5634    1.0000 </r>
       <r>  -56.3757    1.0000 </r>
       <r>  -56.1513    1.0000 </r>
       <r>  -31.3373    1.0000 </r>
       <r>  -31.3360    1.0000 </r>
       <r>  -30.3694    1.0000 </r>
       <r>  -30.3391    1.0000 </r>
       <r>  -30.0975    1.0000 </r>
       <r>  -30.0207    1.0000 </r>
       <r>  -29.9455    1.0000 </r>
       <r>  -29.9345    1.0000 </r>
       <r>  -29.9293    1.0000 </r>
       <r>  -29.9266    1.0000 </r>
       <r>  -29.9140    1.0000 </r>
       <r>  -29.8720    1.0000 </r>
       <r>  -29.7388    1.0000 </r>
       <r>  -29.7200    1.0000 </r>
       <r>  -29.7141    1.0000 </r>
       <r>  -29.5627    1.0000 </r>
       <r>  -28.6187    1.0000 </r>
       <r>  -28.6171    1.0000 </r>
       <r>   -4.1890    1.0000 </r>
       <r>   -2.2870    1.0000 </r>
       <r>   -1.2854    1.0000 </r>
       <r>    1.4794    1.0000 </r>
       <r>    1.5846    1.0000 </r>
       <r>    1.9353    1.0000 </r>
       <r>    1.9772    1.0000 </r>
       <r>    2.0644    1.0000 </r>
       <r>    2.2211    1.0000 </r>
       <r>    2.8538    1.0000 </r>
       <r>    3.2312    1.0000 </r>
       <r>    3.3192    1.0000 </r>
       <r>    3.9097    1.0000 </r>
       <r>    3.9182    1.0000 </r>
       <r>    4.0263    1.0000 </r>
       <r>    4.0313    1.0000 </r>
       <r>    4.1082    1.0000 </r>
       <r>    4.9303    1.0000 </r>
       <r>    5.1731    1.0000 </r>
       <r>    5.4627    1.0000 </r>
       <r>    5.8246    1.0000 </r>
       <r>    5.8864    1.0000 </r>
       <r>    6.1709    1.0000 </r>
       <r>    6.2712    1.0000 </r>
       <r>    6.3268    0.9944 </r>
       <r>    6.4326    0.0000 </r>
       <r>    6.4949    0.0000 </r>
       <r>    6.6086    0.0000 </r>
       <r>    6.8234    0.0000 </r>
       <r>    6.9147    0.0000 </r>
       <r>    6.9681    0.0000 </r>
       <r>    7.3025    0.0000 </r>
       <r>    7.5008    0.0000 </r>
       <r>    7.6747    0.0000 </r>
       <r>    7.9056    0.0000 </r>
       <r>    8.6791    0.0000 </r>
      </set>
      <set comment="kpoint 3">
       <r>  -56.7941    1.0000 </r>
       <r>  -56.6547    1.0000 </r>
       <r>  -56.5725    1.0000 </r>
       <r>  -56.5650    1.0000 </r>
       <r>  -56.3211    1.0000 </r>
       <r>  -56.1756    1.0000 </r>
       <r>  -31.2449    1.0000 </r>
       <r>  -31.2399    1.0000 </r>
       <r>  -30.6468    1.0000 </r>
       <r>  -30.6233    1.0000 </r>
       <r>  -30.0806    1.0000 </r>
       <r>  -30.0076    1.0000 </r>
       <r>  -29.9802    1.0000 </r>
       <r>  -29.9479    1.0000 </r>
       <r>  -29.9269    1.0000 </r>
       <r>  -29.9181    1.0000 </r>
       <r>  -29.9163    1.0000 </r>
       <r>  -29.8797    1.0000 </r>
       <r>  -29.6846    1.0000 </r>
       <r>  -29.5805    1.0000 </r>
       <r>  -29.4384    1.0000 </r>
       <r>  -29.4155    1.0000 </r>
       <r>  -28.7350    1.0000 </r>
       <r>  -28.7291    1.0000 </r>
       <r>   -3.9532    1.0000 </r>
       <r>   -2.6868    1.0000 </r>
       <r>   -0.9409    1.0000 </r>
       <r>    0.7685    1.0000 </r>
       <r>    1.6567    1.0000 </r>
       <r>    1.9074    1.0000 </r>
       <r>    2.2201    1.0000 </r>
       <r>    2.2381    1.0000 </r>
       <r>    2.4870    1.0000 </r>
       <r>    3.1171    1.0000 </r>
       <r>    3.1263    1.0000 </r>
       <r>    3.7086    1.0000 </r>
       <r>    3.7105    1.0000 </r>
       <r>    3.8062    1.0000 </r>
       <r>    3.8592    1.0000 </r>
       <r>    4.0867    1.0000 </r>
       <r>    4.1006    1.0000 </r>
       <r>    4.1769    1.0000 </r>
       <r>    4.5340    1.0000 </r>
       <r>    5.0291    1.0000 </r>
       <r>    5.7285    1.0000 </r>
       <r>    5.7752    1.0000 </r>
       <r>    6.1092    1.0000 </r>
       <r>    6.2861    1.0000 </r>
       <r>    6.4632    0.0000 </r>
       <r>    6.5974    0.0000 </r>
       <r>    6.6434    0.0000 </r>
       <r>    6.6541    0.0000 </r>
       <r>    7.0095    0.0000 </r>
       <r>    7.0815    0.0000 </r>
       <r>    7.4047    0.0000 </r>
       <r>    7.5069    0.0000 </r>
       <r>    7.7495    0.0000 </r>
       <r>    8.2296    0.0000 </r>
       <r>    8.2791    0.0000 </r>
       <r>    8.3209    0.0000 </r>
      </set>
      <set comment="kpoint 4">
       <r>  -56.7575    1.0000 </r>
       <r>  -56.7097    1.0000 </r>
       <r>  -56.5701    1.0000 </r>
       <r>  -56.5674    1.0000 </r>
       <r>  -56.2642    1.0000 </r>
       <r>  -56.2141    1.0000 </r>
       <r>  -31.0947    1.0000 </r>
       <r>  -31.0842    1.0000 </r>
       <r>  -30.8926    1.0000 </r>
       <r>  -30.8756    1.0000 </r>
       <r>  -30.0536    1.0000 </r>
       <r>  -30.0188    1.0000 </r>
       <r>  -29.9885    1.0000 </r>
       <r>  -29.9672    1.0000 </r>
       <r>  -29.9235    1.0000 </r>
       <r>  -29.9197    1.0000 </r>
       <r>  -29.9057    1.0000 </r>
       <r>  -29.8920    1.0000 </r>
       <r>  -29.6448    1.0000 </r>
       <r>  -29.6087    1.0000 </r>
       <r>  -29.1591    1.0000 </r>
       <r>  -29.1410    1.0000 </r>
       <r>  -28.9194    1.0000 </r>
       <r>  -28.9074    1.0000 </r>
       <r>   -3.5909    1.0000 </r>
       <r>   -3.1478    1.0000 </r>
       <r>   -0.4792    1.0000 </r>
       <r>    0.0973    1.0000 </r>
       <r>    1.7322    1.0000 </r>
       <r>    1.8172    1.0000 </r>
       <r>    2.4977    1.0000 </r>
       <r>    2.6549    1.0000 </r>
       <r>    2.8648    1.0000 </r>
       <r>    2.9619    1.0000 </r>
       <r>    3.3271    1.0000 </r>
       <r>    3.3435    1.0000 </r>
       <r>    3.5114    1.0000 </r>
       <r>    3.6981    1.0000 </r>
       <r>    3.7504    1.0000 </r>
       <r>    3.7660    1.0000 </r>
       <r>    4.0329    1.0000 </r>
       <r>    4.1833    1.0000 </r>
       <r>    4.3952    1.0000 </r>
       <r>    4.7441    1.0000 </r>
       <r>    5.5300    1.0000 </r>
       <r>    5.5312    1.0000 </r>
       <r>    6.2247    1.0000 </r>
       <r>    6.3659    0.4129 </r>
       <r>    6.3942    0.0129 </r>
       <r>    6.4972    0.0000 </r>
       <r>    6.7695    0.0000 </r>
       <r>    6.9816    0.0000 </r>
       <r>    7.2746    0.0000 </r>
       <r>    7.5255    0.0000 </r>
       <r>    7.5381    0.0000 </r>
       <r>    7.7949    0.0000 </r>
       <r>    7.8252    0.0000 </r>
       <r>    8.2489    0.0000 </r>
       <r>    8.2783    0.0000 </r>
       <r>    8.6733    0.0000 </r>
      </set>
      <set comment="kpoint 5">
       <r>  -56.8097    1.0000 </r>
       <r>  -56.6202    1.0000 </r>
       <r>  -56.5747    1.0000 </r>
       <r>  -56.5640    1.0000 </r>
       <r>  -56.3556    1.0000 </r>
       <r>  -56.1589    1.0000 </r>
       <r>  -31.3655    1.0000 </r>
       <r>  -31.2455    1.0000 </r>
       <r>  -30.6306    1.0000 </r>
       <r>  -30.1009    1.0000 </r>
       <r>  -30.0927    1.0000 </r>
       <r>  -30.0663    1.0000 </r>
       <r>  -29.9643    1.0000 </r>
       <r>  -29.9562    1.0000 </r>
       <r>  -29.9323    1.0000 </r>
       <r>  -29.9301    1.0000 </r>
       <r>  -29.9294    1.0000 </r>
       <r>  -29.9152    1.0000 </r>
       <r>  -29.8467    1.0000 </r>
       <r>  -29.7071    1.0000 </r>
       <r>  -29.5686    1.0000 </r>
       <r>  -29.4321    1.0000 </r>
       <r>  -28.7304    1.0000 </r>
       <r>  -28.5803    1.0000 </r>
       <r>   -4.0384    1.0000 </r>
       <r>   -2.6123    1.0000 </r>
       <r>   -0.8625    1.0000 </r>
       <r>    0.7654    1.0000 </r>
       <r>    1.6303    1.0000 </r>
       <r>    1.9094    1.0000 </r>
       <r>    1.9376    1.0000 </r>
       <r>    1.9953    1.0000 </r>
       <r>    2.3664    1.0000 </r>
       <r>    3.0730    1.0000 </r>
       <r>    3.1094    1.0000 </r>
       <r>    3.6504    1.0000 </r>
       <r>    3.8334    1.0000 </r>
       <r>    3.9169    1.0000 </r>
       <r>    4.0869    1.0000 </r>
       <r>    4.1496    1.0000 </r>
       <r>    4.2654    1.0000 </r>
       <r>    4.3165    1.0000 </r>
       <r>    5.2682    1.0000 </r>
       <r>    5.8829    1.0000 </r>
       <r>    5.9367    1.0000 </r>
       <r>    5.9495    1.0000 </r>
       <r>    6.0816    1.0000 </r>
       <r>    6.0964    1.0000 </r>
       <r>    6.1587    1.0000 </r>
       <r>    6.1740    1.0000 </r>
       <r>    6.4929    0.0000 </r>
       <r>    6.5154    0.0000 </r>
       <r>    6.7267    0.0000 </r>
       <r>    6.9639    0.0000 </r>
       <r>    7.0434    0.0000 </r>
       <r>    7.2477    0.0000 </r>
       <r>    7.8584    0.0000 </r>
       <r>    7.8987    0.0000 </r>
       <r>    8.1135    0.0000 </r>
       <r>    8.5472    0.0000 </r>
      </set>
      <set comment="kpoint 6">
       <r>  -56.7884    1.0000 </r>
       <r>  -56.6632    1.0000 </r>
       <r>  -56.5736    1.0000 </r>
       <r>  -56.5658    1.0000 </r>
       <r>  -56.3108    1.0000 </r>
       <r>  -56.1810    1.0000 </r>
       <r>  -31.3311    1.0000 </r>
       <r>  -31.0955    1.0000 </r>
       <r>  -30.8772    1.0000 </r>
       <r>  -30.3666    1.0000 </r>
       <r>  -30.0772    1.0000 </r>
       <r>  -30.0081    1.0000 </r>
       <r>  -29.9846    1.0000 </r>
       <r>  -29.9448    1.0000 </r>
       <r>  -29.9274    1.0000 </r>
       <r>  -29.9227    1.0000 </r>
       <r>  -29.9180    1.0000 </r>
       <r>  -29.8950    1.0000 </r>
       <r>  -29.6996    1.0000 </r>
       <r>  -29.6769    1.0000 </r>
       <r>  -29.5850    1.0000 </r>
       <r>  -29.1555    1.0000 </r>
       <r>  -28.9095    1.0000 </r>
       <r>  -28.6205    1.0000 </r>
       <r>   -3.7430    1.0000 </r>
       <r>   -2.9865    1.0000 </r>
       <r>   -0.3941    1.0000 </r>
       <r>    0.0761    1.0000 </r>
       <r>    1.7244    1.0000 </r>
       <r>    1.8071    1.0000 </r>
       <r>    2.0520    1.0000 </r>
       <r>    2.0596    1.0000 </r>
       <r>    2.6235    1.0000 </r>
       <r>    3.0704    1.0000 </r>
       <r>    3.1625    1.0000 </r>
       <r>    3.5042    1.0000 </r>
       <r>    3.7799    1.0000 </r>
       <r>    3.8074    1.0000 </r>
       <r>    4.0154    1.0000 </r>
       <r>    4.1290    1.0000 </r>
       <r>    4.2777    1.0000 </r>
       <r>    4.4864    1.0000 </r>
       <r>    5.0727    1.0000 </r>
       <r>    5.1998    1.0000 </r>
       <r>    5.5794    1.0000 </r>
       <r>    5.6767    1.0000 </r>
       <r>    5.9827    1.0000 </r>
       <r>    6.1176    1.0000 </r>
       <r>    6.3025    1.0000 </r>
       <r>    6.3723    0.2504 </r>
       <r>    6.6131    0.0000 </r>
       <r>    6.7534    0.0000 </r>
       <r>    6.9828    0.0000 </r>
       <r>    7.1103    0.0000 </r>
       <r>    7.2777    0.0000 </r>
       <r>    7.6981    0.0000 </r>
       <r>    7.7353    0.0000 </r>
       <r>    8.1566    0.0000 </r>
       <r>    8.1927    0.0000 </r>
       <r>    8.5921    0.0000 </r>
      </set>
      <set comment="kpoint 7">
       <r>  -56.7548    1.0000 </r>
       <r>  -56.7114    1.0000 </r>
       <r>  -56.5713    1.0000 </r>
       <r>  -56.5684    1.0000 </r>
       <r>  -56.2611    1.0000 </r>
       <r>  -56.2160    1.0000 </r>
       <r>  -31.2352    1.0000 </r>
       <r>  -31.0818    1.0000 </r>
       <r>  -30.8927    1.0000 </r>
       <r>  -30.6459    1.0000 </r>
       <r>  -30.0525    1.0000 </r>
       <r>  -30.0186    1.0000 </r>
       <r>  -29.9861    1.0000 </r>
       <r>  -29.9641    1.0000 </r>
       <r>  -29.9238    1.0000 </r>
       <r>  -29.9217    1.0000 </r>
       <r>  -29.9107    1.0000 </r>
       <r>  -29.8986    1.0000 </r>
       <r>  -29.6418    1.0000 </r>
       <r>  -29.6107    1.0000 </r>
       <r>  -29.4149    1.0000 </r>
       <r>  -29.1431    1.0000 </r>
       <r>  -28.9182    1.0000 </r>
       <r>  -28.7357    1.0000 </r>
       <r>   -3.3802    1.0000 </r>
       <r>   -3.3322    1.0000 </r>
       <r>   -0.5413    1.0000 </r>
       <r>    0.1487    1.0000 </r>
       <r>    1.7332    1.0000 </r>
       <r>    1.8265    1.0000 </r>
       <r>    2.2062    1.0000 </r>
       <r>    2.3676    1.0000 </r>
       <r>    2.6871    1.0000 </r>
       <r>    2.8821    1.0000 </r>
       <r>    3.1786    1.0000 </r>
       <r>    3.5231    1.0000 </r>
       <r>    3.5524    1.0000 </r>
       <r>    3.8342    1.0000 </r>
       <r>    3.8523    1.0000 </r>
       <r>    4.2263    1.0000 </r>
       <r>    4.3096    1.0000 </r>
       <r>    4.4231    1.0000 </r>
       <r>    4.6504    1.0000 </r>
       <r>    4.8267    1.0000 </r>
       <r>    5.2727    1.0000 </r>
       <r>    5.4552    1.0000 </r>
       <r>    6.0909    1.0000 </r>
       <r>    6.1724    1.0000 </r>
       <r>    6.4450    0.0000 </r>
       <r>    6.4877    0.0000 </r>
       <r>    6.8128    0.0000 </r>
       <r>    6.8655    0.0000 </r>
       <r>    7.0517    0.0000 </r>
       <r>    7.3964    0.0000 </r>
       <r>    7.4209    0.0000 </r>
       <r>    7.7285    0.0000 </r>
       <r>    7.8407    0.0000 </r>
       <r>    8.0022    0.0000 </r>
       <r>    8.5383    0.0000 </r>
       <r>    8.8825    0.0000 </r>
      </set>
      <set comment="kpoint 8">
       <r>  -56.7548    1.0000 </r>
       <r>  -56.7114    1.0000 </r>
       <r>  -56.5713    1.0000 </r>
       <r>  -56.5684    1.0000 </r>
       <r>  -56.2610    1.0000 </r>
       <r>  -56.2161    1.0000 </r>
       <r>  -31.2353    1.0000 </r>
       <r>  -31.0817    1.0000 </r>
       <r>  -30.8930    1.0000 </r>
       <r>  -30.6457    1.0000 </r>
       <r>  -30.0503    1.0000 </r>
       <r>  -30.0206    1.0000 </r>
       <r>  -29.9858    1.0000 </r>
       <r>  -29.9643    1.0000 </r>
       <r>  -29.9256    1.0000 </r>
       <r>  -29.9200    1.0000 </r>
       <r>  -29.9109    1.0000 </r>
       <r>  -29.8985    1.0000 </r>
       <r>  -29.6431    1.0000 </r>
       <r>  -29.6094    1.0000 </r>
       <r>  -29.4149    1.0000 </r>
       <r>  -29.1431    1.0000 </r>
       <r>  -28.9180    1.0000 </r>
       <r>  -28.7359    1.0000 </r>
       <r>   -3.7445    1.0000 </r>
       <r>   -2.8523    1.0000 </r>
       <r>   -1.0589    1.0000 </r>
       <r>    0.7801    1.0000 </r>
       <r>    1.7040    1.0000 </r>
       <r>    1.9413    1.0000 </r>
       <r>    2.2880    1.0000 </r>
       <r>    2.5076    1.0000 </r>
       <r>    2.5204    1.0000 </r>
       <r>    2.8928    1.0000 </r>
       <r>    3.2992    1.0000 </r>
       <r>    3.3877    1.0000 </r>
       <r>    3.5289    1.0000 </r>
       <r>    3.6818    1.0000 </r>
       <r>    3.6974    1.0000 </r>
       <r>    4.1350    1.0000 </r>
       <r>    4.2589    1.0000 </r>
       <r>    4.2750    1.0000 </r>
       <r>    4.4242    1.0000 </r>
       <r>    5.0684    1.0000 </r>
       <r>    5.2716    1.0000 </r>
       <r>    5.5649    1.0000 </r>
       <r>    6.1324    1.0000 </r>
       <r>    6.3002    1.0000 </r>
       <r>    6.3778    0.1438 </r>
       <r>    6.5773    0.0000 </r>
       <r>    6.6164    0.0000 </r>
       <r>    6.9948    0.0000 </r>
       <r>    7.0275    0.0000 </r>
       <r>    7.2826    0.0000 </r>
       <r>    7.6297    0.0000 </r>
       <r>    7.6384    0.0000 </r>
       <r>    7.9559    0.0000 </r>
       <r>    7.9660    0.0000 </r>
       <r>    8.2156    0.0000 </r>
       <r>    8.8963    0.0000 </r>
      </set>
      <set comment="kpoint 9">
       <r>  -56.7885    1.0000 </r>
       <r>  -56.6632    1.0000 </r>
       <r>  -56.5737    1.0000 </r>
       <r>  -56.5658    1.0000 </r>
       <r>  -56.3108    1.0000 </r>
       <r>  -56.1810    1.0000 </r>
       <r>  -31.3312    1.0000 </r>
       <r>  -31.0958    1.0000 </r>
       <r>  -30.8771    1.0000 </r>
       <r>  -30.3664    1.0000 </r>
       <r>  -30.0755    1.0000 </r>
       <r>  -30.0079    1.0000 </r>
       <r>  -29.9861    1.0000 </r>
       <r>  -29.9449    1.0000 </r>
       <r>  -29.9289    1.0000 </r>
       <r>  -29.9229    1.0000 </r>
       <r>  -29.9166    1.0000 </r>
       <r>  -29.8949    1.0000 </r>
       <r>  -29.6996    1.0000 </r>
       <r>  -29.6781    1.0000 </r>
       <r>  -29.5840    1.0000 </r>
       <r>  -29.1553    1.0000 </r>
       <r>  -28.9095    1.0000 </r>
       <r>  -28.6207    1.0000 </r>
       <r>   -4.0262    1.0000 </r>
       <r>   -2.3699    1.0000 </r>
       <r>   -1.4607    1.0000 </r>
       <r>    1.4810    1.0000 </r>
       <r>    1.6830    1.0000 </r>
       <r>    2.0377    1.0000 </r>
       <r>    2.0457    1.0000 </r>
       <r>    2.3036    1.0000 </r>
       <r>    2.5307    1.0000 </r>
       <r>    2.8513    1.0000 </r>
       <r>    3.2716    1.0000 </r>
       <r>    3.3737    1.0000 </r>
       <r>    3.5159    1.0000 </r>
       <r>    3.5981    1.0000 </r>
       <r>    3.8150    1.0000 </r>
       <r>    3.8657    1.0000 </r>
       <r>    4.1494    1.0000 </r>
       <r>    4.1590    1.0000 </r>
       <r>    5.2015    1.0000 </r>
       <r>    5.2747    1.0000 </r>
       <r>    5.4757    1.0000 </r>
       <r>    5.9239    1.0000 </r>
       <r>    6.0979    1.0000 </r>
       <r>    6.1706    1.0000 </r>
       <r>    6.3555    0.6960 </r>
       <r>    6.3782    0.1363 </r>
       <r>    6.6840    0.0000 </r>
       <r>    6.7833    0.0000 </r>
       <r>    6.8332    0.0000 </r>
       <r>    7.0797    0.0000 </r>
       <r>    7.2440    0.0000 </r>
       <r>    7.5774    0.0000 </r>
       <r>    7.8415    0.0000 </r>
       <r>    8.0860    0.0000 </r>
       <r>    8.2610    0.0000 </r>
       <r>    8.4154    0.0000 </r>
      </set>
      <set comment="kpoint 10">
       <r>  -56.8097    1.0000 </r>
       <r>  -56.6201    1.0000 </r>
       <r>  -56.5747    1.0000 </r>
       <r>  -56.5640    1.0000 </r>
       <r>  -56.3555    1.0000 </r>
       <r>  -56.1589    1.0000 </r>
       <r>  -31.3655    1.0000 </r>
       <r>  -31.2457    1.0000 </r>
       <r>  -30.6306    1.0000 </r>
       <r>  -30.1009    1.0000 </r>
       <r>  -30.0916    1.0000 </r>
       <r>  -30.0662    1.0000 </r>
       <r>  -29.9643    1.0000 </r>
       <r>  -29.9570    1.0000 </r>
       <r>  -29.9322    1.0000 </r>
       <r>  -29.9302    1.0000 </r>
       <r>  -29.9302    1.0000 </r>
       <r>  -29.9145    1.0000 </r>
       <r>  -29.8467    1.0000 </r>
       <r>  -29.7077    1.0000 </r>
       <r>  -29.5680    1.0000 </r>
       <r>  -29.4320    1.0000 </r>
       <r>  -28.7303    1.0000 </r>
       <r>  -28.5805    1.0000 </r>
       <r>   -4.1827    1.0000 </r>
       <r>   -2.0871    1.0000 </r>
       <r>   -1.6112    1.0000 </r>
       <r>    1.6157    1.0000 </r>
       <r>    1.9309    1.0000 </r>
       <r>    2.0719    1.0000 </r>
       <r>    2.1261    1.0000 </r>
       <r>    2.1318    1.0000 </r>
       <r>    2.2782    1.0000 </r>
       <r>    2.3440    1.0000 </r>
       <r>    3.2700    1.0000 </r>
       <r>    3.5052    1.0000 </r>
       <r>    3.5122    1.0000 </r>
       <r>    3.7996    1.0000 </r>
       <r>    4.0226    1.0000 </r>
       <r>    4.0288    1.0000 </r>
       <r>    4.1357    1.0000 </r>
       <r>    4.2606    1.0000 </r>
       <r>    5.3124    1.0000 </r>
       <r>    5.6726    1.0000 </r>
       <r>    5.8661    1.0000 </r>
       <r>    5.9701    1.0000 </r>
       <r>    6.1005    1.0000 </r>
       <r>    6.2019    1.0000 </r>
       <r>    6.3008    1.0000 </r>
       <r>    6.3854    0.0543 </r>
       <r>    6.5026    0.0000 </r>
       <r>    6.5291    0.0000 </r>
       <r>    6.8487    0.0000 </r>
       <r>    6.8661    0.0000 </r>
       <r>    6.9012    0.0000 </r>
       <r>    7.6196    0.0000 </r>
       <r>    7.6931    0.0000 </r>
       <r>    7.8046    0.0000 </r>
       <r>    7.8282    0.0000 </r>
       <r>    8.3145    0.0000 </r>
      </set>
      <set comment="kpoint 11">
       <r>  -56.7722    1.0000 </r>
       <r>  -56.6863    1.0000 </r>
       <r>  -56.5747    1.0000 </r>
       <r>  -56.5680    1.0000 </r>
       <r>  -56.2849    1.0000 </r>
       <r>  -56.1969    1.0000 </r>
       <r>  -31.3586    1.0000 </r>
       <r>  -31.0783    1.0000 </r>
       <r>  -30.8966    1.0000 </r>
       <r>  -30.1157    1.0000 </r>
       <r>  -30.1013    1.0000 </r>
       <r>  -30.0656    1.0000 </r>
       <r>  -29.9993    1.0000 </r>
       <r>  -29.9492    1.0000 </r>
       <r>  -29.9381    1.0000 </r>
       <r>  -29.9344    1.0000 </r>
       <r>  -29.9277    1.0000 </r>
       <r>  -29.9213    1.0000 </r>
       <r>  -29.8104    1.0000 </r>
       <r>  -29.6583    1.0000 </r>
       <r>  -29.5970    1.0000 </r>
       <r>  -29.1399    1.0000 </r>
       <r>  -28.9204    1.0000 </r>
       <r>  -28.5834    1.0000 </r>
       <r>   -3.4091    1.0000 </r>
       <r>   -3.2769    1.0000 </r>
       <r>   -0.5602    1.0000 </r>
       <r>    0.1912    1.0000 </r>
       <r>    1.6629    1.0000 </r>
       <r>    1.8650    1.0000 </r>
       <r>    1.9440    1.0000 </r>
       <r>    1.9504    1.0000 </r>
       <r>    2.6420    1.0000 </r>
       <r>    2.9110    1.0000 </r>
       <r>    3.0316    1.0000 </r>
       <r>    3.4645    1.0000 </r>
       <r>    3.6643    1.0000 </r>
       <r>    4.0130    1.0000 </r>
       <r>    4.0512    1.0000 </r>
       <r>    4.4191    1.0000 </r>
       <r>    4.6337    1.0000 </r>
       <r>    4.6589    1.0000 </r>
       <r>    5.0041    1.0000 </r>
       <r>    5.5077    1.0000 </r>
       <r>    5.5265    1.0000 </r>
       <r>    5.6538    1.0000 </r>
       <r>    5.7622    1.0000 </r>
       <r>    5.8498    1.0000 </r>
       <r>    6.1958    1.0000 </r>
       <r>    6.4149    0.0001 </r>
       <r>    6.4843    0.0000 </r>
       <r>    6.5330    0.0000 </r>
       <r>    7.0767    0.0000 </r>
       <r>    7.1272    0.0000 </r>
       <r>    7.1953    0.0000 </r>
       <r>    7.7158    0.0000 </r>
       <r>    7.7675    0.0000 </r>
       <r>    8.0787    0.0000 </r>
       <r>    8.3000    0.0000 </r>
       <r>    8.6078    0.0000 </r>
      </set>
      <set comment="kpoint 12">
       <r>  -56.7472    1.0000 </r>
       <r>  -56.7168    1.0000 </r>
       <r>  -56.5736    1.0000 </r>
       <r>  -56.5709    1.0000 </r>
       <r>  -56.2527    1.0000 </r>
       <r>  -56.2217    1.0000 </r>
       <r>  -31.3241    1.0000 </r>
       <r>  -31.2295    1.0000 </r>
       <r>  -30.6543    1.0000 </r>
       <r>  -30.3818    1.0000 </r>
       <r>  -30.0471    1.0000 </r>
       <r>  -30.0208    1.0000 </r>
       <r>  -29.9886    1.0000 </r>
       <r>  -29.9570    1.0000 </r>
       <r>  -29.9263    1.0000 </r>
       <r>  -29.9256    1.0000 </r>
       <r>  -29.9254    1.0000 </r>
       <r>  -29.9246    1.0000 </r>
       <r>  -29.6723    1.0000 </r>
       <r>  -29.6352    1.0000 </r>
       <r>  -29.6152    1.0000 </r>
       <r>  -29.4052    1.0000 </r>
       <r>  -28.7390    1.0000 </r>
       <r>  -28.6238    1.0000 </r>
       <r>   -3.5548    1.0000 </r>
       <r>   -2.9810    1.0000 </r>
       <r>   -1.1189    1.0000 </r>
       <r>    0.8132    1.0000 </r>
       <r>    1.5725    1.0000 </r>
       <r>    1.9391    1.0000 </r>
       <r>    1.9493    1.0000 </r>
       <r>    2.0844    1.0000 </r>
       <r>    2.4912    1.0000 </r>
       <r>    2.6234    1.0000 </r>
       <r>    3.0918    1.0000 </r>
       <r>    3.5245    1.0000 </r>
       <r>    3.6205    1.0000 </r>
       <r>    3.7971    1.0000 </r>
       <r>    4.3175    1.0000 </r>
       <r>    4.5173    1.0000 </r>
       <r>    4.5798    1.0000 </r>
       <r>    4.7851    1.0000 </r>
       <r>    5.1137    1.0000 </r>
       <r>    5.1472    1.0000 </r>
       <r>    5.2961    1.0000 </r>
       <r>    5.3535    1.0000 </r>
       <r>    5.7744    1.0000 </r>
       <r>    6.0788    1.0000 </r>
       <r>    6.3343    0.9777 </r>
       <r>    6.3596    0.5881 </r>
       <r>    6.5765    0.0000 </r>
       <r>    6.6405    0.0000 </r>
       <r>    6.8213    0.0000 </r>
       <r>    7.3310    0.0000 </r>
       <r>    7.4190    0.0000 </r>
       <r>    7.6078    0.0000 </r>
       <r>    7.7806    0.0000 </r>
       <r>    7.8684    0.0000 </r>
       <r>    8.2046    0.0000 </r>
       <r>    8.7257    0.0000 </r>
      </set>
      <set comment="kpoint 13">
       <r>  -56.7473    1.0000 </r>
       <r>  -56.7167    1.0000 </r>
       <r>  -56.5736    1.0000 </r>
       <r>  -56.5710    1.0000 </r>
       <r>  -56.2526    1.0000 </r>
       <r>  -56.2218    1.0000 </r>
       <r>  -31.3243    1.0000 </r>
       <r>  -31.2293    1.0000 </r>
       <r>  -30.6546    1.0000 </r>
       <r>  -30.3815    1.0000 </r>
       <r>  -30.0433    1.0000 </r>
       <r>  -30.0244    1.0000 </r>
       <r>  -29.9882    1.0000 </r>
       <r>  -29.9573    1.0000 </r>
       <r>  -29.9289    1.0000 </r>
       <r>  -29.9266    1.0000 </r>
       <r>  -29.9244    1.0000 </r>
       <r>  -29.9221    1.0000 </r>
       <r>  -29.6721    1.0000 </r>
       <r>  -29.6375    1.0000 </r>
       <r>  -29.6129    1.0000 </r>
       <r>  -29.4054    1.0000 </r>
       <r>  -28.7387    1.0000 </r>
       <r>  -28.6240    1.0000 </r>
       <r>   -3.7972    1.0000 </r>
       <r>   -2.4981    1.0000 </r>
       <r>   -1.5938    1.0000 </r>
       <r>    1.4437    1.0000 </r>
       <r>    1.6554    1.0000 </r>
       <r>    1.8923    1.0000 </r>
       <r>    2.0763    1.0000 </r>
       <r>    2.2789    1.0000 </r>
       <r>    2.2989    1.0000 </r>
       <r>    2.6154    1.0000 </r>
       <r>    3.0894    1.0000 </r>
       <r>    3.2355    1.0000 </r>
       <r>    3.4239    1.0000 </r>
       <r>    3.7110    1.0000 </r>
       <r>    4.3153    1.0000 </r>
       <r>    4.3264    1.0000 </r>
       <r>    4.4909    1.0000 </r>
       <r>    4.5929    1.0000 </r>
       <r>    4.9321    1.0000 </r>
       <r>    5.2077    1.0000 </r>
       <r>    5.4846    1.0000 </r>
       <r>    5.5824    1.0000 </r>
       <r>    5.9447    1.0000 </r>
       <r>    6.1682    1.0000 </r>
       <r>    6.3596    0.5879 </r>
       <r>    6.3843    0.0636 </r>
       <r>    6.6529    0.0000 </r>
       <r>    6.8469    0.0000 </r>
       <r>    6.9760    0.0000 </r>
       <r>    7.0642    0.0000 </r>
       <r>    7.2583    0.0000 </r>
       <r>    7.4682    0.0000 </r>
       <r>    7.5187    0.0000 </r>
       <r>    7.5565    0.0000 </r>
       <r>    8.4043    0.0000 </r>
       <r>    8.5488    0.0000 </r>
      </set>
      <set comment="kpoint 14">
       <r>  -56.7723    1.0000 </r>
       <r>  -56.6862    1.0000 </r>
       <r>  -56.5747    1.0000 </r>
       <r>  -56.5680    1.0000 </r>
       <r>  -56.2847    1.0000 </r>
       <r>  -56.1970    1.0000 </r>
       <r>  -31.3588    1.0000 </r>
       <r>  -31.0781    1.0000 </r>
       <r>  -30.8970    1.0000 </r>
       <r>  -30.1154    1.0000 </r>
       <r>  -30.1011    1.0000 </r>
       <r>  -30.0625    1.0000 </r>
       <r>  -30.0021    1.0000 </r>
       <r>  -29.9491    1.0000 </r>
       <r>  -29.9383    1.0000 </r>
       <r>  -29.9347    1.0000 </r>
       <r>  -29.9304    1.0000 </r>
       <r>  -29.9188    1.0000 </r>
       <r>  -29.8101    1.0000 </r>
       <r>  -29.6603    1.0000 </r>
       <r>  -29.5952    1.0000 </r>
       <r>  -29.1399    1.0000 </r>
       <r>  -28.9202    1.0000 </r>
       <r>  -28.5836    1.0000 </r>
       <r>   -3.9665    1.0000 </r>
       <r>   -2.0749    1.0000 </r>
       <r>   -1.9153    1.0000 </r>
       <r>    1.7643    1.0000 </r>
       <r>    1.8098    1.0000 </r>
       <r>    2.0221    1.0000 </r>
       <r>    2.2103    1.0000 </r>
       <r>    2.2323    1.0000 </r>
       <r>    2.3488    1.0000 </r>
       <r>    2.4629    1.0000 </r>
       <r>    2.9289    1.0000 </r>
       <r>    3.3537    1.0000 </r>
       <r>    3.4161    1.0000 </r>
       <r>    3.7310    1.0000 </r>
       <r>    3.8266    1.0000 </r>
       <r>    4.1528    1.0000 </r>
       <r>    4.1728    1.0000 </r>
       <r>    4.4178    1.0000 </r>
       <r>    5.0460    1.0000 </r>
       <r>    5.6411    1.0000 </r>
       <r>    5.7006    1.0000 </r>
       <r>    5.8458    1.0000 </r>
       <r>    6.0441    1.0000 </r>
       <r>    6.2006    1.0000 </r>
       <r>    6.2185    1.0000 </r>
       <r>    6.3941    0.0133 </r>
       <r>    6.4407    0.0000 </r>
       <r>    6.7006    0.0000 </r>
       <r>    6.9361    0.0000 </r>
       <r>    7.0678    0.0000 </r>
       <r>    7.1509    0.0000 </r>
       <r>    7.1954    0.0000 </r>
       <r>    7.7566    0.0000 </r>
       <r>    7.7690    0.0000 </r>
       <r>    8.2160    0.0000 </r>
       <r>    8.8818    0.0000 </r>
      </set>
      <set comment="kpoint 15">
       <r>  -56.7366    1.0000 </r>
       <r>  -56.7258    1.0000 </r>
       <r>  -56.5747    1.0000 </r>
       <r>  -56.5736    1.0000 </r>
       <r>  -56.2417    1.0000 </r>
       <r>  -56.2306    1.0000 </r>
       <r>  -31.3530    1.0000 </r>
       <r>  -31.3213    1.0000 </r>
       <r>  -30.3879    1.0000 </r>
       <r>  -30.1443    1.0000 </r>
       <r>  -30.1015    1.0000 </r>
       <r>  -30.0390    1.0000 </r>
       <r>  -30.0262    1.0000 </r>
       <r>  -29.9732    1.0000 </r>
       <r>  -29.9444    1.0000 </r>
       <r>  -29.9429    1.0000 </r>
       <r>  -29.9290    1.0000 </r>
       <r>  -29.9263    1.0000 </r>
       <r>  -29.7849    1.0000 </r>
       <r>  -29.6613    1.0000 </r>
       <r>  -29.6269    1.0000 </r>
       <r>  -29.6218    1.0000 </r>
       <r>  -28.6255    1.0000 </r>
       <r>  -28.5860    1.0000 </r>
       <r>   -3.6830    1.0000 </r>
       <r>   -2.5609    1.0000 </r>
       <r>   -1.6327    1.0000 </r>
       <r>    1.3774    1.0000 </r>
       <r>    1.4650    1.0000 </r>
       <r>    1.8979    1.0000 </r>
       <r>    1.9075    1.0000 </r>
       <r>    2.1345    1.0000 </r>
       <r>    2.2600    1.0000 </r>
       <r>    2.5958    1.0000 </r>
       <r>    3.0916    1.0000 </r>
       <r>    3.4176    1.0000 </r>
       <r>    3.4661    1.0000 </r>
       <r>    3.6593    1.0000 </r>
       <r>    4.0534    1.0000 </r>
       <r>    4.4482    1.0000 </r>
       <r>    5.1295    1.0000 </r>
       <r>    5.2119    1.0000 </r>
       <r>    5.3683    1.0000 </r>
       <r>    5.4341    1.0000 </r>
       <r>    5.5158    1.0000 </r>
       <r>    5.5469    1.0000 </r>
       <r>    5.9252    1.0000 </r>
       <r>    6.0595    1.0000 </r>
       <r>    6.1482    1.0000 </r>
       <r>    6.2651    1.0000 </r>
       <r>    6.4389    0.0000 </r>
       <r>    6.5945    0.0000 </r>
       <r>    6.6770    0.0000 </r>
       <r>    7.1864    0.0000 </r>
       <r>    7.2096    0.0000 </r>
       <r>    7.2929    0.0000 </r>
       <r>    7.4588    0.0000 </r>
       <r>    7.5423    0.0000 </r>
       <r>    7.8681    0.0000 </r>
       <r>    8.5577    0.0000 </r>
      </set>
      <set comment="kpoint 16">
       <r>  -56.7368    1.0000 </r>
       <r>  -56.7256    1.0000 </r>
       <r>  -56.5747    1.0000 </r>
       <r>  -56.5736    1.0000 </r>
       <r>  -56.2415    1.0000 </r>
       <r>  -56.2307    1.0000 </r>
       <r>  -31.3533    1.0000 </r>
       <r>  -31.3210    1.0000 </r>
       <r>  -30.3883    1.0000 </r>
       <r>  -30.1438    1.0000 </r>
       <r>  -30.1012    1.0000 </r>
       <r>  -30.0344    1.0000 </r>
       <r>  -30.0307    1.0000 </r>
       <r>  -29.9736    1.0000 </r>
       <r>  -29.9441    1.0000 </r>
       <r>  -29.9432    1.0000 </r>
       <r>  -29.9305    1.0000 </r>
       <r>  -29.9248    1.0000 </r>
       <r>  -29.7845    1.0000 </r>
       <r>  -29.6615    1.0000 </r>
       <r>  -29.6297    1.0000 </r>
       <r>  -29.6190    1.0000 </r>
       <r>  -28.6252    1.0000 </r>
       <r>  -28.5862    1.0000 </r>
       <r>   -3.7685    1.0000 </r>
       <r>   -2.1195    1.0000 </r>
       <r>   -2.0652    1.0000 </r>
       <r>    1.4000    1.0000 </r>
       <r>    1.8642    1.0000 </r>
       <r>    1.8748    1.0000 </r>
       <r>    1.9807    1.0000 </r>
       <r>    2.1850    1.0000 </r>
       <r>    2.2061    1.0000 </r>
       <r>    2.5729    1.0000 </r>
       <r>    2.9157    1.0000 </r>
       <r>    3.1506    1.0000 </r>
       <r>    3.4277    1.0000 </r>
       <r>    3.7032    1.0000 </r>
       <r>    4.1967    1.0000 </r>
       <r>    4.3193    1.0000 </r>
       <r>    4.9181    1.0000 </r>
       <r>    5.1162    1.0000 </r>
       <r>    5.2688    1.0000 </r>
       <r>    5.4220    1.0000 </r>
       <r>    5.4676    1.0000 </r>
       <r>    5.9118    1.0000 </r>
       <r>    6.1199    1.0000 </r>
       <r>    6.2683    1.0000 </r>
       <r>    6.3333    0.9811 </r>
       <r>    6.3904    0.0251 </r>
       <r>    6.5151    0.0000 </r>
       <r>    6.5316    0.0000 </r>
       <r>    6.7024    0.0000 </r>
       <r>    6.7674    0.0000 </r>
       <r>    6.9565    0.0000 </r>
       <r>    7.0467    0.0000 </r>
       <r>    7.3880    0.0000 </r>
       <r>    7.7565    0.0000 </r>
       <r>    7.7795    0.0000 </r>
       <r>    8.5486    0.0000 </r>
      </set>
      <set comment="kpoint 17">
       <r>  -56.8097    1.0000 </r>
       <r>  -56.6201    1.0000 </r>
       <r>  -56.5747    1.0000 </r>
       <r>  -56.5640    1.0000 </r>
       <r>  -56.3556    1.0000 </r>
       <r>  -56.1589    1.0000 </r>
       <r>  -31.3656    1.0000 </r>
       <r>  -31.2456    1.0000 </r>
       <r>  -30.6305    1.0000 </r>
       <r>  -30.1008    1.0000 </r>
       <r>  -30.0916    1.0000 </r>
       <r>  -30.0662    1.0000 </r>
       <r>  -29.9643    1.0000 </r>
       <r>  -29.9571    1.0000 </r>
       <r>  -29.9323    1.0000 </r>
       <r>  -29.9302    1.0000 </r>
       <r>  -29.9301    1.0000 </r>
       <r>  -29.9145    1.0000 </r>
       <r>  -29.8467    1.0000 </r>
       <r>  -29.7078    1.0000 </r>
       <r>  -29.5680    1.0000 </r>
       <r>  -29.4321    1.0000 </r>
       <r>  -28.7304    1.0000 </r>
       <r>  -28.5803    1.0000 </r>
       <r>   -4.1827    1.0000 </r>
       <r>   -2.0871    1.0000 </r>
       <r>   -1.6112    1.0000 </r>
       <r>    1.6157    1.0000 </r>
       <r>    1.9308    1.0000 </r>
       <r>    2.0719    1.0000 </r>
       <r>    2.1261    1.0000 </r>
       <r>    2.1318    1.0000 </r>
       <r>    2.2782    1.0000 </r>
       <r>    2.3440    1.0000 </r>
       <r>    3.2699    1.0000 </r>
       <r>    3.5052    1.0000 </r>
       <r>    3.5123    1.0000 </r>
       <r>    3.7996    1.0000 </r>
       <r>    4.0226    1.0000 </r>
       <r>    4.0288    1.0000 </r>
       <r>    4.1358    1.0000 </r>
       <r>    4.2606    1.0000 </r>
       <r>    5.3125    1.0000 </r>
       <r>    5.6725    1.0000 </r>
       <r>    5.8662    1.0000 </r>
       <r>    5.9702    1.0000 </r>
       <r>    6.1006    1.0000 </r>
       <r>    6.2018    1.0000 </r>
       <r>    6.3007    1.0000 </r>
       <r>    6.3854    0.0545 </r>
       <r>    6.5025    0.0000 </r>
       <r>    6.5292    0.0000 </r>
       <r>    6.8486    0.0000 </r>
       <r>    6.8661    0.0000 </r>
       <r>    6.9012    0.0000 </r>
       <r>    7.6196    0.0000 </r>
       <r>    7.6932    0.0000 </r>
       <r>    7.8047    0.0000 </r>
       <r>    7.8278    0.0000 </r>
       <r>    8.3269    0.0000 </r>
      </set>
      <set comment="kpoint 18">
       <r>  -56.7885    1.0000 </r>
       <r>  -56.6632    1.0000 </r>
       <r>  -56.5736    1.0000 </r>
[...]
       <r>    0.0761    1.0000 </r>
       <r>    1.7244    1.0000 </r>
       <r>    1.8071    1.0000 </r>
       <r>    2.0520    1.0000 </r>
       <r>    2.0596    1.0000 </r>
       <r>    2.6235    1.0000 </r>
       <r>    3.0704    1.0000 </r>
       <r>    3.1625    1.0000 </r>
       <r>    3.5042    1.0000 </r>
       <r>    3.7799    1.0000 </r>
       <r>    3.8074    1.0000 </r>
       <r>    4.0154    1.0000 </r>
       <r>    4.1290    1.0000 </r>
       <r>    4.2777    1.0000 </r>
       <r>    4.4864    1.0000 </r>
       <r>    5.0727    1.0000 </r>
       <r>    5.1998    1.0000 </r>
       <r>    5.5794    1.0000 </r>
       <r>    5.6767    1.0000 </r>
       <r>    5.9827    1.0000 </r>
       <r>    6.1177    1.0000 </r>
       <r>    6.3024    1.0000 </r>
       <r>    6.3722    0.2508 </r>
       <r>    6.6131    0.0000 </r>
       <r>    6.7534    0.0000 </r>
       <r>    6.9829    0.0000 </r>
       <r>    7.1103    0.0000 </r>
       <r>    7.2777    0.0000 </r>
       <r>    7.6981    0.0000 </r>
       <r>    7.7352    0.0000 </r>
       <r>    8.1566    0.0000 </r>
       <r>    8.1902    0.0000 </r>
       <r>    8.5911    0.0000 </r>
      </set>
      <set comment="kpoint 100">
       <r>  -56.7723    1.0000 </r>
       <r>  -56.6862    1.0000 </r>
       <r>  -56.5747    1.0000 </r>
       <r>  -56.5681    1.0000 </r>
       <r>  -56.2848    1.0000 </r>
       <r>  -56.1969    1.0000 </r>
       <r>  -31.3588    1.0000 </r>
       <r>  -31.0781    1.0000 </r>
       <r>  -30.8968    1.0000 </r>
       <r>  -30.1155    1.0000 </r>
       <r>  -30.1011    1.0000 </r>
       <r>  -30.0634    1.0000 </r>
       <r>  -30.0013    1.0000 </r>
       <r>  -29.9491    1.0000 </r>
       <r>  -29.9383    1.0000 </r>
       <r>  -29.9345    1.0000 </r>
       <r>  -29.9295    1.0000 </r>
       <r>  -29.9196    1.0000 </r>
       <r>  -29.8103    1.0000 </r>
       <r>  -29.6597    1.0000 </r>
       <r>  -29.5957    1.0000 </r>
       <r>  -29.1400    1.0000 </r>
       <r>  -28.9204    1.0000 </r>
       <r>  -28.5835    1.0000 </r>
       <r>   -3.8259    1.0000 </r>
       <r>   -2.7628    1.0000 </r>
       <r>   -0.9952    1.0000 </r>
       <r>    0.7836    1.0000 </r>
       <r>    1.7930    1.0000 </r>
       <r>    1.8698    1.0000 </r>
       <r>    2.0134    1.0000 </r>
       <r>    2.1355    1.0000 </r>
       <r>    2.4229    1.0000 </r>
       <r>    2.9219    1.0000 </r>
       <r>    3.2418    1.0000 </r>
       <r>    3.3988    1.0000 </r>
       <r>    3.4945    1.0000 </r>
       <r>    3.7849    1.0000 </r>
       <r>    3.9236    1.0000 </r>
       <r>    4.2007    1.0000 </r>
       <r>    4.2848    1.0000 </r>
       <r>    4.4983    1.0000 </r>
       <r>    5.2509    1.0000 </r>
       <r>    5.5676    1.0000 </r>
       <r>    5.6125    1.0000 </r>
       <r>    5.8452    1.0000 </r>
       <r>    5.8478    1.0000 </r>
       <r>    5.9083    1.0000 </r>
       <r>    6.1603    1.0000 </r>
       <r>    6.4090    0.0005 </r>
       <r>    6.5909    0.0000 </r>
       <r>    6.5984    0.0000 </r>
       <r>    7.1008    0.0000 </r>
       <r>    7.1622    0.0000 </r>
       <r>    7.2374    0.0000 </r>
       <r>    7.3844    0.0000 </r>
       <r>    7.6720    0.0000 </r>
       <r>    7.9700    0.0000 </r>
       <r>    8.0111    0.0000 </r>
       <r>    8.8382    0.0000 </r>
      </set>
     </set>
    </set>
   </array>
  </eigenvalues>
  <separator name="orbital magnetization" >
   <v name="MAGDIPOLOUT">      0.00000000      0.00000000      0.00000000</v>
  </separator>
  <dos>
   <i name="efermi">      6.36273078 </i>
   <total>
    <array>
     <dimension dim="1">gridpoints</dimension>
     <dimension dim="2">spin</dimension>
     <field>energy</field>
     <field>total</field>
     <field>integrated</field>
     <set>
      <set comment="spin 1">
       <r>   -60.1236     0.0000     0.0000 </r>
       <r>   -59.8816     0.0000     0.0000 </r>
       <r>   -59.6397     0.0000     0.0000 </r>
       <r>   -59.3978     0.0000     0.0000 </r>
       <r>   -59.1559     0.0000     0.0000 </r>
       <r>   -58.9140     0.0000     0.0000 </r>
       <r>   -58.6720     0.0000     0.0000 </r>
       <r>   -58.4301     0.0000     0.0000 </r>
       <r>   -58.1882     0.0000     0.0000 </r>
       <r>   -57.9463     0.0000     0.0000 </r>
       <r>   -57.7044     0.0000     0.0000 </r>
       <r>   -57.4624     0.0000     0.0000 </r>
       <r>   -57.2205     0.0000     0.0000 </r>
       <r>   -56.9786     0.0000     0.0000 </r>
       <r>   -56.7367     7.7616     1.8777 </r>
       <r>   -56.4948    18.3421     8.0000 </r>
       <r>   -56.2528     6.5905     9.5944 </r>
       <r>   -56.0109     1.5185    12.0000 </r>
       <r>   -55.7690     0.0000    12.0000 </r>
       <r>   -55.5271     0.0000    12.0000 </r>
       <r>   -55.2852     0.0000    12.0000 </r>
       <r>   -55.0432     0.0000    12.0000 </r>
       <r>   -54.8013     0.0000    12.0000 </r>
       <r>   -54.5594     0.0000    12.0000 </r>
       <r>   -54.3175     0.0000    12.0000 </r>
       <r>   -54.0755     0.0000    12.0000 </r>
       <r>   -53.8336     0.0000    12.0000 </r>
       <r>   -53.5917     0.0000    12.0000 </r>
       <r>   -53.3498     0.0000    12.0000 </r>
       <r>   -53.1079     0.0000    12.0000 </r>
       <r>   -52.8659     0.0000    12.0000 </r>
       <r>   -52.6240     0.0000    12.0000 </r>
       <r>   -52.3821     0.0000    12.0000 </r>
       <r>   -52.1402     0.0000    12.0000 </r>
       <r>   -51.8983     0.0000    12.0000 </r>
       <r>   -51.6563     0.0000    12.0000 </r>
       <r>   -51.4144     0.0000    12.0000 </r>
       <r>   -51.1725     0.0000    12.0000 </r>
       <r>   -50.9306     0.0000    12.0000 </r>
       <r>   -50.6887     0.0000    12.0000 </r>
       <r>   -50.4467     0.0000    12.0000 </r>
       <r>   -50.2048     0.0000    12.0000 </r>
       <r>   -49.9629     0.0000    12.0000 </r>
       <r>   -49.7210     0.0000    12.0000 </r>
       <r>   -49.4791     0.0000    12.0000 </r>
       <r>   -49.2371     0.0000    12.0000 </r>
       <r>   -48.9952     0.0000    12.0000 </r>
       <r>   -48.7533     0.0000    12.0000 </r>
       <r>   -48.5114     0.0000    12.0000 </r>
       <r>   -48.2695     0.0000    12.0000 </r>
       <r>   -48.0275     0.0000    12.0000 </r>
       <r>   -47.7856     0.0000    12.0000 </r>
       <r>   -47.5437     0.0000    12.0000 </r>
       <r>   -47.3018     0.0000    12.0000 </r>
       <r>   -47.0599     0.0000    12.0000 </r>
       <r>   -46.8179     0.0000    12.0000 </r>
       <r>   -46.5760     0.0000    12.0000 </r>
       <r>   -46.3341     0.0000    12.0000 </r>
       <r>   -46.0922     0.0000    12.0000 </r>
       <r>   -45.8503     0.0000    12.0000 </r>
       <r>   -45.6083     0.0000    12.0000 </r>
       <r>   -45.3664     0.0000    12.0000 </r>
       <r>   -45.1245     0.0000    12.0000 </r>
       <r>   -44.8826     0.0000    12.0000 </r>
       <r>   -44.6407     0.0000    12.0000 </r>
       <r>   -44.3987     0.0000    12.0000 </r>
       <r>   -44.1568     0.0000    12.0000 </r>
       <r>   -43.9149     0.0000    12.0000 </r>
       <r>   -43.6730     0.0000    12.0000 </r>
       <r>   -43.4310     0.0000    12.0000 </r>
       <r>   -43.1891     0.0000    12.0000 </r>
       <r>   -42.9472     0.0000    12.0000 </r>
       <r>   -42.7053     0.0000    12.0000 </r>
       <r>   -42.4634     0.0000    12.0000 </r>
       <r>   -42.2214     0.0000    12.0000 </r>
       <r>   -41.9795     0.0000    12.0000 </r>
       <r>   -41.7376     0.0000    12.0000 </r>
       <r>   -41.4957     0.0000    12.0000 </r>
       <r>   -41.2538     0.0000    12.0000 </r>
       <r>   -41.0118     0.0000    12.0000 </r>
       <r>   -40.7699     0.0000    12.0000 </r>
       <r>   -40.5280     0.0000    12.0000 </r>
       <r>   -40.2861     0.0000    12.0000 </r>
       <r>   -40.0442     0.0000    12.0000 </r>
       <r>   -39.8022     0.0000    12.0000 </r>
       <r>   -39.5603     0.0000    12.0000 </r>
       <r>   -39.3184     0.0000    12.0000 </r>
       <r>   -39.0765     0.0000    12.0000 </r>
       <r>   -38.8346     0.0000    12.0000 </r>
       <r>   -38.5926     0.0000    12.0000 </r>
       <r>   -38.3507     0.0000    12.0000 </r>
       <r>   -38.1088     0.0000    12.0000 </r>
       <r>   -37.8669     0.0000    12.0000 </r>
       <r>   -37.6250     0.0000    12.0000 </r>
       <r>   -37.3830     0.0000    12.0000 </r>
       <r>   -37.1411     0.0000    12.0000 </r>
       <r>   -36.8992     0.0000    12.0000 </r>
       <r>   -36.6573     0.0000    12.0000 </r>
       <r>   -36.4154     0.0000    12.0000 </r>
       <r>   -36.1734     0.0000    12.0000 </r>
       <r>   -35.9315     0.0000    12.0000 </r>
       <r>   -35.6896     0.0000    12.0000 </r>
       <r>   -35.4477     0.0000    12.0000 </r>
       <r>   -35.2058     0.0000    12.0000 </r>
       <r>   -34.9638     0.0000    12.0000 </r>
       <r>   -34.7219     0.0000    12.0000 </r>
       <r>   -34.4800     0.0000    12.0000 </r>
       <r>   -34.2381     0.0000    12.0000 </r>
       <r>   -33.9962     0.0000    12.0000 </r>
       <r>   -33.7542     0.0000    12.0000 </r>
       <r>   -33.5123     0.0000    12.0000 </r>
       <r>   -33.2704     0.0000    12.0000 </r>
       <r>   -33.0285     0.0000    12.0000 </r>
       <r>   -32.7866     0.0000    12.0000 </r>
       <r>   -32.5446     0.0000    12.0000 </r>
       <r>   -32.3027     0.0000    12.0000 </r>
       <r>   -32.0608     0.0000    12.0000 </r>
       <r>   -31.8189     0.0000    12.0000 </r>
       <r>   -31.5769     0.0000    12.0000 </r>
       <r>   -31.3350     3.9122    12.9464 </r>
       <r>   -31.0931     6.4203    15.2675 </r>
       <r>   -30.8512     4.6482    17.1245 </r>
       <r>   -30.6093     4.5629    18.2467 </r>
       <r>   -30.3673     2.8079    18.9650 </r>
       <r>   -30.1254     1.0148    19.6741 </r>
       <r>   -29.8835    55.3482    35.6231 </r>
       <r>   -29.6416    11.2413    39.1277 </r>
       <r>   -29.3997     4.1403    42.6751 </r>
       <r>   -29.1577     1.3026    43.1723 </r>
       <r>   -28.9158     2.2150    44.5358 </r>
       <r>   -28.6739     4.7247    46.2859 </r>
       <r>   -28.4320     2.3621    48.0000 </r>
       <r>   -28.1901     0.0000    48.0000 </r>
       <r>   -27.9481     0.0000    48.0000 </r>
       <r>   -27.7062     0.0000    48.0000 </r>
       <r>   -27.4643     0.0000    48.0000 </r>
       <r>   -27.2224     0.0000    48.0000 </r>
       <r>   -26.9805     0.0000    48.0000 </r>
       <r>   -26.7385     0.0000    48.0000 </r>
       <r>   -26.4966     0.0000    48.0000 </r>
       <r>   -26.2547     0.0000    48.0000 </r>
       <r>   -26.0128     0.0000    48.0000 </r>
       <r>   -25.7709     0.0000    48.0000 </r>
       <r>   -25.5289     0.0000    48.0000 </r>
       <r>   -25.2870     0.0000    48.0000 </r>
       <r>   -25.0451     0.0000    48.0000 </r>
       <r>   -24.8032     0.0000    48.0000 </r>
       <r>   -24.5613     0.0000    48.0000 </r>
       <r>   -24.3193     0.0000    48.0000 </r>
       <r>   -24.0774     0.0000    48.0000 </r>
       <r>   -23.8355     0.0000    48.0000 </r>
       <r>   -23.5936     0.0000    48.0000 </r>
       <r>   -23.3517     0.0000    48.0000 </r>
       <r>   -23.1097     0.0000    48.0000 </r>
       <r>   -22.8678     0.0000    48.0000 </r>
       <r>   -22.6259     0.0000    48.0000 </r>
       <r>   -22.3840     0.0000    48.0000 </r>
       <r>   -22.1421     0.0000    48.0000 </r>
       <r>   -21.9001     0.0000    48.0000 </r>
       <r>   -21.6582     0.0000    48.0000 </r>
       <r>   -21.4163     0.0000    48.0000 </r>
       <r>   -21.1744     0.0000    48.0000 </r>
       <r>   -20.9324     0.0000    48.0000 </r>
       <r>   -20.6905     0.0000    48.0000 </r>
       <r>   -20.4486     0.0000    48.0000 </r>
       <r>   -20.2067     0.0000    48.0000 </r>
       <r>   -19.9648     0.0000    48.0000 </r>
       <r>   -19.7228     0.0000    48.0000 </r>
       <r>   -19.4809     0.0000    48.0000 </r>
       <r>   -19.2390     0.0000    48.0000 </r>
       <r>   -18.9971     0.0000    48.0000 </r>
       <r>   -18.7552     0.0000    48.0000 </r>
       <r>   -18.5132     0.0000    48.0000 </r>
       <r>   -18.2713     0.0000    48.0000 </r>
       <r>   -18.0294     0.0000    48.0000 </r>
       <r>   -17.7875     0.0000    48.0000 </r>
       <r>   -17.5456     0.0000    48.0000 </r>
       <r>   -17.3036     0.0000    48.0000 </r>
       <r>   -17.0617     0.0000    48.0000 </r>
       <r>   -16.8198     0.0000    48.0000 </r>
       <r>   -16.5779     0.0000    48.0000 </r>
       <r>   -16.3360     0.0000    48.0000 </r>
       <r>   -16.0940     0.0000    48.0000 </r>
       <r>   -15.8521     0.0000    48.0000 </r>
       <r>   -15.6102     0.0000    48.0000 </r>
       <r>   -15.3683     0.0000    48.0000 </r>
       <r>   -15.1264     0.0000    48.0000 </r>
       <r>   -14.8844     0.0000    48.0000 </r>
       <r>   -14.6425     0.0000    48.0000 </r>
       <r>   -14.4006     0.0000    48.0000 </r>
       <r>   -14.1587     0.0000    48.0000 </r>
       <r>   -13.9168     0.0000    48.0000 </r>
       <r>   -13.6748     0.0000    48.0000 </r>
       <r>   -13.4329     0.0000    48.0000 </r>
       <r>   -13.1910     0.0000    48.0000 </r>
       <r>   -12.9491     0.0000    48.0000 </r>
       <r>   -12.7072     0.0000    48.0000 </r>
       <r>   -12.4652     0.0000    48.0000 </r>
       <r>   -12.2233     0.0000    48.0000 </r>
       <r>   -11.9814     0.0000    48.0000 </r>
       <r>   -11.7395     0.0000    48.0000 </r>
       <r>   -11.4976     0.0000    48.0000 </r>
       <r>   -11.2556     0.0000    48.0000 </r>
       <r>   -11.0137     0.0000    48.0000 </r>
       <r>   -10.7718     0.0000    48.0000 </r>
       <r>   -10.5299     0.0000    48.0000 </r>
       <r>   -10.2880     0.0000    48.0000 </r>
       <r>   -10.0460     0.0000    48.0000 </r>
       <r>    -9.8041     0.0000    48.0000 </r>
       <r>    -9.5622     0.0000    48.0000 </r>
       <r>    -9.3203     0.0000    48.0000 </r>
       <r>    -9.0783     0.0000    48.0000 </r>
       <r>    -8.8364     0.0000    48.0000 </r>
       <r>    -8.5945     0.0000    48.0000 </r>
       <r>    -8.3526     0.0000    48.0000 </r>
       <r>    -8.1107     0.0000    48.0000 </r>
       <r>    -7.8687     0.0000    48.0000 </r>
       <r>    -7.6268     0.0000    48.0000 </r>
       <r>    -7.3849     0.0000    48.0000 </r>
       <r>    -7.1430     0.0000    48.0000 </r>
       <r>    -6.9011     0.0000    48.0000 </r>
       <r>    -6.6591     0.0000    48.0000 </r>
       <r>    -6.4172     0.0000    48.0000 </r>
       <r>    -6.1753     0.0000    48.0000 </r>
       <r>    -5.9334     0.0000    48.0000 </r>
       <r>    -5.6915     0.0000    48.0000 </r>
       <r>    -5.4495     0.0000    48.0000 </r>
       <r>    -5.2076     0.0000    48.0000 </r>
       <r>    -4.9657     0.0000    48.0000 </r>
       <r>    -4.7238     0.0000    48.0000 </r>
       <r>    -4.4819     0.0000    48.0000 </r>
       <r>    -4.2399     0.0238    48.0058 </r>
       <r>    -3.9980     0.7151    48.2488 </r>
       <r>    -3.7561     1.3821    48.6551 </r>
       <r>    -3.5142     2.1851    49.4674 </r>
       <r>    -3.2723     2.1460    50.1110 </r>
       <r>    -3.0303     1.1800    50.6120 </r>
       <r>    -2.7884     1.0631    51.1202 </r>
       <r>    -2.5465     1.1497    51.4910 </r>
       <r>    -2.3046     0.5183    51.7697 </r>
       <r>    -2.0627     0.7882    52.0449 </r>
       <r>    -1.8207     0.0964    52.2332 </r>
       <r>    -1.5788     1.5573    52.6916 </r>
       <r>    -1.3369     0.4098    52.8105 </r>
       <r>    -1.0950     1.1447    53.1341 </r>
       <r>    -0.8531     0.5301    53.4052 </r>
       <r>    -0.6111     0.1206    53.4577 </r>
       <r>    -0.3692     1.1418    53.9497 </r>
       <r>    -0.1273     0.0000    54.0000 </r>
       <r>     0.1146     0.8432    54.2040 </r>
       <r>     0.3565     0.4338    54.5714 </r>
       <r>     0.5985     0.0000    54.5714 </r>
       <r>     0.8404     2.2854    55.1243 </r>
       <r>     1.0823     0.0000    55.1429 </r>
       <r>     1.3242     0.3197    55.2202 </r>
       <r>     1.5662     3.8062    56.4252 </r>
       <r>     1.8081     6.5134    58.7069 </r>
       <r>     2.0500     8.9212    61.6859 </r>
       <r>     2.2919     4.6608    63.6348 </r>
       <r>     2.5338     4.2993    65.1742 </r>
       <r>     2.7758     3.6458    66.4214 </r>
       <r>     3.0177     5.8483    68.3303 </r>
       <r>     3.2596     3.7011    70.0032 </r>
       <r>     3.5015     5.1501    71.8815 </r>
       <r>     3.7434     4.5041    73.7893 </r>
       <r>     3.9854     4.5870    75.9318 </r>
       <r>     4.2273     7.7850    78.8046 </r>
       <r>     4.4692     6.9434    81.2541 </r>
       <r>     4.7111     4.2757    83.2793 </r>
       <r>     4.9530     2.9870    84.6235 </r>
       <r>     5.1950     6.7553    86.7130 </r>
       <r>     5.4369     4.3004    88.9179 </r>
       <r>     5.6788     6.0904    91.3101 </r>
       <r>     5.9207     4.9533    93.0059 </r>
       <r>     6.1626     8.1340    95.7870 </r>
       <r>     6.4046     8.1267    98.7649 </r>
       <r>     6.6465     9.6046   101.7696 </r>
       <r>     6.8884     8.0186   104.4880 </r>
       <r>     7.1303     8.7902   107.4327 </r>
       <r>     7.3722     6.2676   109.4521 </r>
       <r>     7.6142     5.8831   111.4815 </r>
       <r>     7.8561     7.0983   113.7755 </r>
       <r>     8.0980     6.3643   116.2102 </r>
       <r>     8.3399     4.8784   117.8624 </r>
       <r>     8.5818     2.3382   118.7639 </r>
       <r>     8.8238     2.4494   119.5780 </r>
       <r>     9.0657     0.5768   119.9763 </r>
       <r>     9.3076     0.0964   120.0000 </r>
       <r>     9.5495     0.0000   120.0000 </r>
       <r>     9.7914     0.0000   120.0000 </r>
       <r>    10.0334     0.0000   120.0000 </r>
       <r>    10.2753     0.0000   120.0000 </r>
       <r>    10.5172     0.0000   120.0000 </r>
       <r>    10.7591     0.0000   120.0000 </r>
       <r>    11.0010     0.0000   120.0000 </r>
       <r>    11.2430     0.0000   120.0000 </r>
       <r>    11.4849     0.0000   120.0000 </r>
       <r>    11.7268     0.0000   120.0000 </r>
       <r>    11.9687     0.0000   120.0000 </r>
       <r>    12.2107     0.0000   120.0000 </r>
       <r>    12.4526     0.0000   120.0000 </r>
      </set>
     </set>
    </array>
   </total>
  </dos>
 </calculation>
 <structure name="finalpos" >
  <crystal>
   <varray name="basis" >
    <v>       5.81259187       0.00000000      -2.98893382 </v>
    <v>      -2.16450684       5.39454673      -2.98893382 </v>
    <v>       0.00000000       0.00000000       6.53605000 </v>
   </varray>
   <i name="volume">    204.94633441 </i>
   <varray name="rec_basis" >
    <v>       0.17204029       0.06902941       0.00000000 </v>
    <v>       0.00000000       0.18537239       0.00000000 </v>
    <v>       0.07867398       0.11633787       0.15299761 </v>
   </varray>
  </crystal>
  <varray name="positions" >
   <v>       0.50000000       0.00000000       0.50000000 </v>
   <v>       0.00000000       0.50000000       0.50000000 </v>
   <v>       0.24906000       0.74906000       0.99812000 </v>
   <v>       0.50000000       0.50000000       0.00000000 </v>
   <v>       0.75094000       0.25094000       0.00188000 </v>
   <v>       0.74906000       0.75094000       0.50000000 </v>
   <v>       0.25094000       0.24906000       0.50000000 </v>
   <v>       0.00000000       0.00000000       0.00000000 </v>
   <v>       0.25000000       0.75000000       0.50000000 </v>
   <v>       0.75000000       0.25000000       0.50000000 </v>
  </varray>
 </structure>
</modeling>
