 vasp.6.2.0 18Jan21 (build Jan 05 2022 15:41:44) complex                        
  
 executed on             LinuxIFC date 2025.05.07  20:08:55
 running on   24 total cores
 distrk:  each k-point on   12 cores,    2 groups
 distr:  one band on NCORE=   2 cores,    6 groups


--------------------------------------------------------------------------------------------------------


 INCAR:
   SYSTEM = routine with relax: pwdword
   ICHARG = 2
   NPAR = 6
   KPAR = 2
   NCORE = 2
   ADDGRID = T
   PREC = Acc
   ENCUT = 600
   METAGGA = R2SCAN
   LASPH = .TRUE.
   LMIXTAU = .FALSE.
   ALGO = A
   EDIFF = 1E-9
   NELM = 100
   NELMIN = 6
   IALGO = 38
   LREAL = F
   NSW = 0
   ISIF = -1
   ISMEAR = 0
   SIGMA = 0.02
   SYMPREC = 1E-4

 POTCAR:    PAW_PBE B 06Sep2000                   
 POTCAR:    PAW_PBE Mo_sv 02Feb2006               
 POTCAR:    PAW_PBE Si 05Jan2001                  
 -----------------------------------------------------------------------------
|                                                                             |
|           W    W    AA    RRRRR   N    N  II  N    N   GGGG   !!!           |
|           W    W   A  A   R    R  NN   N  II  NN   N  G    G  !!!           |
|           W    W  A    A  R    R  N N  N  II  N N  N  G       !!!           |
|           W WW W  AAAAAA  RRRRR   N  N N  II  N  N N  G  GGG   !            |
|           WW  WW  A    A  R   R   N   NN  II  N   NN  G    G                |
|           W    W  A    A  R    R  N    N  II  N    N   GGGG   !!!           |
|                                                                             |
|     For optimal performance we recommend to set                             |
|       NCORE = 2 up to number-of-cores-per-socket                            |
|     NCORE specifies how many cores store one orbital (NPAR=cpu/NCORE).      |
|     This setting can greatly improve the performance of VASP for DFT.       |
|     The default, NCORE=1 might be grossly inefficient on modern             |
|     multi-core architectures or massively parallel machines. Do your        |
|     own testing! More info at https://www.vasp.at/wiki/index.php/NCORE      |
|     Unfortunately you need to use the default for GW and RPA                |
|     calculations (for HF NCORE is supported but not extensively tested      |
|     yet).                                                                   |
|                                                                             |
 -----------------------------------------------------------------------------

 POTCAR:    PAW_PBE B 06Sep2000                   
   VRHFIN =B: s2p1                                                                                  
   LEXCH  = PE                                                                                      
   EATOM  =    71.1703 eV,    5.2309 Ry                                                             
                                                                                                    
   TITEL  = PAW_PBE B 06Sep2000                                                                     
   LULTRA =        F    use ultrasoft PP ?                                                          
   IUNSCR =        1    unscreen: 0-lin 1-nonlin 2-no                                               
   RPACOR =    1.200    partial core radius                                                         
   POMASS =   10.811; ZVAL   =    3.000    mass and valenz                                          
   RCORE  =    1.700    outmost cutoff radius                                                       
   RWIGS  =    1.710; RWIGS  =    0.905    wigner-seitz radius (au A)                               
   ENMAX  =  318.614; ENMIN  =  238.960 eV                                                          
   ICORE  =        2    local potential                                                             
   LCOR   =        T    correct aug charges                                                         
   LPAW   =        T    paw PP                                                                      
   EAUG   =  535.514                                                                                
   DEXC   =    0.000                                                                                
   RMAX   =    1.732    core radius for proj-oper                                                   
   RAUG   =    1.300    factor for augmentation sphere                                              
   RDEP   =    1.757    radius for radial grids                                                     
   RDEPT  =    1.436    core radius for aug-charge                                                  
                                                                                                    
   Atomic configuration                                                                             
    4 entries                                                                                       
     n  l   j            E        occ.                                                              
     1  0  0.50      -180.5896   2.0000                                                             
     2  0  0.50        -9.4431   2.0000                                                             
     2  1  0.50        -3.6068   1.0000                                                             
     3  2  1.50        -4.0817   0.0000                                                             
   Description                                                                                      
     l       E           TYP  RCUT    TYP  RCUT                                                     
     0     -9.4430752     23  1.500                                                                 
     0      0.8675899     23  1.500                                                                 
     1     -3.6067955     23  1.700                                                                 
     1      6.1086146     23  1.700                                                                 
     2     -4.0817478      7  1.700                                                                 
  local pseudopotential read in
  partial core-charges read in
  partial kinetic energy density read in
  atomic valenz-charges read in
  non local Contribution for L=           0  read in
    real space projection operators read in
  non local Contribution for L=           0  read in
    real space projection operators read in
  non local Contribution for L=           1  read in
    real space projection operators read in
  non local Contribution for L=           1  read in
    real space projection operators read in
    PAW grid and wavefunctions read in
 
   number of l-projection  operators is LMAX  =           4
   number of lm-projection operators is LMMAX =           8
 
 POTCAR:    PAW_PBE Mo_sv 02Feb2006               
   VRHFIN =Mo: 4p5s4d                                                                               
   LEXCH  = PE                                                                                      
   EATOM  =  1862.2866 eV,  136.8742 Ry                                                             
                                                                                                    
   TITEL  = PAW_PBE Mo_sv 02Feb2006                                                                 
   LULTRA =        F    use ultrasoft PP ?                                                          
   IUNSCR =        1    unscreen: 0-lin 1-nonlin 2-no                                               
   RPACOR =    2.200    partial core radius                                                         
   POMASS =   95.940; ZVAL   =   14.000    mass and valenz                                          
   RCORE  =    2.500    outmost cutoff radius                                                       
   RWIGS  =    2.750; RWIGS  =    1.455    wigner-seitz radius (au A)                               
   ENMAX  =  242.676; ENMIN  =  182.007 eV                                                          
   ICORE  =        3    local potential                                                             
   LCOR   =        T    correct aug charges                                                         
   LPAW   =        T    paw PP                                                                      
   EAUG   =  446.014                                                                                
   DEXC   =    0.000                                                                                
   RMAX   =    2.563    core radius for proj-oper                                                   
   RAUG   =    1.300    factor for augmentation sphere                                              
   RDEP   =    2.641    radius for radial grids                                                     
   RDEPT  =    2.031    core radius for aug-charge                                                  
                                                                                                    
   Atomic configuration                                                                             
   11 entries                                                                                       
     n  l   j            E        occ.                                                              
     1  0  0.50    -19819.0341   2.0000                                                             
     2  0  0.50     -2799.0127   2.0000                                                             
     2  1  1.50     -2502.0276   6.0000                                                             
     3  0  0.50      -476.4449   2.0000                                                             
     3  1  1.50      -379.1496   6.0000                                                             
     3  2  2.50      -220.9367  10.0000                                                             
     4  0  0.50       -64.3378   2.0000                                                             
     5  0  0.50        -4.0862   1.0000                                                             
     4  1  1.50       -38.4773   6.0000                                                             
     4  2  2.50        -3.7535   5.0000                                                             
     4  3  2.50        -1.3606   0.0000                                                             
   Description                                                                                      
     l       E           TYP  RCUT    TYP  RCUT                                                     
     0    -64.3377829     23  2.100                                                                 
     0     -4.0861640     23  2.400                                                                 
     1    -38.4772993     23  2.100                                                                 
     1     13.6058260     23  2.100                                                                 
     2     -3.7534941     23  2.400                                                                 
     2     -5.1140767     23  2.400                                                                 
     3     -4.0817478     23  2.500                                                                 
  local pseudopotential read in
  partial core-charges read in
  partial kinetic energy density read in
  atomic valenz-charges read in
  non local Contribution for L=           0  read in
    real space projection operators read in
  non local Contribution for L=           0  read in
    real space projection operators read in
  non local Contribution for L=           1  read in
    real space projection operators read in
  non local Contribution for L=           1  read in
    real space projection operators read in
  non local Contribution for L=           2  read in
    real space projection operators read in
  non local Contribution for L=           2  read in
    real space projection operators read in
    PAW grid and wavefunctions read in
 
   number of l-projection  operators is LMAX  =           6
   number of lm-projection operators is LMMAX =          18
 
 POTCAR:    PAW_PBE Si 05Jan2001                  
   VRHFIN =Si: s2p2                                                                                 
   LEXCH  = PE                                                                                      
   EATOM  =   103.0669 eV,    7.5752 Ry                                                             
                                                                                                    
   TITEL  = PAW_PBE Si 05Jan2001                                                                    
   LULTRA =        F    use ultrasoft PP ?                                                          
   IUNSCR =        1    unscreen: 0-lin 1-nonlin 2-no                                               
   RPACOR =    1.500    partial core radius                                                         
   POMASS =   28.085; ZVAL   =    4.000    mass and valenz                                          
   RCORE  =    1.900    outmost cutoff radius                                                       
   RWIGS  =    2.480; RWIGS  =    1.312    wigner-seitz radius (au A)                               
   ENMAX  =  245.345; ENMIN  =  184.009 eV                                                          
   ICORE  =        2    local potential                                                             
   LCOR   =        T    correct aug charges                                                         
   LPAW   =        T    paw PP                                                                      
   EAUG   =  322.069                                                                                
   DEXC   =    0.000                                                                                
   RMAX   =    1.950    core radius for proj-oper                                                   
   RAUG   =    1.300    factor for augmentation sphere                                              
   RDEP   =    1.993    radius for radial grids                                                     
   RDEPT  =    1.837    core radius for aug-charge                                                  
                                                                                                    
   Atomic configuration                                                                             
    6 entries                                                                                       
     n  l   j            E        occ.                                                              
     1  0  0.50     -1785.8828   2.0000                                                             
     2  0  0.50      -139.4969   2.0000                                                             
     2  1  1.50       -95.5546   6.0000                                                             
     3  0  0.50       -10.8127   2.0000                                                             
     3  1  0.50        -4.0811   2.0000                                                             
     3  2  1.50        -4.0817   0.0000                                                             
   Description                                                                                      
     l       E           TYP  RCUT    TYP  RCUT                                                     
     0    -10.8127223     23  1.900                                                                 
     0     -7.6451159     23  1.900                                                                 
     1     -4.0811372     23  1.900                                                                 
     1      2.4879257     23  1.900                                                                 
     2     -4.0817478      7  1.900                                                                 
  local pseudopotential read in
  partial core-charges read in
  partial kinetic energy density read in
  atomic valenz-charges read in
  non local Contribution for L=           0  read in
    real space projection operators read in
  non local Contribution for L=           0  read in
    real space projection operators read in
  non local Contribution for L=           1  read in
    real space projection operators read in
  non local Contribution for L=           1  read in
    real space projection operators read in
    PAW grid and wavefunctions read in
 
   number of l-projection  operators is LMAX  =           4
   number of lm-projection operators is LMMAX =           8
 
 -----------------------------------------------------------------------------
|                                                                             |
|               ----> ADVICE to this user running VASP <----                  |
|                                                                             |
|     You have a (more or less) 'large supercell' and for larger cells it     |
|     might be more efficient to use real-space projection operators.         |
|     Therefore, try LREAL= Auto in the INCAR file.                           |
|     Mind: For very accurate calculation, you might also keep the            |
|     reciprocal projection scheme (i.e. LREAL=.FALSE.).                      |
|                                                                             |
 -----------------------------------------------------------------------------

  PAW_PBE B 06Sep2000                   :
 energy of atom  1       EATOM=  -71.1703
 kinetic energy error for atom=    0.0007 (will be added to EATOM!!)
  PAW_PBE Mo_sv 02Feb2006               :
 energy of atom  2       EATOM=-1862.2866
 kinetic energy error for atom=    0.0041 (will be added to EATOM!!)
  PAW_PBE Si 05Jan2001                  :
 energy of atom  3       EATOM= -103.0669
 kinetic energy error for atom=    0.0003 (will be added to EATOM!!)
 
 
 POSCAR: EA209
  positions in direct lattice
  No initial velocities read in

 METAGGA = R2SCA    LMAXTAU =  6    LMIXTAU =  F

 exchange correlation table for  LEXCH =        8
   RHO(1)=    0.500       N(1)  =     2000
   RHO(2)=  100.500       N(2)  =     4000
 


--------------------------------------------------------------------------------------------------------


 ion  position               nearest neighbor table
   1  0.500  0.000  0.500-   9 2.07  10 2.07  12 2.07  13 2.07   5 2.07  15 2.07  16 2.07  19 2.07

   2  0.000  0.500  0.500-   7 2.07   8 2.07  17 2.07  18 2.07  14 2.07   3 2.07  11 2.07  20 2.07

   3  0.105  0.381  0.712-   2 2.07   8 2.35  18 2.36  20 2.47  21 2.50   4 2.62   9 2.85  13 3.12
                            15 3.12  11 3.33  17 3.40   7 3.41
   4  0.250  0.250  0.000-  21 2.60  22 2.60  17 2.62   7 2.62   9 2.62  13 2.62   3 2.62  11 2.62
                            15 2.62  19 2.62
   5  0.605  0.892  0.723-   1 2.07  15 2.35   9 2.36  13 2.47  22 2.50   6 2.62  18 2.85   8 3.12
                            20 3.12  12 3.33  10 3.40  16 3.41
   6  0.750  0.750  0.000-  21 2.60  22 2.60  18 2.62   8 2.62  10 2.62  12 2.62  14 2.62  20 2.62
                             5 2.62  16 2.62
   7  0.108  0.831  0.712-   2 2.07  14 2.35  20 2.36  18 2.47  22 2.50   4 2.62  15 2.85  19 3.12
                             9 3.12  17 3.33  11 3.40   3 3.41
   8  0.892  0.169  0.288-   2 2.07   3 2.35  11 2.36  17 2.47  22 2.50   6 2.62  16 2.85   5 3.12
                            10 3.12  18 3.33  20 3.40  14 3.41
   9  0.831  0.119  0.723-   1 2.07  12 2.35   5 2.36  16 2.47  22 2.50   4 2.62   3 2.85  11 3.12
                             7 3.12  15 3.33  19 3.40  13 3.41
  10  0.169  0.881  0.277-   1 2.07  13 2.35  19 2.36  15 2.47  22 2.50   6 2.62  14 2.85  20 3.12
                             8 3.12  16 3.33   5 3.40  12 3.41
  11  0.119  0.395  0.288-   2 2.07  18 2.35   8 2.36  14 2.47  22 2.50   4 2.62  13 2.85   9 3.12
                            19 3.12   3 3.33   7 3.40  17 3.41
  12  0.619  0.331  0.723-   1 2.07   9 2.35  15 2.36  19 2.47  21 2.50   6 2.62  20 2.85  14 3.12
                            18 3.12   5 3.33  16 3.40  10 3.41
  13  0.381  0.669  0.277-   1 2.07  10 2.35  16 2.36   5 2.47  21 2.50   4 2.62  11 2.85   3 3.12
                            17 3.12  19 3.33  15 3.40   9 3.41
  14  0.895  0.619  0.288-   2 2.07   7 2.35  17 2.36  11 2.47  21 2.50   6 2.62  10 2.85  12 3.12
                            16 3.12  20 3.33  18 3.40   8 3.41
  15  0.392  0.105  0.723-   1 2.07   5 2.35  12 2.36  10 2.47  21 2.50   4 2.62   7 2.85  17 3.12
                             3 3.12   9 3.33  13 3.40  19 3.41
  16  0.608  0.895  0.277-   1 2.07  19 2.35  13 2.36   9 2.47  21 2.50   6 2.62   8 2.85  18 3.12
                            14 3.12  10 3.33  12 3.40   5 3.41
  17  0.669  0.392  0.288-   2 2.07  20 2.35  14 2.36   8 2.47  21 2.50   4 2.62  19 2.85  15 3.12
                            13 3.12   7 3.33   3 3.40  11 3.41
  18  0.331  0.608  0.712-   2 2.07  11 2.35   3 2.36   7 2.47  21 2.50   6 2.62   5 2.85  16 3.12
                            12 3.12   8 3.33  14 3.40  20 3.41
  19  0.395  0.108  0.277-   1 2.07  16 2.35  10 2.36  12 2.47  22 2.50   4 2.62  17 2.85   7 3.12
                            11 3.12  13 3.33   9 3.40  15 3.41
  20  0.881  0.605  0.712-   2 2.07  17 2.35   7 2.36   3 2.47  22 2.50   6 2.62  12 2.85  10 3.12
                             5 3.12  14 3.33   8 3.40  18 3.41
  21  0.500  0.500  0.000-   3 2.50  14 2.50  15 2.50  16 2.50  17 2.50  18 2.50  13 2.50  12 2.50
                             6 2.60   4 2.60
  22  0.000  0.000  0.000-  11 2.50  20 2.50  19 2.50   5 2.50   8 2.50   7 2.50  10 2.50   9 2.50
                             6 2.60   4 2.60
 
  LATTYP: Found a body centered tetragonal cell.
 ALAT       =     7.8097048202
 C/A-ratio  =     1.3337996262
  
  Lattice vectors:
  
 A1 = (   6.6971702977,   0.0000000000,  -3.5735528662)
 A2 = (  -2.4099829834,   6.2485255873,  -3.5735528662)
 A3 = (   0.0000000000,   0.0000000000,   7.5909400000)


Analysis of symmetry for initial positions (statically):
=====================================================================
 Subroutine PRICEL returns:
 Original cell was already a primitive cell.
 

 Routine SETGRP: Setting up the symmetry group for a 
 body centered tetragonal supercell.


 Subroutine GETGRP returns: Found 16 space group operations
 (whereof  8 operations were pure point group operations)
 out of a pool of 16 trial point group operations.


The static configuration has the point symmetry C_4h.
 The point group associated with its full space group is D_4h.


Analysis of symmetry for dynamics (positions and initial velocities):
=====================================================================
 Subroutine PRICEL returns:
 Original cell was already a primitive cell.
 

 Routine SETGRP: Setting up the symmetry group for a 
 body centered tetragonal supercell.


 Subroutine GETGRP returns: Found 16 space group operations
 (whereof  8 operations were pure point group operations)
 out of a pool of 16 trial point group operations.


The dynamic configuration has the point symmetry C_4h.
 The point group associated with its full space group is D_4h.


 Subroutine INISYM returns: Found 16 space group operations
 (whereof  8 operations are pure point group operations),
 and found     1 'primitive' translations


----------------------------------------------------------------------------------------

                                     Primitive cell                                     

  volume of cell :     317.6614

  direct lattice vectors                    reciprocal lattice vectors
     6.697170298  0.000000000 -3.573552866     0.149316794  0.057589735  0.000000000
    -2.409982983  6.248525587 -3.573552866     0.000000000  0.160037754  0.000000000
     0.000000000  0.000000000  7.590940000     0.070293199  0.102451519  0.131735991

  length of vectors
     7.590940000  7.590940000  7.590940000     0.160037754  0.160037754  0.181085115

  position of ions in fractional coordinates (direct lattice)
     0.500000000  0.000000000  0.500000000
     0.000000000  0.500000000  0.500000000
     0.104540000  0.381330000  0.712400000
     0.250000000  0.250000000  0.000000000
     0.604540000  0.892140000  0.723210000
     0.750000000  0.750000000  0.000000000
     0.107860000  0.831070000  0.712400000
     0.892140000  0.168930000  0.287600000
     0.831070000  0.118670000  0.723210000
     0.168930000  0.881330000  0.276790000
     0.118670000  0.395460000  0.287600000
     0.618670000  0.331070000  0.723210000
     0.381330000  0.668930000  0.276790000
     0.895460000  0.618670000  0.287600000
     0.392140000  0.104540000  0.723210000
     0.607860000  0.895460000  0.276790000
     0.668930000  0.392140000  0.287600000
     0.331070000  0.607860000  0.712400000
     0.395460000  0.107860000  0.276790000
     0.881330000  0.604540000  0.712400000
     0.500000000  0.500000000  0.000000000
     0.000000000  0.000000000  0.000000000

  ion indices of the primitive-cell ions
   primitive index   ion index
                 1           1
                 2           2
                 3           3
                 4           4
                 5           5
                 6           6
                 7           7
                 8           8
                 9           9
                10          10
                11          11
                12          12
                13          13
                14          14
                15          15
                16          16
                17          17
                18          18
                19          19
                20          20
                21          21
                22          22

----------------------------------------------------------------------------------------

 
 
 KPOINTS: EA                                      

Automatic generation of k-mesh.
 Grid dimensions read from file:
 generate k-points for:    6    6    7

 Generating k-lattice:

  Cartesian coordinates                     Fractional coordinates (reciprocal lattice)
     0.024886132  0.009598289  0.000000000     0.166666667 -0.000000000  0.000000000
     0.000000000  0.026672959  0.000000000     0.000000000  0.166666667  0.000000000
     0.010041886  0.014635931  0.018819427     0.000000000  0.000000000  0.142857143

  Length of vectors
     0.026672959  0.026672959  0.025869302

  Shift w.r.t. Gamma in fractional coordinates (k-lattice)
     0.000000000  0.000000000  0.000000000

 -----------------------------------------------------------------------------
|                                                                             |
|           W    W    AA    RRRRR   N    N  II  N    N   GGGG   !!!           |
|           W    W   A  A   R    R  NN   N  II  NN   N  G    G  !!!           |
|           W    W  A    A  R    R  N N  N  II  N N  N  G       !!!           |
|           W WW W  AAAAAA  RRRRR   N  N N  II  N  N N  G  GGG   !            |
|           WW  WW  A    A  R   R   N   NN  II  N   NN  G    G                |
|           W    W  A    A  R    R  N    N  II  N    N   GGGG   !!!           |
|                                                                             |
|     Your reciprocal lattice and k-lattice belong to different lattice       |
|     classes:                                                                |
|                                                                             |
|        The reciprocal lattice is body-centered tetragonal,                  |
|        whereas your k-lattice is base-centered monoclinic.                  |
|                                                                             |
|     Results are often still useful ...                                      |
|                                                                             |
 -----------------------------------------------------------------------------

 WARNING: IBZKPT: internal override: KBLOWUP is changed to .FALSE.
      ... skipping the blow-up phase ...

 
 Subroutine IBZKPT returns following result:
 ===========================================
 
 Found     76 irreducible k-points:
 
 Following reciprocal coordinates:
            Coordinates               Weight
  0.000000  0.000000  0.000000      1.000000
  0.166667  0.000000  0.000000      4.000000
  0.333333  0.000000  0.000000      4.000000
  0.500000  0.000000  0.000000      2.000000
  0.166667  0.166667  0.000000      2.000000
  0.333333  0.166667  0.000000      4.000000
  0.500000  0.166667  0.000000      4.000000
 -0.333333  0.166667  0.000000      4.000000
 -0.166667  0.166667  0.000000      2.000000
  0.333333  0.333333  0.000000      2.000000
  0.500000  0.333333  0.000000      4.000000
 -0.333333  0.333333  0.000000      2.000000
  0.500000  0.500000  0.000000      1.000000
  0.000000  0.000000  0.142857      2.000000
  0.166667  0.000000  0.142857      4.000000
  0.333333  0.000000  0.142857      4.000000
  0.500000  0.000000  0.142857      4.000000
 -0.333333 -0.000000  0.142857      4.000000
 -0.166667  0.000000  0.142857      4.000000
  0.166667  0.166667  0.142857      2.000000
  0.333333  0.166667  0.142857      4.000000
  0.500000  0.166667  0.142857      4.000000
 -0.333333  0.166667  0.142857      4.000000
 -0.166667  0.166667  0.142857      4.000000
  0.333333  0.333333  0.142857      2.000000
  0.500000  0.333333  0.142857      4.000000
 -0.333333  0.333333  0.142857      4.000000
 -0.166667  0.333333  0.142857      4.000000
  0.500000  0.500000  0.142857      2.000000
 -0.333333  0.500000  0.142857      4.000000
 -0.166667  0.500000  0.142857      4.000000
 -0.333333 -0.333333  0.142857      2.000000
 -0.166667 -0.333333  0.142857      4.000000
 -0.166667 -0.166667  0.142857      2.000000
  0.000000  0.000000  0.285714      2.000000
  0.166667  0.000000  0.285714      4.000000
  0.333333  0.000000  0.285714      4.000000
  0.500000  0.000000  0.285714      4.000000
 -0.333333  0.000000  0.285714      4.000000
 -0.166667  0.000000  0.285714      4.000000
  0.166667  0.166667  0.285714      2.000000
  0.333333  0.166667  0.285714      4.000000
  0.500000  0.166667  0.285714      4.000000
 -0.333333  0.166667  0.285714      4.000000
 -0.166667  0.166667  0.285714      4.000000
  0.333333  0.333333  0.285714      2.000000
  0.500000  0.333333  0.285714      4.000000
 -0.333333  0.333333  0.285714      4.000000
 -0.166667  0.333333  0.285714      4.000000
  0.500000  0.500000  0.285714      2.000000
 -0.333333  0.500000  0.285714      4.000000
 -0.166667  0.500000  0.285714      4.000000
 -0.333333 -0.333333  0.285714      2.000000
 -0.166667 -0.333333  0.285714      4.000000
 -0.166667 -0.166667  0.285714      2.000000
  0.000000  0.000000  0.428571      2.000000
  0.166667  0.000000  0.428571      4.000000
  0.333333  0.000000  0.428571      4.000000
  0.500000  0.000000  0.428571      4.000000
 -0.333333  0.000000  0.428571      4.000000
 -0.166667  0.000000  0.428571      4.000000
  0.166667  0.166667  0.428571      2.000000
  0.333333  0.166667  0.428571      4.000000
  0.500000  0.166667  0.428571      4.000000
 -0.333333  0.166667  0.428571      4.000000
 -0.166667  0.166667  0.428571      4.000000
  0.333333  0.333333  0.428571      2.000000
  0.500000  0.333333  0.428571      4.000000
 -0.333333  0.333333  0.428571      4.000000
 -0.166667  0.333333  0.428571      4.000000
  0.500000  0.500000  0.428571      2.000000
 -0.333333  0.500000  0.428571      4.000000
 -0.166667  0.500000  0.428571      4.000000
 -0.333333 -0.333333  0.428571      2.000000
 -0.166667 -0.333333  0.428571      4.000000
 -0.166667 -0.166667  0.428571      2.000000
 
 Following cartesian coordinates:
            Coordinates               Weight
  0.000000  0.000000  0.000000      1.000000
  0.024886  0.009598  0.000000      4.000000
  0.049772  0.019197  0.000000      4.000000
  0.074658  0.028795  0.000000      2.000000
  0.024886  0.036271  0.000000      2.000000
  0.049772  0.045870  0.000000      4.000000
  0.074658  0.055468  0.000000      4.000000
 -0.049772  0.007476  0.000000      4.000000
 -0.024886  0.017075  0.000000      2.000000
  0.049772  0.072542  0.000000      2.000000
  0.074658  0.082141  0.000000      4.000000
 -0.049772  0.034149  0.000000      2.000000
  0.074658  0.108814  0.000000      1.000000
  0.010042  0.014636  0.018819      2.000000
  0.034928  0.024234  0.018819      4.000000
  0.059814  0.033833  0.018819      4.000000
  0.084700  0.043431  0.018819      4.000000
 -0.039730 -0.004561  0.018819      4.000000
 -0.014844  0.005038  0.018819      4.000000
  0.034928  0.050907  0.018819      2.000000
  0.059814  0.060505  0.018819      4.000000
  0.084700  0.070104  0.018819      4.000000
 -0.039730  0.022112  0.018819      4.000000
 -0.014844  0.031711  0.018819      4.000000
  0.059814  0.087178  0.018819      2.000000
  0.084700  0.096777  0.018819      4.000000
 -0.039730  0.048785  0.018819      4.000000
 -0.014844  0.058384  0.018819      4.000000
  0.084700  0.123450  0.018819      2.000000
 -0.039730  0.075458  0.018819      4.000000
 -0.014844  0.085057  0.018819      4.000000
 -0.039730 -0.057907  0.018819      2.000000
 -0.014844 -0.048308  0.018819      4.000000
 -0.014844 -0.021635  0.018819      2.000000
  0.020084  0.029272  0.037639      2.000000
  0.044970  0.038870  0.037639      4.000000
  0.069856  0.048468  0.037639      4.000000
  0.094742  0.058067  0.037639      4.000000
 -0.029688  0.010075  0.037639      4.000000
 -0.004802  0.019674  0.037639      4.000000
  0.044970  0.065543  0.037639      2.000000
  0.069856  0.075141  0.037639      4.000000
  0.094742  0.084740  0.037639      4.000000
 -0.029688  0.036748  0.037639      4.000000
 -0.004802  0.046347  0.037639      4.000000
  0.069856  0.101814  0.037639      2.000000
  0.094742  0.111413  0.037639      4.000000
 -0.029688  0.063421  0.037639      4.000000
 -0.004802  0.073019  0.037639      4.000000
  0.094742  0.138086  0.037639      2.000000
 -0.029688  0.090094  0.037639      4.000000
 -0.004802  0.099692  0.037639      4.000000
 -0.029688 -0.043271  0.037639      2.000000
 -0.004802 -0.033672  0.037639      4.000000
 -0.004802 -0.006999  0.037639      2.000000
  0.030126  0.043908  0.056458      2.000000
  0.055012  0.053506  0.056458      4.000000
  0.079898  0.063104  0.056458      4.000000
  0.104784  0.072703  0.056458      4.000000
 -0.019647  0.024711  0.056458      4.000000
  0.005240  0.034310  0.056458      4.000000
  0.055012  0.080179  0.056458      2.000000
  0.079898  0.089777  0.056458      4.000000
  0.104784  0.099376  0.056458      4.000000
 -0.019647  0.051384  0.056458      4.000000
  0.005240  0.060982  0.056458      4.000000
  0.079898  0.116450  0.056458      2.000000
  0.104784  0.126049  0.056458      4.000000
 -0.019647  0.078057  0.056458      4.000000
  0.005240  0.087655  0.056458      4.000000
  0.104784  0.152722  0.056458      2.000000
 -0.019647  0.104730  0.056458      4.000000
  0.005240  0.114328  0.056458      4.000000
 -0.019647 -0.028635  0.056458      2.000000
  0.005240 -0.019036  0.056458      4.000000
  0.005240  0.007637  0.056458      2.000000
 


--------------------------------------------------------------------------------------------------------




 Dimension of arrays:
   k-points           NKPTS =     76   k-points in BZ     NKDIM =     76   number of bands    NBANDS=    162
   number of dos      NEDOS =    301   number of ions     NIONS =     22
   non local maximal  LDIM  =      6   non local SUM 2l+1 LMDIM =     18
   total plane-waves  NPLWV = 262144
   max r-space proj   IRMAX =      1   max aug-charges    IRDMAX= 288875
   dimension x,y,z NGX =    64 NGY =   64 NGZ =   64
   dimension x,y,z NGXF=   128 NGYF=  128 NGZF=  128
   support grid    NGXF=   256 NGYF=  256 NGZF=  256
   ions per type =               2  18   2
   NGX,Y,Z   is equivalent  to a cutoff of  14.02, 14.02, 14.02 a.u.
   NGXF,Y,Z  is equivalent  to a cutoff of  28.03, 28.03, 28.03 a.u.

 SYSTEM =  routine with relax: pwdword             
 POSCAR =  EA209                                   

 Startparameter for this run:
   NWRITE =      2    write-flag & timer
   PREC   = acc       normal or accurate (medium, high low for compatibility)
   ISTART =      0    job   : 0-new  1-cont  2-samecut
   ICHARG =      2    charge: 1-file 2-atom 10-const
   ISPIN  =      1    spin polarized calculation?
   LNONCOLLINEAR =      F non collinear calculations
   LSORBIT =      F    spin-orbit coupling
   INIWAV =      1    electr: 0-lowe 1-rand  2-diag
   LASPH  =      T    aspherical Exc in radial PAW
   METAGGA=      F    non-selfconsistent MetaGGA calc.

 Electronic Relaxation 1
   ENCUT  =  600.0 eV  44.10 Ry    6.64 a.u.  15.16 15.16 15.16*2*pi/ulx,y,z
   ENINI  =  600.0     initial cutoff
   ENAUG  =  535.5 eV  augmentation charge cutoff
   NELM   =    100;   NELMIN=  6; NELMDL= -5     # of ELM steps 
   EDIFF  = 0.1E-08   stopping-criterion for ELM
   LREAL  =      F    real-space projection
   NLSPLINE    = F    spline interpolate recip. space projectors
   LCOMPAT=      F    compatible to vasp.4.4
   GGA_COMPAT  = T    GGA compatible to vasp.4.4-vasp.4.6
   LMAXPAW     = -100 max onsite density
   LMAXMIX     =    2 max onsite mixed and CHGCAR
   VOSKOWN=      0    Vosko Wilk Nusair interpolation
   ROPT   =    0.00000   0.00000   0.00000
 Ionic relaxation
   EDIFFG = 0.1E-07   stopping-criterion for IOM
   NSW    =      0    number of steps for IOM
   NBLOCK =      1;   KBLOCK =      1    inner block; outer block 
   IBRION =     -1    ionic relax: 0-MD 1-quasi-New 2-CG
   NFREE  =      0    steps in history (QN), initial steepest desc. (CG)
   ISIF   =     -1    stress and relaxation
   IWAVPR =     10    prediction:  0-non 1-charg 2-wave 3-comb
   ISYM   =      2    0-nonsym 1-usesym 2-fastsym
   LCORR  =      T    Harris-Foulkes like correction to forces

   POTIM  = 0.5000    time-step for ionic-motion
   TEIN   =    0.0    initial temperature
   TEBEG  =    0.0;   TEEND  =   0.0 temperature during run
   SMASS  =  -3.00    Nose mass-parameter (am)
   estimated Nose-frequenzy (Omega)   =  0.10E-29 period in steps = 0.13E+47 mass=  -0.132E-26a.u.
   SCALEE = 1.0000    scale energy and forces
   NPACO  =    256;   APACO  = 16.0  distance and # of slots for P.C.
   PSTRESS=    0.0 pullay stress

  Mass of Ions in am
   POMASS =  10.81 95.94 28.09
  Ionic Valenz
   ZVAL   =   3.00 14.00  4.00
  Atomic Wigner-Seitz radii
   RWIGS  =  -1.00 -1.00 -1.00
  virtual crystal weights 
   VCA    =   1.00  1.00  1.00
   NELECT =     266.0000    total number of electrons
   NUPDOWN=      -1.0000    fix difference up-down

 DOS related values:
   EMIN   =  10.00;   EMAX   =-10.00  energy-range for DOS
   EFERMI =   0.00
   ISMEAR =     0;   SIGMA  =   0.02  broadening in eV -4-tet -1-fermi 0-gaus

 Electronic relaxation 2 (details)
   IALGO  =     58    algorithm
   LDIAG  =      T    sub-space diagonalisation (order eigenvalues)
   LSUBROT=      F    optimize rotation matrix (better conditioning)
   TURBO    =      0    0=normal 1=particle mesh
   IRESTART =      0    0=no restart 2=restart with 2 vectors
   NREBOOT  =      0    no. of reboots
   NMIN     =      0    reboot dimension
   EREF     =   0.00    reference energy to select bands
   IMIX   =      4    mixing-type and parameters
     AMIX     =   0.40;   BMIX     =  1.00
     AMIX_MAG =   1.60;   BMIX_MAG =  1.00
     AMIN     =   0.10
     WC   =   100.;   INIMIX=   1;  MIXPRE=   1;  MAXMIX= -45

 Intra band minimization:
   WEIMIN = 0.0000     energy-eigenvalue tresh-hold
   EBREAK =  0.15E-11  absolut break condition
   DEPER  =   0.30     relativ break condition  

   TIME   =   0.40     timestep for ELM

  volume/ion in A,a.u.               =      14.44        97.44
  Fermi-wavevector in a.u.,A,eV,Ry     =   1.543052  2.915945 32.395600  2.381009
  Thomas-Fermi vector in A             =   2.648770
 
 Write flags
   LWAVE        =      T    write WAVECAR
   LDOWNSAMPLE  =      F    k-point downsampling of WAVECAR
   LCHARG       =      T    write CHGCAR
   LVTOT        =      F    write LOCPOT, total local potential
   LVHAR        =      F    write LOCPOT, Hartree potential only
   LELF         =      F    write electronic localiz. function (ELF)
   LORBIT       =      0    0 simple, 1 ext, 2 COOP (PROOUT), +10 PAW based schemes


 Dipole corrections
   LMONO  =      F    monopole corrections only (constant potential shift)
   LDIPOL =      F    correct potential (dipole corrections)
   IDIPOL =      0    1-x, 2-y, 3-z, 4-all directions 
   EPSILON=  1.0000000 bulk dielectric constant

 Exchange correlation treatment:
   GGA     =    --    GGA type
   LEXCH   =     8    internal setting for exchange type
   VOSKOWN=      0    Vosko Wilk Nusair interpolation
   LHFCALC =     F    Hartree Fock is set to
   LHFONE  =     F    Hartree Fock one center treatment
   AEXX    =    0.0000 exact exchange contribution

 Linear response parameters
   LEPSILON=     F    determine dielectric tensor
   LRPA    =     F    only Hartree local field effects (RPA)
   LNABLA  =     F    use nabla operator in PAW spheres
   LVEL    =     F    velocity operator in full k-point grid
   LINTERFAST=   F  fast interpolation
   KINTER  =     0    interpolate to denser k-point grid
   CSHIFT  =0.1000    complex shift for real part using Kramers Kronig
   OMEGAMAX=  -1.0    maximum frequency
   DEG_THRESHOLD= 0.2000000E-02 threshold for treating states as degnerate
   RTIME   =   -0.100 relaxation time in fs
  (WPLASMAI=    0.000 imaginary part of plasma frequency in eV, 0.658/RTIME)
   DFIELD  = 0.0000000 0.0000000 0.0000000 field for delta impulse in time
 
 Orbital magnetization related:
   ORBITALMAG=     F  switch on orbital magnetization
   LCHIMAG   =     F  perturbation theory with respect to B field
   DQ        =  0.001000  dq finite difference perturbation B field
   LLRAUG    =     F  two centre corrections for induced B field



--------------------------------------------------------------------------------------------------------


 Static calculation
 charge density and potential will be updated during run
 non-spin polarized calculation
 Conjugate gradient for all bands (Freysoldt, et al. PRB 79, 241103 (2009))
 preconditioned conjugated gradient                                        
 perform sub-space diagonalisation
    before iterative eigenvector-optimisation
 modified Broyden-mixing scheme, WC =      100.0
 initial mixing is a Kerker type mixing with AMIX =  0.4000 and BMIX =      1.0000
 Hartree-type preconditioning will be used
 using additional bands           29
 reciprocal scheme for non local part
 use partial core corrections
 no Harris-corrections to forces 
 use gradient corrections 
 use of overlap-Matrix (Vanderbilt PP)
 Gauss-broadening in eV      SIGMA  =   0.02


--------------------------------------------------------------------------------------------------------


  energy-cutoff  :      600.00
  volume of cell :      317.66
      direct lattice vectors                 reciprocal lattice vectors
     6.697170298  0.000000000 -3.573552866     0.149316794  0.057589735  0.000000000
    -2.409982983  6.248525587 -3.573552866     0.000000000  0.160037754  0.000000000
     0.000000000  0.000000000  7.590940000     0.070293199  0.102451519  0.131735991

  length of vectors
     7.590940000  7.590940000  7.590940000     0.160037754  0.160037754  0.181085115


 
 k-points in units of 2pi/SCALE and weight: EA                                      
   0.00000000  0.00000000  0.00000000       0.004
   0.02488613  0.00959829  0.00000000       0.016
   0.04977226  0.01919658  0.00000000       0.016
   0.07465840  0.02879487  0.00000000       0.008
   0.02488613  0.03627125  0.00000000       0.008
   0.04977226  0.04586954  0.00000000       0.016
   0.07465840  0.05546783  0.00000000       0.016
  -0.04977226  0.00747638  0.00000000       0.016
  -0.02488613  0.01707467  0.00000000       0.008
   0.04977226  0.07254250  0.00000000       0.008
   0.07465840  0.08214079  0.00000000       0.016
  -0.04977226  0.03414934  0.00000000       0.008
   0.07465840  0.10881374  0.00000000       0.004
   0.01004189  0.01463593  0.01881943       0.008
   0.03492802  0.02423422  0.01881943       0.016
   0.05981415  0.03383251  0.01881943       0.016
   0.08470028  0.04343080  0.01881943       0.016
  -0.03973038 -0.00456065  0.01881943       0.016
  -0.01484425  0.00503764  0.01881943       0.016
   0.03492802  0.05090718  0.01881943       0.008
   0.05981415  0.06050547  0.01881943       0.016
   0.08470028  0.07010376  0.01881943       0.016
  -0.03973038  0.02211231  0.01881943       0.016
  -0.01484425  0.03171060  0.01881943       0.016
   0.05981415  0.08717843  0.01881943       0.008
   0.08470028  0.09677672  0.01881943       0.016
  -0.03973038  0.04878527  0.01881943       0.016
  -0.01484425  0.05838356  0.01881943       0.016
   0.08470028  0.12344968  0.01881943       0.008
  -0.03973038  0.07545823  0.01881943       0.016
  -0.01484425  0.08505652  0.01881943       0.016
  -0.03973038 -0.05790656  0.01881943       0.008
  -0.01484425 -0.04830828  0.01881943       0.016
  -0.01484425 -0.02163532  0.01881943       0.008
   0.02008377  0.02927186  0.03763885       0.008
   0.04496990  0.03887015  0.03763885       0.016
   0.06985604  0.04846844  0.03763885       0.016
   0.09474217  0.05806673  0.03763885       0.016
  -0.02968849  0.01007528  0.03763885       0.016
  -0.00480236  0.01967357  0.03763885       0.016
   0.04496990  0.06554311  0.03763885       0.008
   0.06985604  0.07514140  0.03763885       0.016
   0.09474217  0.08473969  0.03763885       0.016
  -0.02968849  0.03674824  0.03763885       0.016
  -0.00480236  0.04634653  0.03763885       0.016
   0.06985604  0.10181436  0.03763885       0.008
   0.09474217  0.11141265  0.03763885       0.016
  -0.02968849  0.06342120  0.03763885       0.016
  -0.00480236  0.07301949  0.03763885       0.016
   0.09474217  0.13808561  0.03763885       0.008
  -0.02968849  0.09009416  0.03763885       0.016
  -0.00480236  0.09969245  0.03763885       0.016
  -0.02968849 -0.04327063  0.03763885       0.008
  -0.00480236 -0.03367234  0.03763885       0.016
  -0.00480236 -0.00699939  0.03763885       0.008
   0.03012566  0.04390779  0.05645828       0.008
   0.05501179  0.05350608  0.05645828       0.016
   0.07989792  0.06310437  0.05645828       0.016
   0.10478405  0.07270266  0.05645828       0.016
  -0.01964661  0.02471122  0.05645828       0.016
   0.00523952  0.03430950  0.05645828       0.016
   0.05501179  0.08017904  0.05645828       0.008
   0.07989792  0.08977733  0.05645828       0.016
   0.10478405  0.09937562  0.05645828       0.016
  -0.01964661  0.05138417  0.05645828       0.016
   0.00523952  0.06098246  0.05645828       0.016
   0.07989792  0.11645029  0.05645828       0.008
   0.10478405  0.12604858  0.05645828       0.016
  -0.01964661  0.07805713  0.05645828       0.016
   0.00523952  0.08765542  0.05645828       0.016
   0.10478405  0.15272154  0.05645828       0.008
  -0.01964661  0.10473009  0.05645828       0.016
   0.00523952  0.11432838  0.05645828       0.016
  -0.01964661 -0.02863470  0.05645828       0.008
   0.00523952 -0.01903641  0.05645828       0.016
   0.00523952  0.00763655  0.05645828       0.008
 
 k-points in reciprocal lattice and weights: EA                                      
   0.00000000  0.00000000  0.00000000       0.004
   0.16666667  0.00000000  0.00000000       0.016
   0.33333333  0.00000000  0.00000000       0.016
   0.50000000  0.00000000  0.00000000       0.008
   0.16666667  0.16666667  0.00000000       0.008
   0.33333333  0.16666667  0.00000000       0.016
   0.50000000  0.16666667  0.00000000       0.016
  -0.33333333  0.16666667  0.00000000       0.016
  -0.16666667  0.16666667  0.00000000       0.008
   0.33333333  0.33333333  0.00000000       0.008
   0.50000000  0.33333333  0.00000000       0.016
  -0.33333333  0.33333333  0.00000000       0.008
   0.50000000  0.50000000  0.00000000       0.004
   0.00000000  0.00000000  0.14285714       0.008
   0.16666667  0.00000000  0.14285714       0.016
   0.33333333  0.00000000  0.14285714       0.016
   0.50000000  0.00000000  0.14285714       0.016
  -0.33333333 -0.00000000  0.14285714       0.016
  -0.16666667  0.00000000  0.14285714       0.016
   0.16666667  0.16666667  0.14285714       0.008
   0.33333333  0.16666667  0.14285714       0.016
   0.50000000  0.16666667  0.14285714       0.016
  -0.33333333  0.16666667  0.14285714       0.016
  -0.16666667  0.16666667  0.14285714       0.016
   0.33333333  0.33333333  0.14285714       0.008
   0.50000000  0.33333333  0.14285714       0.016
  -0.33333333  0.33333333  0.14285714       0.016
  -0.16666667  0.33333333  0.14285714       0.016
   0.50000000  0.50000000  0.14285714       0.008
  -0.33333333  0.50000000  0.14285714       0.016
  -0.16666667  0.50000000  0.14285714       0.016
  -0.33333333 -0.33333333  0.14285714       0.008
  -0.16666667 -0.33333333  0.14285714       0.016
  -0.16666667 -0.16666667  0.14285714       0.008
   0.00000000  0.00000000  0.28571429       0.008
   0.16666667  0.00000000  0.28571429       0.016
   0.33333333  0.00000000  0.28571429       0.016
   0.50000000  0.00000000  0.28571429       0.016
  -0.33333333  0.00000000  0.28571429       0.016
  -0.16666667  0.00000000  0.28571429       0.016
   0.16666667  0.16666667  0.28571429       0.008
   0.33333333  0.16666667  0.28571429       0.016
   0.50000000  0.16666667  0.28571429       0.016
  -0.33333333  0.16666667  0.28571429       0.016
  -0.16666667  0.16666667  0.28571429       0.016
   0.33333333  0.33333333  0.28571429       0.008
   0.50000000  0.33333333  0.28571429       0.016
  -0.33333333  0.33333333  0.28571429       0.016
  -0.16666667  0.33333333  0.28571429       0.016
   0.50000000  0.50000000  0.28571429       0.008
  -0.33333333  0.50000000  0.28571429       0.016
  -0.16666667  0.50000000  0.28571429       0.016
  -0.33333333 -0.33333333  0.28571429       0.008
  -0.16666667 -0.33333333  0.28571429       0.016
  -0.16666667 -0.16666667  0.28571429       0.008
   0.00000000  0.00000000  0.42857143       0.008
   0.16666667  0.00000000  0.42857143       0.016
   0.33333333  0.00000000  0.42857143       0.016
   0.50000000  0.00000000  0.42857143       0.016
  -0.33333333  0.00000000  0.42857143       0.016
  -0.16666667  0.00000000  0.42857143       0.016
   0.16666667  0.16666667  0.42857143       0.008
   0.33333333  0.16666667  0.42857143       0.016
   0.50000000  0.16666667  0.42857143       0.016
  -0.33333333  0.16666667  0.42857143       0.016
  -0.16666667  0.16666667  0.42857143       0.016
   0.33333333  0.33333333  0.42857143       0.008
   0.50000000  0.33333333  0.42857143       0.016
  -0.33333333  0.33333333  0.42857143       0.016
  -0.16666667  0.33333333  0.42857143       0.016
   0.50000000  0.50000000  0.42857143       0.008
  -0.33333333  0.50000000  0.42857143       0.016
  -0.16666667  0.50000000  0.42857143       0.016
  -0.33333333 -0.33333333  0.42857143       0.008
  -0.16666667 -0.33333333  0.42857143       0.016
  -0.16666667 -0.16666667  0.42857143       0.008
 
 position of ions in fractional coordinates (direct lattice) 
   0.50000000  0.00000000  0.50000000
   0.00000000  0.50000000  0.50000000
   0.10454000  0.38133000  0.71240000
   0.25000000  0.25000000  0.00000000
   0.60454000  0.89214000  0.72321000
   0.75000000  0.75000000  0.00000000
   0.10786000  0.83107000  0.71240000
   0.89214000  0.16893000  0.28760000
   0.83107000  0.11867000  0.72321000
   0.16893000  0.88133000  0.27679000
   0.11867000  0.39546000  0.28760000
   0.61867000  0.33107000  0.72321000
   0.38133000  0.66893000  0.27679000
   0.89546000  0.61867000  0.28760000
   0.39214000  0.10454000  0.72321000
   0.60786000  0.89546000  0.27679000
   0.66893000  0.39214000  0.28760000
   0.33107000  0.60786000  0.71240000
   0.39546000  0.10786000  0.27679000
   0.88133000  0.60454000  0.71240000
   0.50000000  0.50000000  0.00000000
   0.00000000  0.00000000  0.00000000
 
 position of ions in cartesian coordinates  (Angst):
   3.34858515  0.00000000  2.00869357
  -1.20499149  3.12426279  2.00869357
  -0.21887663  2.38275026  3.67150352
   1.07179683  1.56213140 -1.78677643
   1.89866511  5.57455962  0.14137861
   3.21539049  4.68639419 -5.36032930
  -1.28050777  5.19296216  2.05246966
   5.56769508  1.05556343 -1.60863540
   5.27982464  0.74151253  2.09589762
  -0.99263732  5.50701306 -1.65206335
  -0.15829867  2.47104193  0.34588361
   3.34546528  2.06869937  2.09589762
   0.94172203  4.17982622 -1.65206335
   4.50606394  3.86577533 -3.22766926
   2.37428874  0.65322086  3.71493148
   1.91289857  5.59530472 -3.27109721
   3.53488740  2.45029682 -1.60863540
   0.75229991  3.79822876  2.05246966
   2.38852220  0.67396597  0.30245565
   4.44548599  3.77748366  0.09795066
   2.14359366  3.12426279 -3.57355287
   0.00000000  0.00000000  0.00000000
 


--------------------------------------------------------------------------------------------------------


 k-point   1 :   0.0000 0.0000 0.0000  plane waves:   10573
 k-point   2 :   0.1667 0.0000 0.0000  plane waves:   10585
 k-point   3 :   0.3333 0.0000 0.0000  plane waves:   10590
 k-point   4 :   0.5000 0.0000 0.0000  plane waves:   10620
 k-point   5 :   0.1667 0.1667 0.0000  plane waves:   10603
 k-point   6 :   0.3333 0.1667 0.0000  plane waves:   10614
 k-point   7 :   0.5000 0.1667 0.0000  plane waves:   10608
 k-point   8 :  -0.3333 0.1667 0.0000  plane waves:   10586
 k-point   9 :  -0.1667 0.1667 0.0000  plane waves:   10578
 k-point  10 :   0.3333 0.3333 0.0000  plane waves:   10608
 k-point  11 :   0.5000 0.3333 0.0000  plane waves:   10602
 k-point  12 :  -0.3333 0.3333 0.0000  plane waves:   10612
 k-point  13 :   0.5000 0.5000 0.0000  plane waves:   10598
 k-point  14 :   0.0000 0.0000 0.1429  plane waves:   10566
 k-point  15 :   0.1667 0.0000 0.1429  plane waves:   10591
 k-point  16 :   0.3333 0.0000 0.1429  plane waves:   10610
 k-point  17 :   0.5000 0.0000 0.1429  plane waves:   10610
 k-point  18 :  -0.3333-0.0000 0.1429  plane waves:   10613
 k-point  19 :  -0.1667 0.0000 0.1429  plane waves:   10592
 k-point  20 :   0.1667 0.1667 0.1429  plane waves:   10578
 k-point  21 :   0.3333 0.1667 0.1429  plane waves:   10579
 k-point  22 :   0.5000 0.1667 0.1429  plane waves:   10573
 k-point  23 :  -0.3333 0.1667 0.1429  plane waves:   10595
 k-point  24 :  -0.1667 0.1667 0.1429  plane waves:   10575
 k-point  25 :   0.3333 0.3333 0.1429  plane waves:   10592
 k-point  26 :   0.5000 0.3333 0.1429  plane waves:   10599
 k-point  27 :  -0.3333 0.3333 0.1429  plane waves:   10603
 k-point  28 :  -0.1667 0.3333 0.1429  plane waves:   10595
 k-point  29 :   0.5000 0.5000 0.1429  plane waves:   10590
 k-point  30 :  -0.3333 0.5000 0.1429  plane waves:   10600
 k-point  31 :  -0.1667 0.5000 0.1429  plane waves:   10614
 k-point  32 :  -0.3333-0.3333 0.1429  plane waves:   10601
 k-point  33 :  -0.1667-0.3333 0.1429  plane waves:   10612
 k-point  34 :  -0.1667-0.1667 0.1429  plane waves:   10589
 k-point  35 :   0.0000 0.0000 0.2857  plane waves:   10606
 k-point  36 :   0.1667 0.0000 0.2857  plane waves:   10598
 k-point  37 :   0.3333 0.0000 0.2857  plane waves:   10596
 k-point  38 :   0.5000 0.0000 0.2857  plane waves:   10609
 k-point  39 :  -0.3333 0.0000 0.2857  plane waves:   10601
 k-point  40 :  -0.1667 0.0000 0.2857  plane waves:   10593
 k-point  41 :   0.1667 0.1667 0.2857  plane waves:   10585
 k-point  42 :   0.3333 0.1667 0.2857  plane waves:   10578
 k-point  43 :   0.5000 0.1667 0.2857  plane waves:   10589
 k-point  44 :  -0.3333 0.1667 0.2857  plane waves:   10593
 k-point  45 :  -0.1667 0.1667 0.2857  plane waves:   10608
 k-point  46 :   0.3333 0.3333 0.2857  plane waves:   10591
 k-point  47 :   0.5000 0.3333 0.2857  plane waves:   10597
 k-point  48 :  -0.3333 0.3333 0.2857  plane waves:   10616
 k-point  49 :  -0.1667 0.3333 0.2857  plane waves:   10604
 k-point  50 :   0.5000 0.5000 0.2857  plane waves:   10602
 k-point  51 :  -0.3333 0.5000 0.2857  plane waves:   10617
 k-point  52 :  -0.1667 0.5000 0.2857  plane waves:   10605
 k-point  53 :  -0.3333-0.3333 0.2857  plane waves:   10604
 k-point  54 :  -0.1667-0.3333 0.2857  plane waves:   10600
 k-point  55 :  -0.1667-0.1667 0.2857  plane waves:   10611
 k-point  56 :   0.0000 0.0000 0.4286  plane waves:   10600
 k-point  57 :   0.1667 0.0000 0.4286  plane waves:   10606
 k-point  58 :   0.3333 0.0000 0.4286  plane waves:   10593
 k-point  59 :   0.5000 0.0000 0.4286  plane waves:   10608
 k-point  60 :  -0.3333 0.0000 0.4286  plane waves:   10599
 k-point  61 :  -0.1667 0.0000 0.4286  plane waves:   10597
 k-point  62 :   0.1667 0.1667 0.4286  plane waves:   10574
 k-point  63 :   0.3333 0.1667 0.4286  plane waves:   10589
 k-point  64 :   0.5000 0.1667 0.4286  plane waves:   10606
 k-point  65 :  -0.3333 0.1667 0.4286  plane waves:   10601
 k-point  66 :  -0.1667 0.1667 0.4286  plane waves:   10593
 k-point  67 :   0.3333 0.3333 0.4286  plane waves:   10609
 k-point  68 :   0.5000 0.3333 0.4286  plane waves:   10619
 k-point  69 :  -0.3333 0.3333 0.4286  plane waves:   10618
 k-point  70 :  -0.1667 0.3333 0.4286  plane waves:   10592
 k-point  71 :   0.5000 0.5000 0.4286  plane waves:   10622
 k-point  72 :  -0.3333 0.5000 0.4286  plane waves:   10616
 k-point  73 :  -0.1667 0.5000 0.4286  plane waves:   10610
 k-point  74 :  -0.3333-0.3333 0.4286  plane waves:   10604
 k-point  75 :  -0.1667-0.3333 0.4286  plane waves:   10619
 k-point  76 :  -0.1667-0.1667 0.4286  plane waves:   10596

 maximum and minimum number of plane-waves per node :      5324     5265

 maximum number of plane-waves:     10622
 maximum index in each direction: 
   IXMAX=   15   IYMAX=   15   IZMAX=   15
   IXMIN=  -15   IYMIN=  -15   IZMIN=  -15


 parallel 3D FFT for wavefunctions:
    minimum data exchange during FFTs selected (reduces bandwidth)
 parallel 3D FFT for charge:
    minimum data exchange during FFTs selected (reduces bandwidth)


 total amount of memory used by VASP MPI-rank0   801427. kBytes
=======================================================================

   base      :      30000. kBytes
   nonl-proj :     176605. kBytes
   fftplans  :      30125. kBytes
   grid      :      22603. kBytes
   one-center:        171. kBytes
   wavefun   :     541923. kBytes
 
     INWAV:  cpu time    0.0001: real time    0.0001
 Broyden mixing: mesh for mixing (old mesh)
   NGX = 31   NGY = 31   NGZ = 31
  (NGX  =128   NGY  =128   NGZ  =128)
  gives a total of  29791 points

 initial charge density was supplied:
 charge density of overlapping atoms calculated
 number of electron     266.0000000 magnetization 
 keeping initial charge density in first step


--------------------------------------------------------------------------------------------------------


 Maximum index for augmentation-charges        25726 (set IRDMAX)


--------------------------------------------------------------------------------------------------------


 First call to EWALD:  gamma=   0.260
 Maximum number of real-space cells 3x 3x 3
 Maximum number of reciprocal cells 3x 3x 3

    FEWALD:  cpu time    0.0034: real time    0.0034


--------------------------------------- Iteration      1(   1)  ---------------------------------------


    POTLOK:  cpu time    0.4298: real time    0.4344
    SETDIJ:  cpu time    0.9468: real time    0.9530
    TRIAL :  cpu time  141.2749: real time  142.4631
    CORREC:  cpu time    0.0036: real time    0.0036
    --------------------------------------------
      LOOP:  cpu time  142.9045: real time  144.1270

 eigenvalue-minimisations  : 24684
 total energy-change (2. order) : 0.3547412E+04  (-0.1872109E+05)
 number of electron     266.0000000 magnetization 
 augmentation part      266.0000000 magnetization 

 Free energy of the ion-electron system (eV)
  ---------------------------------------------------
  alpha Z        PSCENC =      2036.56079520
  Ewald energy   TEWEN  =    -28092.21452933
  -Hartree energ DENC   =     -6654.58380496
  -exchange      EXHF   =         0.00000000
  -V(xc)+E(xc)   XCENC  =      1396.20498364
  PAW double counting   =     27000.89181795   -26920.28516366
  entropy T*S    EENTRO =        -0.00164383
  eigenvalues    EBANDS =       911.28160752
  atomic energy  EATOM  =     33869.55769442
  ---------------------------------------------------
  free energy    TOTEN  =      3547.41175695 eV

  energy without entropy =     3547.41340078  energy(sigma->0) =     3547.41257887


--------------------------------------------------------------------------------------------------------




--------------------------------------- Iteration      1(   2)  ---------------------------------------


    TRIAL :  cpu time  160.0665: real time  162.0276
    CORREC:  cpu time    0.0036: real time    0.0037
    --------------------------------------------
      LOOP:  cpu time  160.0727: real time  162.0349

 eigenvalue-minimisations  : 26004
 total energy-change (2. order) :-0.3955605E+04  (-0.3852496E+04)
 number of electron     266.0000000 magnetization 
 augmentation part      266.0000000 magnetization 

 Free energy of the ion-electron system (eV)
  ---------------------------------------------------
  alpha Z        PSCENC =      2036.56079520
  Ewald energy   TEWEN  =    -28092.21452933
  -Hartree energ DENC   =     -6654.58380496
  -exchange      EXHF   =         0.00000000
  -V(xc)+E(xc)   XCENC  =      1396.20498364
  PAW double counting   =     27000.89181795   -26920.28516366
  entropy T*S    EENTRO =        -0.00320290
  eigenvalues    EBANDS =     -3044.32150185
  atomic energy  EATOM  =     33869.55769442
  ---------------------------------------------------
  free energy    TOTEN  =      -408.19291149 eV

  energy without entropy =     -408.18970859  energy(sigma->0) =     -408.19131004


--------------------------------------------------------------------------------------------------------




--------------------------------------- Iteration      1(   3)  ---------------------------------------


    TRIAL :  cpu time  167.9011: real time  169.5377
    CORREC:  cpu time    0.0036: real time    0.0036
    --------------------------------------------
      LOOP:  cpu time  167.9069: real time  169.5445

 eigenvalue-minimisations  : 32136
 total energy-change (2. order) :-0.1783501E+03  (-0.1679067E+03)
 number of electron     266.0000000 magnetization 
 augmentation part      266.0000000 magnetization 

 Free energy of the ion-electron system (eV)
  ---------------------------------------------------
  alpha Z        PSCENC =      2036.56079520
  Ewald energy   TEWEN  =    -28092.21452933
  -Hartree energ DENC   =     -6654.58380496
  -exchange      EXHF   =         0.00000000
  -V(xc)+E(xc)   XCENC  =      1396.20498364
  PAW double counting   =     27000.89181795   -26920.28516366
  entropy T*S    EENTRO =        -0.00426991
  eigenvalues    EBANDS =     -3222.67057118
  atomic energy  EATOM  =     33869.55769442
  ---------------------------------------------------
  free energy    TOTEN  =      -586.54304782 eV

  energy without entropy =     -586.53877792  energy(sigma->0) =     -586.54091287


--------------------------------------------------------------------------------------------------------




--------------------------------------- Iteration      1(   4)  ---------------------------------------


    TRIAL :  cpu time  165.4329: real time  167.0205
    CORREC:  cpu time    0.0036: real time    0.0036
    --------------------------------------------
      LOOP:  cpu time  165.4382: real time  167.0273

 eigenvalue-minimisations  : 29160
 total energy-change (2. order) :-0.5309123E+01  (-0.5167395E+01)
 number of electron     266.0000000 magnetization 
 augmentation part      266.0000000 magnetization 

 Free energy of the ion-electron system (eV)
  ---------------------------------------------------
  alpha Z        PSCENC =      2036.56079520
  Ewald energy   TEWEN  =    -28092.21452933
  -Hartree energ DENC   =     -6654.58380496
  -exchange      EXHF   =         0.00000000
  -V(xc)+E(xc)   XCENC  =      1396.20498364
  PAW double counting   =     27000.89181795   -26920.28516366
  entropy T*S    EENTRO =        -0.00417878
  eigenvalues    EBANDS =     -3227.97978536
  atomic energy  EATOM  =     33869.55769442
  ---------------------------------------------------
  free energy    TOTEN  =      -591.85217088 eV

  energy without entropy =     -591.84799210  energy(sigma->0) =     -591.85008149


--------------------------------------------------------------------------------------------------------




--------------------------------------- Iteration      1(   5)  ---------------------------------------


    TRIAL :  cpu time  164.7955: real time  166.2630
    CORREC:  cpu time    0.0035: real time    0.0036
    CHARGE:  cpu time    9.0251: real time    9.1005
    --------------------------------------------
      LOOP:  cpu time  173.8251: real time  175.3700

 eigenvalue-minimisations  : 30144
 total energy-change (2. order) :-0.1178800E+00  (-0.1174796E+00)
 number of electron     266.0000002 magnetization 
 augmentation part       40.2027703 magnetization 

 Free energy of the ion-electron system (eV)
  ---------------------------------------------------
  alpha Z        PSCENC =      2036.56079520
  Ewald energy   TEWEN  =    -28092.21452933
  -Hartree energ DENC   =     -6654.58380496
  -exchange      EXHF   =         0.00000000
  -V(xc)+E(xc)   XCENC  =      1396.20498364
  PAW double counting   =     27000.89181795   -26920.28516366
  entropy T*S    EENTRO =        -0.00417599
  eigenvalues    EBANDS =     -3228.09766815
  atomic energy  EATOM  =     33869.55769442
  ---------------------------------------------------
  free energy    TOTEN  =      -591.97005087 eV

  energy without entropy =     -591.96587489  energy(sigma->0) =     -591.96796288


--------------------------------------------------------------------------------------------------------




--------------------------------------- Iteration      1(   6)  ---------------------------------------


    POTLOK:  cpu time    0.3502: real time    0.3522
    SETDIJ:  cpu time    0.9322: real time    0.9380
    TRIAL :  cpu time  145.8351: real time  147.1145
    CORREC:  cpu time   53.0499: real time   53.4300
    CHARGE:  cpu time   10.0845: real time   10.1577
    --------------------------------------------
      LOOP:  cpu time  210.2536: real time  211.9948

 eigenvalue-minimisations  :     0
 total energy-change (2. order) : 0.1619154E+03  (-0.3392544E+02)
 number of electron     266.0000003 magnetization 
 augmentation part       44.0664776 magnetization 

 Free energy of the ion-electron system (eV)
  ---------------------------------------------------
  alpha Z        PSCENC =      2036.56079520
  Ewald energy   TEWEN  =    -28092.21452933
  -Hartree energ DENC   =     -6088.37365173
  -exchange      EXHF   =         0.00000000
  -V(xc)+E(xc)   XCENC  =      1406.27474297
  PAW double counting   =     43145.08086247   -43169.17315963
  entropy T*S    EENTRO =        -0.00506035
  eigenvalues    EBANDS =     -3537.76320639
  atomic energy  EATOM  =     33869.55769442
  ---------------------------------------------------
  free energy    TOTEN  =      -430.05462801 eV

  energy without entropy =     -430.04956767  energy(sigma->0) =     -430.05209784


--------------------------------------------------------------------------------------------------------




--------------------------------------- Iteration      1(   7)  ---------------------------------------


    POTLOK:  cpu time    0.3154: real time    0.3174
    SETDIJ:  cpu time    1.6276: real time    1.6384
    TRIAL :  cpu time  173.0888: real time  174.8375
    CORREC:  cpu time   47.3232: real time   47.6700
    CHARGE:  cpu time   10.3168: real time   10.3925
    --------------------------------------------
      LOOP:  cpu time  232.6733: real time  234.8586

 eigenvalue-minimisations  :     0
 total energy-change (2. order) :-0.3385564E+02  (-0.5380323E+01)
 number of electron     266.0000003 magnetization 
 augmentation part       44.1394181 magnetization 

 Free energy of the ion-electron system (eV)
  ---------------------------------------------------
  alpha Z        PSCENC =      2036.56079520
  Ewald energy   TEWEN  =    -28092.21452933
  -Hartree energ DENC   =     -6304.65966629
  -exchange      EXHF   =         0.00000000
  -V(xc)+E(xc)   XCENC  =      1421.77673543
  PAW double counting   =     39889.08912799   -39886.81110675
  entropy T*S    EENTRO =        -0.00432045
  eigenvalues    EBANDS =     -3397.20425570
  atomic energy  EATOM  =     33869.55769442
  ---------------------------------------------------
  free energy    TOTEN  =      -463.91026539 eV

  energy without entropy =     -463.90594494  energy(sigma->0) =     -463.90810517


--------------------------------------------------------------------------------------------------------




--------------------------------------- Iteration      1(   8)  ---------------------------------------


    POTLOK:  cpu time    0.3692: real time    0.3716
    SETDIJ:  cpu time    2.2160: real time    2.2292
    TRIAL :  cpu time  175.5164: real time  176.8771
    CORREC:  cpu time   48.4326: real time   48.7771
    CHARGE:  cpu time   13.1320: real time   13.2211
    --------------------------------------------
      LOOP:  cpu time  239.6685: real time  241.4795

 eigenvalue-minimisations  :     0
 total energy-change (2. order) :-0.5381864E+01  (-0.1296072E+01)
 number of electron     266.0000003 magnetization 
 augmentation part       44.1493362 magnetization 

 Free energy of the ion-electron system (eV)
  ---------------------------------------------------
  alpha Z        PSCENC =      2036.56079520
  Ewald energy   TEWEN  =    -28092.21452933
  -Hartree energ DENC   =     -6348.51879024
  -exchange      EXHF   =         0.00000000
  -V(xc)+E(xc)   XCENC  =      1424.52105803
  PAW double counting   =     38791.38552293   -38782.27305904
  entropy T*S    EENTRO =        -0.00378056
  eigenvalues    EBANDS =     -3368.30650138
  atomic energy  EATOM  =     33869.55769442
  ---------------------------------------------------
  free energy    TOTEN  =      -469.29212987 eV

  energy without entropy =     -469.28834931  energy(sigma->0) =     -469.29023959


--------------------------------------------------------------------------------------------------------




--------------------------------------- Iteration      1(   9)  ---------------------------------------


    POTLOK:  cpu time    0.3035: real time    0.3053
    SETDIJ:  cpu time    0.8972: real time    0.9024
    TRIAL :  cpu time  167.3868: real time  168.6343
    CORREC:  cpu time   44.2885: real time   44.6235
    CHARGE:  cpu time   11.4100: real time   11.4822
    --------------------------------------------
      LOOP:  cpu time  224.3837: real time  226.0465

 eigenvalue-minimisations  :     0
 total energy-change (2. order) :-0.1296483E+01  (-0.4439525E+00)
 number of electron     266.0000003 magnetization 
 augmentation part       44.1484911 magnetization 

 Free energy of the ion-electron system (eV)
  ---------------------------------------------------
  alpha Z        PSCENC =      2036.56079520
  Ewald energy   TEWEN  =    -28092.21452933
  -Hartree energ DENC   =     -6366.95622646
  -exchange      EXHF   =         0.00000000
  -V(xc)+E(xc)   XCENC  =      1425.53825799
  PAW double counting   =     38372.26067647   -38358.09782483
  entropy T*S    EENTRO =        -0.00327656
  eigenvalues    EBANDS =     -3357.23367622
  atomic energy  EATOM  =     33869.55769442
  ---------------------------------------------------
  free energy    TOTEN  =      -470.58861333 eV

  energy without entropy =     -470.58533677  energy(sigma->0) =     -470.58697505


--------------------------------------------------------------------------------------------------------




--------------------------------------- Iteration      1(  10)  ---------------------------------------


    POTLOK:  cpu time    1.3238: real time    1.3304
    SETDIJ:  cpu time    3.3110: real time    3.3290
    TRIAL :  cpu time  172.2401: real time  173.6370
    CORREC:  cpu time   52.2380: real time   52.6070
    CHARGE:  cpu time   10.7044: real time   10.7794
    --------------------------------------------
      LOOP:  cpu time  239.8200: real time  241.6868

 eigenvalue-minimisations  :     0
 total energy-change (2. order) :-0.4438562E+00  (-0.1393879E+00)
 number of electron     266.0000003 magnetization 
 augmentation part       44.1505896 magnetization 

 Free energy of the ion-electron system (eV)
  ---------------------------------------------------
  alpha Z        PSCENC =      2036.56079520
  Ewald energy   TEWEN  =    -28092.21452933
  -Hartree energ DENC   =     -6378.77793868
  -exchange      EXHF   =         0.00000000
  -V(xc)+E(xc)   XCENC  =      1426.08596374
  PAW double counting   =     38238.87277340   -38221.89671996
  entropy T*S    EENTRO =        -0.00307898
  eigenvalues    EBANDS =     -3349.21723174
  atomic energy  EATOM  =     33869.55769442
  ---------------------------------------------------
  free energy    TOTEN  =      -471.03246952 eV

  energy without entropy =     -471.02939054  energy(sigma->0) =     -471.03093003


--------------------------------------------------------------------------------------------------------




--------------------------------------- Iteration      1(  11)  ---------------------------------------


    POTLOK:  cpu time    0.3031: real time    0.3049
    SETDIJ:  cpu time    2.2505: real time    2.2641
    TRIAL :  cpu time  172.1058: real time  174.2462
    CORREC:  cpu time   50.3045: real time   50.6670
    CHARGE:  cpu time   10.7366: real time   10.8139
    --------------------------------------------
      LOOP:  cpu time  235.7033: real time  238.3005

 eigenvalue-minimisations  :     0
 total energy-change (2. order) :-0.1394521E+00  (-0.5523368E-01)
 number of electron     266.0000003 magnetization 
 augmentation part       44.1397367 magnetization 

 Free energy of the ion-electron system (eV)
  ---------------------------------------------------
  alpha Z        PSCENC =      2036.56079520
  Ewald energy   TEWEN  =    -28092.21452933
  -Hartree energ DENC   =     -6379.90722286
  -exchange      EXHF   =         0.00000000
  -V(xc)+E(xc)   XCENC  =      1426.13793884
  PAW double counting   =     38278.38861477   -38260.86239842
  entropy T*S    EENTRO =        -0.00310757
  eigenvalues    EBANDS =     -3348.82973523
  atomic energy  EATOM  =     33869.55769442
  ---------------------------------------------------
  free energy    TOTEN  =      -471.17192159 eV

  energy without entropy =     -471.16881402  energy(sigma->0) =     -471.17036781


--------------------------------------------------------------------------------------------------------




--------------------------------------- Iteration      1(  12)  ---------------------------------------


    POTLOK:  cpu time    0.4319: real time    0.4345
    SETDIJ:  cpu time    1.5173: real time    1.5265
