<?xml version="1.0" encoding="ISO-8859-1"?>
<modeling>
 <generator>
  <i name="program" type="string">vasp </i>
  <i name="version" type="string">6.2.0  </i>
  <i name="subversion" type="string">18Jan21 (build Jan 05 2022 15:41:44) complex                          parallel </i>
  <i name="platform" type="string">LinuxIFC </i>
  <i name="date" type="string">2025 05 07 </i>
  <i name="time" type="string">15:34:59 </i>
 </generator>
 <incar>
  <i type="string" name="SYSTEM">routine with relax: pwdword</i>
  <i type="string" name="PREC">Acc</i>
  <i type="int" name="IALGO">    38</i>
  <i type="string" name="ALGO">A</i>
  <i type="logical" name="ADDGRID"> T  </i>
  <i type="int" name="ICHARG">     2</i>
  <i type="int" name="NELM">   100</i>
  <i type="int" name="NELMIN">     6</i>
  <i name="EDIFF">      0.00000000</i>
  <i type="int" name="NSW">     0</i>
  <i type="int" name="ISIF">    -1</i>
  <i name="SYMPREC">      0.00010000</i>
  <i name="ENCUT">    600.00000000</i>
  <i type="logical" name="LREAL"> F  </i>
  <i type="int" name="ISMEAR">     0</i>
  <i name="SIGMA">      0.02000000</i>
  <i type="logical" name="LASPH"> T  </i>
  <i type="string" name="METAGGA">R2SCAN</i>
  <i type="logical" name="LMIXTAU"> F  </i>
 </incar>
 <primitive_cell>
  <structure name="primitive_cell" >
   <crystal>
    <varray name="basis" >
     <v>       3.78259911      -2.68823870       0.00000000 </v>
     <v>       1.91049253       2.68823870       3.26462217 </v>
     <v>      -1.91049253      -2.68823870       3.33170783 </v>
    </varray>
    <i name="volume">    100.95280215 </i>
    <varray name="rec_basis" >
     <v>       0.17565148      -0.12483298       0.00000000 </v>
     <v>       0.08871894       0.12483571       0.15159945 </v>
     <v>      -0.08693254      -0.12232208       0.15159945 </v>
    </varray>
   </crystal>
   <varray name="positions" >
    <v>       0.00000000       1.00000000       0.50000000 </v>
    <v>       0.50000000       0.50000000       0.50000000 </v>
    <v>       0.00000000       0.00000000       0.00000000 </v>
    <v>       0.50000000       0.50000000       1.00000000 </v>
   </varray>
  </structure>
  <varray name="primitive_index" >
   <v type="int" >        1 </v>
   <v type="int" >        3 </v>
   <v type="int" >        4 </v>
   <v type="int" >        7 </v>
  </varray>
 </primitive_cell>
 <kpoints>
  <generation param="Gamma">
   <v type="int" name="divisions">       7        7        8 </v>
   <v name="usershift">      0.00000000       0.00000000       0.00000000 </v>
   <v name="genvec1">      0.14285714       0.00000000       0.00000000 </v>
   <v name="genvec2">      0.00000000       0.14285714       0.00000000 </v>
   <v name="genvec3">      0.00000000      -0.00000000       0.12500000 </v>
   <v name="shift">      0.00000000       0.00000000       0.00000000 </v>
  </generation>
  <varray name="kpointlist" >
   <v>       0.00000000       0.00000000       0.00000000 </v>
   <v>       0.14285714      -0.00000000       0.00000000 </v>
   <v>       0.28571429      -0.00000000       0.00000000 </v>
   <v>       0.42857143       0.00000000       0.00000000 </v>
   <v>       0.14285714       0.14285714       0.00000000 </v>
   <v>       0.28571429       0.14285714       0.00000000 </v>
   <v>       0.42857143       0.14285714       0.00000000 </v>
   <v>      -0.42857143       0.14285714       0.00000000 </v>
   <v>      -0.28571429       0.14285714       0.00000000 </v>
   <v>      -0.14285714       0.14285714       0.00000000 </v>
   <v>       0.28571429       0.28571429       0.00000000 </v>
   <v>       0.42857143       0.28571429       0.00000000 </v>
   <v>      -0.42857143       0.28571429       0.00000000 </v>
   <v>      -0.28571429       0.28571429       0.00000000 </v>
   <v>       0.42857143       0.42857143       0.00000000 </v>
   <v>      -0.42857143       0.42857143       0.00000000 </v>
   <v>       0.00000000       0.00000000       0.12500000 </v>
   <v>       0.14285714       0.00000000       0.12500000 </v>
   <v>       0.28571429      -0.00000000       0.12500000 </v>
   <v>       0.42857143      -0.00000000       0.12500000 </v>
   <v>      -0.42857143       0.00000000       0.12500000 </v>
   <v>      -0.28571429       0.00000000       0.12500000 </v>
   <v>      -0.14285714       0.00000000       0.12500000 </v>
   <v>       0.14285714       0.14285714       0.12500000 </v>
   <v>       0.28571429       0.14285714       0.12500000 </v>
   <v>       0.42857143       0.14285714       0.12500000 </v>
   <v>      -0.42857143       0.14285714       0.12500000 </v>
   <v>      -0.28571429       0.14285714       0.12500000 </v>
   <v>      -0.14285714       0.14285714       0.12500000 </v>
   <v>       0.28571429       0.28571429       0.12500000 </v>
   <v>       0.42857143       0.28571429       0.12500000 </v>
   <v>      -0.42857143       0.28571429       0.12500000 </v>
   <v>      -0.28571429       0.28571429       0.12500000 </v>
   <v>      -0.14285714       0.28571429       0.12500000 </v>
   <v>       0.42857143       0.42857143       0.12500000 </v>
   <v>      -0.42857143       0.42857143       0.12500000 </v>
   <v>      -0.28571429       0.42857143       0.12500000 </v>
   <v>      -0.14285714       0.42857143       0.12500000 </v>
   <v>      -0.42857143      -0.42857143       0.12500000 </v>
   <v>      -0.28571429      -0.42857143       0.12500000 </v>
   <v>      -0.14285714      -0.42857143       0.12500000 </v>
   <v>      -0.28571429      -0.28571429       0.12500000 </v>
   <v>      -0.14285714      -0.28571429       0.12500000 </v>
   <v>      -0.14285714      -0.14285714       0.12500000 </v>
   <v>       0.00000000       0.00000000       0.25000000 </v>
   <v>       0.14285714       0.00000000       0.25000000 </v>
   <v>       0.28571429       0.00000000       0.25000000 </v>
   <v>       0.42857143       0.00000000       0.25000000 </v>
   <v>      -0.42857143       0.00000000       0.25000000 </v>
   <v>      -0.28571429       0.00000000       0.25000000 </v>
   <v>      -0.14285714       0.00000000       0.25000000 </v>
   <v>       0.14285714       0.14285714       0.25000000 </v>
   <v>       0.28571429       0.14285714       0.25000000 </v>
   <v>       0.42857143       0.14285714       0.25000000 </v>
   <v>      -0.42857143       0.14285714       0.25000000 </v>
   <v>      -0.28571429       0.14285714       0.25000000 </v>
   <v>      -0.14285714       0.14285714       0.25000000 </v>
   <v>       0.28571429       0.28571429       0.25000000 </v>
   <v>       0.42857143       0.28571429       0.25000000 </v>
   <v>      -0.42857143       0.28571429       0.25000000 </v>
   <v>      -0.28571429       0.28571429       0.25000000 </v>
   <v>      -0.14285714       0.28571429       0.25000000 </v>
   <v>       0.42857143       0.42857143       0.25000000 </v>
   <v>      -0.42857143       0.42857143       0.25000000 </v>
   <v>      -0.28571429       0.42857143       0.25000000 </v>
   <v>      -0.14285714       0.42857143       0.25000000 </v>
   <v>      -0.42857143      -0.42857143       0.25000000 </v>
   <v>      -0.28571429      -0.42857143       0.25000000 </v>
   <v>      -0.14285714      -0.42857143       0.25000000 </v>
   <v>      -0.28571429      -0.28571429       0.25000000 </v>
   <v>      -0.14285714      -0.28571429       0.25000000 </v>
   <v>      -0.14285714      -0.14285714       0.25000000 </v>
   <v>       0.00000000       0.00000000       0.37500000 </v>
   <v>       0.14285714       0.00000000       0.37500000 </v>
   <v>       0.28571429       0.00000000       0.37500000 </v>
   <v>       0.42857143       0.00000000       0.37500000 </v>
   <v>      -0.42857143       0.00000000       0.37500000 </v>
   <v>      -0.28571429       0.00000000       0.37500000 </v>
   <v>      -0.14285714       0.00000000       0.37500000 </v>
   <v>       0.14285714       0.14285714       0.37500000 </v>
   <v>       0.28571429       0.14285714       0.37500000 </v>
   <v>       0.42857143       0.14285714       0.37500000 </v>
   <v>      -0.42857143       0.14285714       0.37500000 </v>
   <v>      -0.28571429       0.14285714       0.37500000 </v>
   <v>      -0.14285714       0.14285714       0.37500000 </v>
   <v>       0.28571429       0.28571429       0.37500000 </v>
   <v>       0.42857143       0.28571429       0.37500000 </v>
   <v>      -0.42857143       0.28571429       0.37500000 </v>
   <v>      -0.28571429       0.28571429       0.37500000 </v>
   <v>      -0.14285714       0.28571429       0.37500000 </v>
   <v>       0.42857143       0.42857143       0.37500000 </v>
   <v>      -0.42857143       0.42857143       0.37500000 </v>
   <v>      -0.28571429       0.42857143       0.37500000 </v>
   <v>      -0.14285714       0.42857143       0.37500000 </v>
   <v>      -0.42857143      -0.42857143       0.37500000 </v>
   <v>      -0.28571429      -0.42857143       0.37500000 </v>
   <v>      -0.14285714      -0.42857143       0.37500000 </v>
   <v>      -0.28571429      -0.28571429       0.37500000 </v>
   <v>      -0.14285714      -0.28571429       0.37500000 </v>
   <v>      -0.14285714      -0.14285714       0.37500000 </v>
   <v>       0.00000000       0.00000000       0.50000000 </v>
   <v>       0.14285714       0.00000000       0.50000000 </v>
   <v>       0.28571429      -0.00000000       0.50000000 </v>
   <v>       0.42857143       0.00000000       0.50000000 </v>
   <v>       0.14285714       0.14285714       0.50000000 </v>
   <v>       0.28571429       0.14285714       0.50000000 </v>
   <v>       0.42857143       0.14285714       0.50000000 </v>
   <v>      -0.42857143       0.14285714       0.50000000 </v>
   <v>      -0.28571429       0.14285714       0.50000000 </v>
   <v>      -0.14285714       0.14285714       0.50000000 </v>
   <v>       0.28571429       0.28571429       0.50000000 </v>
   <v>       0.42857143       0.28571429       0.50000000 </v>
   <v>      -0.42857143       0.28571429       0.50000000 </v>
   <v>      -0.28571429       0.28571429       0.50000000 </v>
   <v>       0.42857143       0.42857143       0.50000000 </v>
   <v>      -0.42857143       0.42857143       0.50000000 </v>
  </varray>
  <varray name="weights" >
   <v>       0.00255102 </v>
   <v>       0.01020408 </v>
   <v>       0.01020408 </v>
   <v>       0.01020408 </v>
   <v>       0.00510204 </v>
   <v>       0.01020408 </v>
   <v>       0.01020408 </v>
   <v>       0.01020408 </v>
   <v>       0.01020408 </v>
   <v>       0.00510204 </v>
   <v>       0.00510204 </v>
   <v>       0.01020408 </v>
   <v>       0.01020408 </v>
   <v>       0.00510204 </v>
   <v>       0.00510204 </v>
   <v>       0.00510204 </v>
   <v>       0.00510204 </v>
   <v>       0.01020408 </v>
   <v>       0.01020408 </v>
   <v>       0.01020408 </v>
   <v>       0.01020408 </v>
   <v>       0.01020408 </v>
   <v>       0.01020408 </v>
   <v>       0.00510204 </v>
   <v>       0.01020408 </v>
   <v>       0.01020408 </v>
   <v>       0.01020408 </v>
   <v>       0.01020408 </v>
   <v>       0.01020408 </v>
   <v>       0.00510204 </v>
   <v>       0.01020408 </v>
   <v>       0.01020408 </v>
   <v>       0.01020408 </v>
   <v>       0.01020408 </v>
   <v>       0.00510204 </v>
   <v>       0.01020408 </v>
   <v>       0.01020408 </v>
   <v>       0.01020408 </v>
   <v>       0.00510204 </v>
   <v>       0.01020408 </v>
   <v>       0.01020408 </v>
   <v>       0.00510204 </v>
   <v>       0.01020408 </v>
   <v>       0.00510204 </v>
   <v>       0.00510204 </v>
   <v>       0.01020408 </v>
   <v>       0.01020408 </v>
   <v>       0.01020408 </v>
   <v>       0.01020408 </v>
   <v>       0.01020408 </v>
   <v>       0.01020408 </v>
   <v>       0.00510204 </v>
   <v>       0.01020408 </v>
   <v>       0.01020408 </v>
   <v>       0.01020408 </v>
   <v>       0.01020408 </v>
   <v>       0.01020408 </v>
   <v>       0.00510204 </v>
   <v>       0.01020408 </v>
   <v>       0.01020408 </v>
   <v>       0.01020408 </v>
   <v>       0.01020408 </v>
   <v>       0.00510204 </v>
   <v>       0.01020408 </v>
   <v>       0.01020408 </v>
   <v>       0.01020408 </v>
   <v>       0.00510204 </v>
   <v>       0.01020408 </v>
   <v>       0.01020408 </v>
   <v>       0.00510204 </v>
   <v>       0.01020408 </v>
   <v>       0.00510204 </v>
   <v>       0.00510204 </v>
   <v>       0.01020408 </v>
   <v>       0.01020408 </v>
   <v>       0.01020408 </v>
   <v>       0.01020408 </v>
   <v>       0.01020408 </v>
   <v>       0.01020408 </v>
   <v>       0.00510204 </v>
   <v>       0.01020408 </v>
   <v>       0.01020408 </v>
   <v>       0.01020408 </v>
   <v>       0.01020408 </v>
   <v>       0.01020408 </v>
   <v>       0.00510204 </v>
   <v>       0.01020408 </v>
   <v>       0.01020408 </v>
   <v>       0.01020408 </v>
   <v>       0.01020408 </v>
   <v>       0.00510204 </v>
   <v>       0.01020408 </v>
   <v>       0.01020408 </v>
   <v>       0.01020408 </v>
   <v>       0.00510204 </v>
   <v>       0.01020408 </v>
   <v>       0.01020408 </v>
   <v>       0.00510204 </v>
   <v>       0.01020408 </v>
   <v>       0.00510204 </v>
   <v>       0.00255102 </v>
   <v>       0.01020408 </v>
   <v>       0.01020408 </v>
   <v>       0.01020408 </v>
   <v>       0.00510204 </v>
   <v>       0.01020408 </v>
   <v>       0.01020408 </v>
   <v>       0.01020408 </v>
   <v>       0.01020408 </v>
   <v>       0.00510204 </v>
   <v>       0.00510204 </v>
   <v>       0.01020408 </v>
   <v>       0.01020408 </v>
   <v>       0.00510204 </v>
   <v>       0.00510204 </v>
   <v>       0.00510204 </v>
  </varray>
 </kpoints>
 <parameters>
  <separator name="general" >
   <i type="string" name="SYSTEM">routine with relax: pwdword</i>
   <i type="logical" name="LCOMPAT"> F  </i>
  </separator>
  <separator name="electronic" >
   <i type="string" name="PREC">acc</i>
   <i name="ENMAX">    600.00000000</i>
   <i name="ENAUG">    535.51400000</i>
   <i name="EDIFF">      0.00000000</i>
   <i type="int" name="IALGO">    58</i>
   <i type="int" name="IWAVPR">    10</i>
   <i type="int" name="NBANDS">    42</i>
   <i type="int" name="NBANDSLOW">    -1</i>
   <i type="int" name="NBANDSHIGH">    -1</i>
   <i name="NELECT">     70.00000000</i>
   <i type="int" name="TURBO">     0</i>
   <i type="int" name="IRESTART">     0</i>
   <i type="int" name="NREBOOT">     0</i>
   <i type="int" name="NMIN">     0</i>
   <i name="EREF">      0.00000000</i>
   <separator name="electronic smearing" >
    <i type="int" name="ISMEAR">     0</i>
    <i name="SIGMA">      0.02000000</i>
    <i name="KSPACING">      0.50000000</i>
    <i type="logical" name="KGAMMA"> T  </i>
    <i type="logical" name="KBLOWUP"> F  </i>
   </separator>
   <separator name="electronic projectors" >
    <i type="logical" name="LREAL"> F  </i>
    <v name="ROPT">      0.00000000      0.00000000      0.00000000</v>
    <i type="int" name="LMAXPAW">  -100</i>
    <i type="int" name="LMAXMIX">     2</i>
    <i type="logical" name="NLSPLINE"> F  </i>
   </separator>
   <separator name="electronic startup" >
    <i type="int" name="ISTART">     0</i>
    <i type="int" name="ICHARG">     2</i>
    <i type="int" name="INIWAV">     1</i>
   </separator>
   <separator name="electronic spin" >
    <i type="int" name="ISPIN">     1</i>
    <i type="logical" name="LNONCOLLINEAR"> F  </i>
    <v name="MAGMOM">      1.00000000      1.00000000      1.00000000      1.00000000      1.00000000      1.00000000      1.00000000      1.00000000</v>
    <i name="NUPDOWN">     -1.00000000</i>
    <i type="logical" name="LSORBIT"> F  </i>
    <v name="SAXIS">      0.00000000      0.00000000      1.00000000</v>
    <i type="logical" name="LSPIRAL"> F  </i>
    <v name="QSPIRAL">      0.00000000      0.00000000      0.00000000</v>
    <i type="logical" name="LZEROZ"> F  </i>
   </separator>
   <separator name="electronic exchange-correlation" >
    <i type="logical" name="LASPH"> T  </i>
    <i type="logical" name="LMETAGGA"> F  </i>
   </separator>
   <separator name="electronic convergence" >
    <i type="int" name="NELM">   100</i>
    <i type="int" name="NELMDL">    -5</i>
    <i type="int" name="NELMIN">     6</i>
    <i name="ENINI">    600.00000000</i>
    <separator name="electronic convergence detail" >
     <i type="logical" name="LDIAG"> T  </i>
     <i type="logical" name="LSUBROT"> F  </i>
     <i name="WEIMIN">      0.00000000</i>
     <i name="EBREAK">      0.00000000</i>
     <i name="DEPER">      0.30000000</i>
     <i type="int" name="NRMM">     4</i>
     <i name="TIME">      0.40000000</i>
    </separator>
   </separator>
   <separator name="electronic mixer" >
    <i name="AMIX">      0.40000000</i>
    <i name="BMIX">      1.00000000</i>
    <i name="AMIN">      0.10000000</i>
    <i name="AMIX_MAG">      1.60000000</i>
    <i name="BMIX_MAG">      1.00000000</i>
    <separator name="electronic mixer details" >
     <i type="int" name="IMIX">     4</i>
     <i type="logical" name="MIXFIRST"> F  </i>
     <i type="int" name="MAXMIX">   -45</i>
     <i name="WC">    100.00000000</i>
     <i type="int" name="INIMIX">     1</i>
     <i type="int" name="MIXPRE">     1</i>
     <i type="int" name="MREMOVE">     5</i>
    </separator>
   </separator>
   <separator name="electronic dipolcorrection" >
    <i type="logical" name="LDIPOL"> F  </i>
    <i type="logical" name="LMONO"> F  </i>
    <i type="int" name="IDIPOL">     0</i>
    <i name="EPSILON">      1.00000000</i>
    <v name="DIPOL">   -100.00000000   -100.00000000   -100.00000000</v>
    <i name="EFIELD">      0.00000000</i>
   </separator>
  </separator>
  <separator name="grids" >
   <i type="int" name="NGX">    54</i>
   <i type="int" name="NGY">    54</i>
   <i type="int" name="NGZ">    54</i>
   <i type="int" name="NGXF">   108</i>
   <i type="int" name="NGYF">   108</i>
   <i type="int" name="NGZF">   108</i>
   <i type="logical" name="ADDGRID"> T  </i>
  </separator>
  <separator name="ionic" >
   <i type="int" name="NSW">     0</i>
   <i type="int" name="IBRION">    -1</i>
   <i type="int" name="MDALGO">     0</i>
   <i type="int" name="ISIF">    -1</i>
   <i name="PSTRESS">      0.00000000</i>
   <i name="EDIFFG">      0.00000001</i>
   <i type="int" name="NFREE">     0</i>
   <i name="POTIM">      0.50000000</i>
   <i name="SMASS">     -3.00000000</i>
   <i name="SCALEE">      1.00000000</i>
  </separator>
  <separator name="ionic md" >
   <i name="TEBEG">      0.00010000</i>
   <i name="TEEND">      0.00010000</i>
   <i type="int" name="NBLOCK">     1</i>
   <i type="int" name="KBLOCK">     1</i>
   <i type="int" name="NPACO">   256</i>
   <i name="APACO">     16.00000000</i>
  </separator>
  <separator name="symmetry" >
   <i type="int" name="ISYM">     2</i>
   <i name="SYMPREC">      0.00010000</i>
  </separator>
  <separator name="dos" >
   <i type="int" name="LORBIT">     0</i>
   <v name="RWIGS">     -1.00000000     -1.00000000     -1.00000000</v>
   <i type="int" name="NEDOS">   301</i>
   <i name="EMIN">     10.00000000</i>
   <i name="EMAX">    -10.00000000</i>
   <i name="EFERMI">      0.00000000</i>
  </separator>
  <separator name="writing" >
   <i type="int" name="NWRITE">     2</i>
   <i type="logical" name="LWAVE"> T  </i>
   <i type="logical" name="LDOWNSAMPLE"> F  </i>
   <i type="logical" name="LCHARG"> T  </i>
   <i type="logical" name="LPARD"> F  </i>
   <i type="logical" name="LVTOT"> F  </i>
   <i type="logical" name="LVHAR"> F  </i>
   <i type="logical" name="LELF"> F  </i>
   <i type="logical" name="LOPTICS"> F  </i>
   <v name="STM">      0.00000000      0.00000000      0.00000000      0.00000000      0.00000000      0.00000000      0.00000000</v>
  </separator>
  <separator name="performance" >
   <i type="int" name="NPAR">     6</i>
   <i type="int" name="NSIM">     4</i>
   <i type="int" name="NBLK">    -1</i>
   <i type="logical" name="LPLANE"> T  </i>
   <i type="logical" name="LSCALAPACK"> T  </i>
   <i type="logical" name="LSCAAWARE"> F  </i>
   <i type="logical" name="LSCALU"> F  </i>
   <i type="logical" name="LASYNC"> F  </i>
   <i type="logical" name="LORBITALREAL"> F  </i>
  </separator>
  <separator name="miscellaneous" >
   <i type="int" name="IDIOT">     3</i>
   <i type="int" name="PHON_NSTRUCT">    -1</i>
   <i type="logical" name="LMUSIC"> F  </i>
   <v name="POMASS">     10.81100000     95.94000000     28.08500000</v>
   <v name="DARWINR">      0.00000000      0.00000000      0.00000000</v>
   <v name="DARWINV">      1.00000000      1.00000000      1.00000000</v>
   <i type="logical" name="LCORR"> T  </i>
  </separator>
  <i type="logical" name="GGA_COMPAT"> T  </i>
  <i type="logical" name="LBERRY"> F  </i>
  <i type="int" name="ICORELEVEL">     0</i>
  <i type="logical" name="LDAU"> F  </i>
  <i type="int" name="I_CONSTRAINED_M">     0</i>
  <separator name="electronic exchange-correlation" >
   <i type="string" name="GGA">--</i>
   <i type="int" name="VOSKOWN">     0</i>
   <i type="logical" name="LHFCALC"> F  </i>
   <i type="string" name="PRECFOCK"></i>
   <i type="logical" name="LSYMGRAD"> F  </i>
   <i type="logical" name="LHFONE"> F  </i>
   <i type="logical" name="LRHFCALC"> F  </i>
   <i type="logical" name="LTHOMAS"> F  </i>
   <i type="logical" name="LMODELHF"> F  </i>
   <i type="logical" name="LFOCKACE"> F  </i>
   <i name="ENCUT4O">     -1.00000000</i>
   <i type="int" name="EXXOEP">     0</i>
   <i type="int" name="FOURORBIT">     0</i>
   <i name="AEXX">      0.00000000</i>
   <i name="HFALPHA">      0.00000000</i>
   <i name="MCALPHA">      0.00000000</i>
   <i name="ALDAX">      1.00000000</i>
   <i name="AGGAX">      1.00000000</i>
   <i name="ALDAC">      1.00000000</i>
   <i name="AGGAC">      1.00000000</i>
   <i type="int" name="NKREDX">     1</i>
   <i type="int" name="NKREDY">     1</i>
   <i type="int" name="NKREDZ">     1</i>
   <i type="logical" name="SHIFTRED"> F  </i>
   <i type="logical" name="ODDONLY"> F  </i>
   <i type="logical" name="EVENONLY"> F  </i>
   <i type="int" name="LMAXFOCK">     0</i>
   <i type="int" name="NMAXFOCKAE">     0</i>
   <i type="logical" name="LFOCKAEDFT"> F  </i>
   <i name="HFSCREEN">      0.00000000</i>
   <i name="HFSCREENC">      0.00000000</i>
   <i type="int" name="NBANDSGWLOW">     0</i>
  </separator>
  <separator name="vdW DFT" >
   <i type="logical" name="LUSE_VDW"> F  </i>
   <i name="Zab_VDW">     -0.84910000</i>
   <i name="PARAM1">      0.12340000</i>
   <i name="PARAM2">      1.00000000</i>
   <i name="PARAM3">      0.00000000</i>
  </separator>
  <separator name="model GW" >
   <i type="int" name="MODEL_GW">     0</i>
   <i name="MODEL_EPS0">     15.14292032</i>
   <i name="MODEL_ALPHA">      1.00000000</i>
  </separator>
  <separator name="linear response parameters" >
   <i type="logical" name="LEPSILON"> F  </i>
   <i type="logical" name="LRPA"> F  </i>
   <i type="logical" name="LNABLA"> F  </i>
   <i type="logical" name="LVEL"> F  </i>
   <i type="int" name="KINTER">     0</i>
   <i name="CSHIFT">      0.10000000</i>
   <i name="OMEGAMAX">     -1.00000000</i>
   <i name="DEG_THRESHOLD">      0.00200000</i>
   <i name="RTIME">     -0.10000000</i>
   <i name="WPLASMAI">      0.00000000</i>
   <v name="DFIELD">      0.00000000      0.00000000      0.00000000</v>
   <v name="WPLASMA">      0.00000000      0.00000000      0.00000000      0.00000000      0.00000000      0.00000000      0.00000000      0.00000000      0.00000000</v>
  </separator>
  <separator name="orbital magnetization" >
   <i type="logical" name="NUCIND"> F  </i>
   <v name="MAGPOS">      0.00000000      0.00000000      0.00000000</v>
   <i type="logical" name="LNICSALL"> T  </i>
   <i type="logical" name="ORBITALMAG"> F  </i>
   <i type="logical" name="LMAGBLOCH"> F  </i>
   <i type="logical" name="LCHIMAG"> F  </i>
   <i type="logical" name="LGAUGE"> T  </i>
   <i type="int" name="MAGATOM">     0</i>
   <v name="MAGDIPOL">      0.00000000      0.00000000      0.00000000</v>
   <v name="AVECCONST">      0.00000000      0.00000000      0.00000000</v>
  </separator>
  <separator name="response functions" >
   <i type="logical" name="LFINITE_TEMPERATURE"> F  </i>
   <i type="logical" name="LADDER"> F  </i>
   <i type="logical" name="LRPAFORCE"> F  </i>
   <i type="logical" name="LFXC"> F  </i>
   <i type="logical" name="LHARTREE"> T  </i>
   <i type="int" name="IBSE">     0</i>
   <v type="int" name="KPOINT">    -1     0     0     0</v>
   <i type="logical" name="LTCTC"> F  </i>
   <i type="logical" name="LTCTE"> F  </i>
   <i type="logical" name="LTETE"> F  </i>
   <i type="logical" name="LTRIPLET"> F  </i>
   <i type="logical" name="LFXCEPS"> F  </i>
   <i type="logical" name="LFXHEG"> F  </i>
   <i type="int" name="NATURALO">     2</i>
   <i type="logical" name="LHOLEGF"> F  </i>
   <i type="logical" name="L2ORDER"> F  </i>
   <i type="logical" name="LDMP1"> F  </i>
   <i type="logical" name="LMP2LT"> F  </i>
   <i type="logical" name="LSMP2LT"> F  </i>
   <i type="logical" name="LGWLF"> F  </i>
   <i name="ENCUTGW">     -2.00000000</i>
   <i name="ENCUTGWSOFT">     -2.00000000</i>
   <i name="ENCUTLF">     -1.00000000</i>
   <i type="logical" name="LESF_SPLINES"> F  </i>
   <i type="int" name="LMAXMP2">    -1</i>
   <i name="SCISSOR">      0.00000000</i>
   <i type="int" name="NOMEGA">     0</i>
   <i type="int" name="NOMEGAR">     0</i>
   <i type="int" name="NBANDSGW">    -1</i>
   <i type="int" name="NBANDSO">    -1</i>
   <i type="int" name="NBANDSV">    -1</i>
   <i type="int" name="NELM">   100</i>
   <i type="int" name="NELMHF">     1</i>
   <i type="int" name="DIM">     3</i>
   <i type="int" name="IESPILON">     4</i>
   <i type="int" name="ANTIRES">     0</i>
   <i name="OMEGAMAX">    -30.00000000</i>
   <i name="OMEGAMIN">    -30.00000000</i>
   <i name="OMEGATL">   -200.00000000</i>
   <i type="int" name="OMEGAGRID">     0</i>
   <i name="CSHIFT">     -0.10000000</i>
   <i type="logical" name="LSELFENERGY"> F  </i>
   <i type="logical" name="LSPECTRAL"> F  </i>
   <i type="logical" name="LSPECTRALGW"> F  </i>
   <i type="logical" name="LSINGLES"> F  </i>
   <i type="logical" name="LFERMIGW"> F  </i>
   <i type="logical" name="ODDONLYGW"> F  </i>
   <i type="logical" name="EVENONLYGW"> F  </i>
   <i type="int" name="NKREDLFX">     1</i>
   <i type="int" name="NKREDLFY">     1</i>
   <i type="int" name="NKREDLFZ">     1</i>
   <i type="int" name="MAXMEM">  2800</i>
   <i type="int" name="TELESCOPE">     0</i>
   <i type="int" name="NTAUPAR">    -1</i>
   <i type="int" name="NOMEGAPAR">    -1</i>
   <i name="DAMP_NEWTON">      0.80000001</i>
   <i name="LAMBDA">      1.00000000</i>
  </separator>
  <separator name="External order field" >
   <i name="OFIELD_KAPPA">      0.00000000</i>
   <v name="OFIELD_K">      0.00000000      0.00000000      0.00000000</v>
   <i name="OFIELD_Q6_NEAR">      0.00000000</i>
   <i name="OFIELD_Q6_FAR">      0.00000000</i>
   <i name="OFIELD_A">      0.00000000</i>
  </separator>
 </parameters>
 <atominfo>
  <atoms>       8 </atoms>
  <types>       3 </types>
  <array name="atoms" >
   <dimension dim="1">ion</dimension>
   <field type="string">element</field>
   <field type="int">atomtype</field>
   <set>
    <rc><c>B </c><c>   1</c></rc>
    <rc><c>B </c><c>   1</c></rc>
    <rc><c>Mo</c><c>   2</c></rc>
    <rc><c>Mo</c><c>   2</c></rc>
    <rc><c>Mo</c><c>   2</c></rc>
    <rc><c>Mo</c><c>   2</c></rc>
    <rc><c>Si</c><c>   3</c></rc>
    <rc><c>Si</c><c>   3</c></rc>
   </set>
  </array>
  <array name="atomtypes" >
   <dimension dim="1">type</dimension>
   <field type="int">atomspertype</field>
   <field type="string">element</field>
   <field>mass</field>
   <field>valence</field>
   <field type="string">pseudopotential</field>
   <set>
    <rc><c>   2</c><c>B </c><c>     10.81100000</c><c>      3.00000000</c><c>  PAW_PBE B 06Sep2000                   </c></rc>
    <rc><c>   4</c><c>Mo</c><c>     95.94000000</c><c>     14.00000000</c><c>  PAW_PBE Mo_sv 02Feb2006               </c></rc>
    <rc><c>   2</c><c>Si</c><c>     28.08500000</c><c>      4.00000000</c><c>  PAW_PBE Si 05Jan2001                  </c></rc>
   </set>
  </array>
 </atominfo>
 <structure name="initialpos" >
  <crystal>
   <varray name="basis" >
    <v>       5.69309164       0.00000000      -3.33170783 </v>
    <v>      -1.87210659       5.37647741      -3.33170783 </v>
    <v>       0.00000000       0.00000000       6.59633000 </v>
   </varray>
   <i name="volume">    201.90560429 </i>
   <varray name="rec_basis" >
    <v>       0.17565148       0.06116241       0.00000000 </v>
    <v>       0.00000000       0.18599539       0.00000000 </v>
    <v>       0.08871894       0.12483571       0.15159945 </v>
   </varray>
  </crystal>
  <varray name="positions" >
   <v>       0.25000000       0.25000000       0.00000000 </v>
   <v>       0.75000000       0.75000000       0.00000000 </v>
   <v>       0.75000000       0.25000000       0.50000000 </v>
   <v>       0.00000000       0.00000000       0.00000000 </v>
   <v>       0.25000000       0.75000000       0.50000000 </v>
   <v>       0.50000000       0.50000000       0.00000000 </v>
   <v>       0.00000000       0.50000000       0.50000000 </v>
   <v>       0.50000000       0.00000000       0.50000000 </v>
  </varray>
 </structure>
 <calculation>
  <scstep>
   <time name="total">   21.31   21.61</time>
   <energy>
    <i name="alphaZ">    204.28334311 </i>
    <i name="ewald">  -5108.57486302 </i>
    <i name="hartreedc">  -2216.51249365 </i>
    <i name="XCdc">    301.16373334 </i>
    <i name="pawpsdc">   6194.65714934 </i>
    <i name="pawaedc">  -6160.44322926 </i>
    <i name="eentropy">     -0.00097585 </i>
    <i name="bandstr">   -469.28766585 </i>
    <i name="atom">   7797.60240368 </i>
    <i name="e_fr_energy">    542.88740183 </i>
    <i name="e_wo_entrp">    542.88837767 </i>
    <i name="e_0_energy">    542.88788975 </i>
   </energy>
  </scstep>
  <scstep>
   <time name="total">   20.02   20.25</time>
   <energy>
    <i name="e_fr_energy">   -113.75455633 </i>
    <i name="e_wo_entrp">   -113.75273928 </i>
    <i name="e_0_energy">   -113.75364781 </i>
   </energy>
  </scstep>
  <scstep>
   <time name="total">   23.15   23.42</time>
   <energy>
    <i name="e_fr_energy">   -147.34934240 </i>
    <i name="e_wo_entrp">   -147.34743568 </i>
    <i name="e_0_energy">   -147.34838904 </i>
   </energy>
  </scstep>
  <scstep>
   <time name="total">   23.46   23.72</time>
   <energy>
    <i name="e_fr_energy">   -148.72327360 </i>
    <i name="e_wo_entrp">   -148.72053022 </i>
    <i name="e_0_energy">   -148.72190191 </i>
   </energy>
  </scstep>
  <scstep>
   <time name="total">   25.86   26.15</time>
   <energy>
    <i name="e_fr_energy">   -148.80682103 </i>
    <i name="e_wo_entrp">   -148.80419958 </i>
    <i name="e_0_energy">   -148.80551031 </i>
   </energy>
  </scstep>
  <scstep>
   <time name="total">   25.62   25.92</time>
   <energy>
    <i name="e_fr_energy">    -87.25905428 </i>
    <i name="e_wo_entrp">    -87.25725791 </i>
    <i name="e_0_energy">    -87.25815610 </i>
   </energy>
  </scstep>
  <scstep>
   <time name="total">   27.71   27.96</time>
   <energy>
    <i name="e_fr_energy">   -109.00770757 </i>
    <i name="e_wo_entrp">   -109.00437107 </i>
    <i name="e_0_energy">   -109.00603932 </i>
   </energy>
  </scstep>
  <scstep>
   <time name="total">   28.50   28.75</time>
   <energy>
    <i name="e_fr_energy">   -114.83800068 </i>
    <i name="e_wo_entrp">   -114.83475449 </i>
    <i name="e_0_energy">   -114.83637758 </i>
   </energy>
  </scstep>
  <scstep>
   <time name="total">   28.28   28.53</time>
   <energy>
    <i name="e_fr_energy">   -116.13426828 </i>
    <i name="e_wo_entrp">   -116.13158877 </i>
    <i name="e_0_energy">   -116.13292852 </i>
   </energy>
  </scstep>
  <scstep>
   <time name="total">   27.75   28.00</time>
   <energy>
    <i name="e_fr_energy">   -116.64530728 </i>
    <i name="e_wo_entrp">   -116.64220259 </i>
    <i name="e_0_energy">   -116.64375494 </i>
   </energy>
  </scstep>
  <scstep>
   <time name="total">   28.24   28.49</time>
   <energy>
    <i name="e_fr_energy">   -116.80995092 </i>
    <i name="e_wo_entrp">   -116.80688677 </i>
    <i name="e_0_energy">   -116.80841884 </i>
   </energy>
  </scstep>
  <scstep>
   <time name="total">   25.53   25.76</time>
   <energy>
    <i name="e_fr_energy">   -116.95247944 </i>
    <i name="e_wo_entrp">   -116.94933736 </i>
    <i name="e_0_energy">   -116.95090840 </i>
   </energy>
  </scstep>
  <scstep>
   <time name="total">   27.42   27.66</time>
   <energy>
    <i name="e_fr_energy">   -117.03017060 </i>
    <i name="e_wo_entrp">   -117.02705694 </i>
    <i name="e_0_energy">   -117.02861377 </i>
   </energy>
  </scstep>
  <scstep>
   <time name="total">   27.19   27.45</time>
   <energy>
    <i name="e_fr_energy">   -117.05229782 </i>
    <i name="e_wo_entrp">   -117.04915483 </i>
    <i name="e_0_energy">   -117.05072632 </i>
   </energy>
  </scstep>
  <scstep>
   <time name="total">   27.73   28.00</time>
   <energy>
    <i name="e_fr_energy">   -117.09176795 </i>
    <i name="e_wo_entrp">   -117.08856039 </i>
    <i name="e_0_energy">   -117.09016417 </i>
   </energy>
  </scstep>
  <scstep>
   <time name="total">   28.07   28.33</time>
   <energy>
    <i name="e_fr_energy">   -117.11703992 </i>
    <i name="e_wo_entrp">   -117.11384493 </i>
    <i name="e_0_energy">   -117.11544243 </i>
   </energy>
  </scstep>
  <scstep>
   <time name="total">   27.72   27.97</time>
   <energy>
    <i name="e_fr_energy">   -117.12473001 </i>
    <i name="e_wo_entrp">   -117.12172135 </i>
    <i name="e_0_energy">   -117.12322568 </i>
   </energy>
  </scstep>
  <scstep>
   <time name="total">   27.58   27.83</time>
   <energy>
    <i name="e_fr_energy">   -117.13942451 </i>
    <i name="e_wo_entrp">   -117.13653922 </i>
    <i name="e_0_energy">   -117.13798186 </i>
   </energy>
  </scstep>
  <scstep>
   <time name="total">   29.14   29.40</time>
   <energy>
    <i name="e_fr_energy">   -117.14770836 </i>
    <i name="e_wo_entrp">   -117.14482624 </i>
    <i name="e_0_energy">   -117.14626730 </i>
   </energy>
  </scstep>
  <scstep>
   <time name="total">   27.70   27.95</time>
   <energy>
    <i name="e_fr_energy">   -117.14951615 </i>
    <i name="e_wo_entrp">   -117.14650828 </i>
    <i name="e_0_energy">   -117.14801222 </i>
   </energy>
  </scstep>
  <scstep>
   <time name="total">   25.95   26.19</time>
   <energy>
    <i name="e_fr_energy">   -117.15325958 </i>
    <i name="e_wo_entrp">   -117.15018179 </i>
    <i name="e_0_energy">   -117.15172068 </i>
   </energy>
  </scstep>
  <scstep>
   <time name="total">   26.74   26.99</time>
   <energy>
    <i name="e_fr_energy">   -117.15683065 </i>
    <i name="e_wo_entrp">   -117.15370966 </i>
    <i name="e_0_energy">   -117.15527016 </i>
   </energy>
  </scstep>
  <scstep>
   <time name="total">   26.86   27.11</time>
   <energy>
    <i name="e_fr_energy">   -117.15826976 </i>
    <i name="e_wo_entrp">   -117.15504351 </i>
    <i name="e_0_energy">   -117.15665663 </i>
   </energy>
  </scstep>
  <scstep>
   <time name="total">   28.23   28.54</time>
   <energy>
    <i name="e_fr_energy">   -117.15998086 </i>
    <i name="e_wo_entrp">   -117.15670180 </i>
    <i name="e_0_energy">   -117.15834133 </i>
   </energy>
  </scstep>
  <scstep>
   <time name="total">   28.56   28.81</time>
   <energy>
    <i name="e_fr_energy">   -117.16079609 </i>
    <i name="e_wo_entrp">   -117.15748202 </i>
    <i name="e_0_energy">   -117.15913905 </i>
   </energy>
  </scstep>
  <scstep>
   <time name="total">   27.86   28.12</time>
   <energy>
    <i name="e_fr_energy">   -117.16172226 </i>
    <i name="e_wo_entrp">   -117.15841549 </i>
    <i name="e_0_energy">   -117.16006887 </i>
   </energy>
  </scstep>
  <scstep>
   <time name="total">   27.90   28.15</time>
   <energy>
    <i name="e_fr_energy">   -117.16259445 </i>
    <i name="e_wo_entrp">   -117.15931286 </i>
    <i name="e_0_energy">   -117.16095366 </i>
   </energy>
  </scstep>
  <scstep>
   <time name="total">   28.17   28.44</time>
   <energy>
    <i name="e_fr_energy">   -117.16324968 </i>
    <i name="e_wo_entrp">   -117.15998952 </i>
    <i name="e_0_energy">   -117.16161960 </i>
   </energy>
  </scstep>
  <scstep>
   <time name="total">   28.68   28.94</time>
   <energy>
    <i name="e_fr_energy">   -117.16381334 </i>
    <i name="e_wo_entrp">   -117.16058912 </i>
    <i name="e_0_energy">   -117.16220123 </i>
   </energy>
  </scstep>
  <scstep>
   <time name="total">   28.57   28.82</time>
   <energy>
    <i name="e_fr_energy">   -117.16445107 </i>
    <i name="e_wo_entrp">   -117.16124510 </i>
    <i name="e_0_energy">   -117.16284809 </i>
   </energy>
  </scstep>
  <scstep>
   <time name="total">   27.91   28.16</time>
   <energy>
    <i name="e_fr_energy">   -117.16502647 </i>
    <i name="e_wo_entrp">   -117.16184692 </i>
    <i name="e_0_energy">   -117.16343669 </i>
   </energy>
  </scstep>
  <scstep>
   <time name="total">   28.58   28.83</time>
   <energy>
    <i name="e_fr_energy">   -117.16532274 </i>
    <i name="e_wo_entrp">   -117.16217795 </i>
    <i name="e_0_energy">   -117.16375034 </i>
   </energy>
  </scstep>
  <scstep>
   <time name="total">   27.02   27.26</time>
   <energy>
    <i name="e_fr_energy">   -117.16572555 </i>
    <i name="e_wo_entrp">   -117.16261328 </i>
    <i name="e_0_energy">   -117.16416942 </i>
   </energy>
  </scstep>
  <scstep>
   <time name="total">   27.57   27.82</time>
   <energy>
    <i name="e_fr_energy">   -117.16596027 </i>
    <i name="e_wo_entrp">   -117.16286147 </i>
    <i name="e_0_energy">   -117.16441087 </i>
   </energy>
  </scstep>
  <scstep>
   <time name="total">   25.41   25.64</time>
   <energy>
    <i name="e_fr_energy">   -117.16614192 </i>
    <i name="e_wo_entrp">   -117.16306470 </i>
    <i name="e_0_energy">   -117.16460331 </i>
   </energy>
  </scstep>
  <scstep>
   <time name="total">   24.98   25.21</time>
   <energy>
    <i name="e_fr_energy">   -117.16633482 </i>
    <i name="e_wo_entrp">   -117.16325871 </i>
    <i name="e_0_energy">   -117.16479676 </i>
   </energy>
  </scstep>
  <scstep>
   <time name="total">   26.74   26.99</time>
   <energy>
    <i name="e_fr_energy">   -117.16642147 </i>
    <i name="e_wo_entrp">   -117.16334902 </i>
    <i name="e_0_energy">   -117.16488525 </i>
   </energy>
  </scstep>
  <scstep>
   <time name="total">   29.62   29.88</time>
   <energy>
    <i name="e_fr_energy">   -117.16647889 </i>
    <i name="e_wo_entrp">   -117.16339496 </i>
    <i name="e_0_energy">   -117.16493693 </i>
   </energy>
  </scstep>
  <scstep>
   <time name="total">   28.50   28.75</time>
   <energy>
    <i name="e_fr_energy">   -117.16672843 </i>
    <i name="e_wo_entrp">   -117.16363528 </i>
    <i name="e_0_energy">   -117.16518185 </i>
   </energy>
  </scstep>
  <scstep>
   <time name="total">   27.89   28.14</time>
   <energy>
    <i name="e_fr_energy">   -117.16684113 </i>
    <i name="e_wo_entrp">   -117.16374779 </i>
    <i name="e_0_energy">   -117.16529446 </i>
   </energy>
  </scstep>
  <scstep>
   <time name="total">   27.36   27.61</time>
   <energy>
    <i name="e_fr_energy">   -117.16687238 </i>
    <i name="e_wo_entrp">   -117.16377099 </i>
    <i name="e_0_energy">   -117.16532169 </i>
   </energy>
  </scstep>
  <scstep>
   <time name="total">   27.38   27.65</time>
   <energy>
    <i name="e_fr_energy">   -117.16692620 </i>
    <i name="e_wo_entrp">   -117.16382208 </i>
    <i name="e_0_energy">   -117.16537414 </i>
   </energy>
  </scstep>
  <scstep>
   <time name="total">   26.39   26.64</time>
   <energy>
    <i name="e_fr_energy">   -117.16695640 </i>
    <i name="e_wo_entrp">   -117.16385077 </i>
    <i name="e_0_energy">   -117.16540359 </i>
   </energy>
  </scstep>
  <scstep>
   <time name="total">   26.55   26.80</time>
   <energy>
    <i name="e_fr_energy">   -117.16696196 </i>
    <i name="e_wo_entrp">   -117.16385745 </i>
    <i name="e_0_energy">   -117.16540971 </i>
   </energy>
  </scstep>
  <scstep>
   <time name="total">   27.44   27.69</time>
   <energy>
    <i name="e_fr_energy">   -117.16697675 </i>
    <i name="e_wo_entrp">   -117.16387295 </i>
    <i name="e_0_energy">   -117.16542485 </i>
   </energy>
  </scstep>
  <scstep>
   <time name="total">   29.07   29.33</time>
   <energy>
    <i name="e_fr_energy">   -117.16698383 </i>
    <i name="e_wo_entrp">   -117.16388197 </i>
    <i name="e_0_energy">   -117.16543290 </i>
   </energy>
  </scstep>
  <scstep>
   <time name="total">   27.18   27.43</time>
   <energy>
    <i name="e_fr_energy">   -117.16698772 </i>
    <i name="e_wo_entrp">   -117.16388764 </i>
    <i name="e_0_energy">   -117.16543768 </i>
   </energy>
  </scstep>
  <scstep>
   <time name="total">   27.23   27.49</time>
   <energy>
    <i name="e_fr_energy">   -117.16699275 </i>
    <i name="e_wo_entrp">   -117.16389421 </i>
    <i name="e_0_energy">   -117.16544348 </i>
   </energy>
  </scstep>
  <scstep>
   <time name="total">   27.52   27.78</time>
   <energy>
    <i name="e_fr_energy">   -117.16699440 </i>
    <i name="e_wo_entrp">   -117.16389756 </i>
    <i name="e_0_energy">   -117.16544598 </i>
   </energy>
  </scstep>
  <scstep>
   <time name="total">   28.28   28.54</time>
   <energy>
    <i name="e_fr_energy">   -117.16699722 </i>
    <i name="e_wo_entrp">   -117.16390136 </i>
    <i name="e_0_energy">   -117.16544929 </i>
   </energy>
  </scstep>
  <scstep>
   <time name="total">   28.64   28.90</time>
   <energy>
    <i name="e_fr_energy">   -117.16699803 </i>
    <i name="e_wo_entrp">   -117.16390254 </i>
    <i name="e_0_energy">   -117.16545029 </i>
   </energy>
  </scstep>
  <scstep>
   <time name="total">   27.30   27.56</time>
   <energy>
    <i name="e_fr_energy">   -117.16699881 </i>
    <i name="e_wo_entrp">   -117.16390442 </i>
    <i name="e_0_energy">   -117.16545162 </i>
   </energy>
  </scstep>
  <scstep>
   <time name="total">   25.90   26.14</time>
   <energy>
    <i name="e_fr_energy">   -117.16699959 </i>
    <i name="e_wo_entrp">   -117.16390541 </i>
    <i name="e_0_energy">   -117.16545250 </i>
   </energy>
  </scstep>
  <scstep>
   <time name="total">   28.19   28.45</time>
   <energy>
    <i name="e_fr_energy">   -117.16700003 </i>
    <i name="e_wo_entrp">   -117.16390585 </i>
    <i name="e_0_energy">   -117.16545294 </i>
   </energy>
  </scstep>
  <scstep>
   <time name="total">   27.64   27.89</time>
   <energy>
    <i name="e_fr_energy">   -117.16700029 </i>
    <i name="e_wo_entrp">   -117.16390673 </i>
    <i name="e_0_energy">   -117.16545351 </i>
   </energy>
  </scstep>
  <scstep>
   <time name="total">   27.37   27.62</time>
   <energy>
    <i name="e_fr_energy">   -117.16700093 </i>
    <i name="e_wo_entrp">   -117.16390774 </i>
    <i name="e_0_energy">   -117.16545433 </i>
   </energy>
  </scstep>
  <scstep>
   <time name="total">   28.82   29.08</time>
   <energy>
    <i name="e_fr_energy">   -117.16700113 </i>
    <i name="e_wo_entrp">   -117.16390832 </i>
    <i name="e_0_energy">   -117.16545472 </i>
   </energy>
  </scstep>
  <scstep>
   <time name="total">   26.24   26.48</time>
   <energy>
    <i name="e_fr_energy">   -117.16700156 </i>
    <i name="e_wo_entrp">   -117.16390870 </i>
    <i name="e_0_energy">   -117.16545513 </i>
   </energy>
  </scstep>
  <scstep>
   <time name="total">   26.88   27.12</time>
   <energy>
    <i name="e_fr_energy">   -117.16700163 </i>
    <i name="e_wo_entrp">   -117.16390872 </i>
    <i name="e_0_energy">   -117.16545518 </i>
   </energy>
  </scstep>
  <scstep>
   <time name="total">   27.36   27.61</time>
   <energy>
    <i name="e_fr_energy">   -117.16700168 </i>
    <i name="e_wo_entrp">   -117.16390888 </i>
    <i name="e_0_energy">   -117.16545528 </i>
   </energy>
  </scstep>
  <scstep>
   <time name="total">   26.63   26.87</time>
   <energy>
    <i name="e_fr_energy">   -117.16700181 </i>
    <i name="e_wo_entrp">   -117.16390914 </i>
    <i name="e_0_energy">   -117.16545547 </i>
   </energy>
  </scstep>
  <scstep>
   <time name="total">   27.54   27.78</time>
   <energy>
    <i name="e_fr_energy">   -117.16700185 </i>
    <i name="e_wo_entrp">   -117.16390951 </i>
    <i name="e_0_energy">   -117.16545568 </i>
   </energy>
  </scstep>
  <scstep>
   <time name="total">   27.78   28.03</time>
   <energy>
    <i name="e_fr_energy">   -117.16700191 </i>
    <i name="e_wo_entrp">   -117.16390940 </i>
    <i name="e_0_energy">   -117.16545566 </i>
   </energy>
  </scstep>
  <scstep>
   <time name="total">   25.62   25.85</time>
   <energy>
    <i name="e_fr_energy">   -117.16700202 </i>
    <i name="e_wo_entrp">   -117.16390954 </i>
    <i name="e_0_energy">   -117.16545578 </i>
   </energy>
  </scstep>
  <scstep>
   <time name="total">   26.90   27.14</time>
   <energy>
    <i name="e_fr_energy">   -117.16700210 </i>
    <i name="e_wo_entrp">   -117.16390970 </i>
    <i name="e_0_energy">   -117.16545590 </i>
   </energy>
  </scstep>
  <scstep>
   <time name="total">   27.29   27.54</time>
   <energy>
    <i name="e_fr_energy">   -117.16700212 </i>
    <i name="e_wo_entrp">   -117.16390973 </i>
    <i name="e_0_energy">   -117.16545593 </i>
   </energy>
  </scstep>
  <scstep>
   <time name="total">   24.81   25.05</time>
   <energy>
    <i name="e_fr_energy">   -117.16700215 </i>
    <i name="e_wo_entrp">   -117.16390973 </i>
    <i name="e_0_energy">   -117.16545594 </i>
   </energy>
  </scstep>
  <scstep>
   <time name="total">   25.60   25.84</time>
   <energy>
    <i name="e_fr_energy">   -117.16700215 </i>
    <i name="e_wo_entrp">   -117.16390972 </i>
    <i name="e_0_energy">   -117.16545594 </i>
   </energy>
  </scstep>
  <scstep>
   <time name="total">   27.15   27.40</time>
   <energy>
    <i name="e_fr_energy">   -117.16700216 </i>
    <i name="e_wo_entrp">   -117.16390978 </i>
    <i name="e_0_energy">   -117.16545597 </i>
   </energy>
  </scstep>
  <scstep>
   <time name="total">   27.29   27.54</time>
   <energy>
    <i name="e_fr_energy">   -117.16700217 </i>
    <i name="e_wo_entrp">   -117.16390978 </i>
    <i name="e_0_energy">   -117.16545598 </i>
   </energy>
  </scstep>
  <scstep>
   <time name="total">   26.09   26.34</time>
   <energy>
    <i name="e_fr_energy">   -117.16700219 </i>
    <i name="e_wo_entrp">   -117.16390976 </i>
    <i name="e_0_energy">   -117.16545598 </i>
   </energy>
  </scstep>
  <scstep>
   <time name="total">   26.07   26.31</time>
   <energy>
    <i name="e_fr_energy">   -117.16700220 </i>
    <i name="e_wo_entrp">   -117.16390973 </i>
    <i name="e_0_energy">   -117.16545597 </i>
   </energy>
  </scstep>
  <scstep>
   <time name="total">   24.22   24.45</time>
   <energy>
    <i name="e_fr_energy">   -117.16700222 </i>
    <i name="e_wo_entrp">   -117.16390977 </i>
    <i name="e_0_energy">   -117.16545600 </i>
   </energy>
  </scstep>
  <scstep>
   <time name="total">   26.35   26.59</time>
   <energy>
    <i name="e_fr_energy">   -117.16700223 </i>
    <i name="e_wo_entrp">   -117.16390982 </i>
    <i name="e_0_energy">   -117.16545603 </i>
   </energy>
  </scstep>
  <scstep>
   <time name="total">   24.68   24.92</time>
   <energy>
    <i name="e_fr_energy">   -117.16700224 </i>
    <i name="e_wo_entrp">   -117.16390986 </i>
    <i name="e_0_energy">   -117.16545605 </i>
   </energy>
  </scstep>
  <scstep>
   <time name="total">   26.50   26.74</time>
   <energy>
    <i name="e_fr_energy">   -117.16700224 </i>
    <i name="e_wo_entrp">   -117.16390990 </i>
    <i name="e_0_energy">   -117.16545607 </i>
   </energy>
  </scstep>
  <scstep>
   <time name="total">   27.45   27.69</time>
   <energy>
    <i name="e_fr_energy">   -117.16700226 </i>
    <i name="e_wo_entrp">   -117.16390989 </i>
    <i name="e_0_energy">   -117.16545607 </i>
   </energy>
  </scstep>
  <scstep>
   <time name="total">   28.18   28.43</time>
   <energy>
    <i name="e_fr_energy">   -117.16700228 </i>
    <i name="e_wo_entrp">   -117.16390987 </i>
    <i name="e_0_energy">   -117.16545608 </i>
   </energy>
  </scstep>
  <scstep>
   <time name="total">   27.91   28.16</time>
   <energy>
    <i name="e_fr_energy">   -117.16700229 </i>
    <i name="e_wo_entrp">   -117.16390986 </i>
    <i name="e_0_energy">   -117.16545607 </i>
   </energy>
  </scstep>
  <scstep>
   <time name="total">   26.91   27.16</time>
   <energy>
    <i name="e_fr_energy">   -117.16700229 </i>
    <i name="e_wo_entrp">   -117.16390982 </i>
    <i name="e_0_energy">   -117.16545605 </i>
   </energy>
  </scstep>
  <scstep>
   <time name="total">   26.50   26.74</time>
   <energy>
    <i name="e_fr_energy">   -117.16700230 </i>
    <i name="e_wo_entrp">   -117.16390987 </i>
    <i name="e_0_energy">   -117.16545608 </i>
   </energy>
  </scstep>
  <scstep>
   <time name="total">   27.41   27.67</time>
   <energy>
    <i name="e_fr_energy">   -117.16700231 </i>
    <i name="e_wo_entrp">   -117.16390988 </i>
    <i name="e_0_energy">   -117.16545609 </i>
   </energy>
  </scstep>
  <scstep>
   <time name="total">   28.04   28.29</time>
   <energy>
    <i name="e_fr_energy">   -117.16700231 </i>
    <i name="e_wo_entrp">   -117.16390988 </i>
    <i name="e_0_energy">   -117.16545609 </i>
   </energy>
  </scstep>
  <scstep>
   <time name="total">   27.34   27.59</time>
   <energy>
    <i name="e_fr_energy">   -117.16700231 </i>
    <i name="e_wo_entrp">   -117.16390988 </i>
    <i name="e_0_energy">   -117.16545610 </i>
   </energy>
  </scstep>
  <scstep>
   <time name="total">   27.34   27.60</time>
   <energy>
    <i name="e_fr_energy">   -117.16700231 </i>
    <i name="e_wo_entrp">   -117.16390988 </i>
    <i name="e_0_energy">   -117.16545609 </i>
   </energy>
  </scstep>
  <scstep>
   <time name="total">   28.90   29.15</time>
   <energy>
    <i name="e_fr_energy">   -117.16700231 </i>
    <i name="e_wo_entrp">   -117.16390988 </i>
    <i name="e_0_energy">   -117.16545610 </i>
   </energy>
  </scstep>
  <scstep>
   <time name="total">   26.18   26.42</time>
   <energy>
    <i name="e_fr_energy">   -117.16700231 </i>
    <i name="e_wo_entrp">   -117.16390987 </i>
    <i name="e_0_energy">   -117.16545609 </i>
   </energy>
  </scstep>
  <scstep>
