 vasp.6.2.0 18Jan21 (build Jan 05 2022 15:41:44) complex                        
  
 executed on             LinuxIFC date 2025.05.07  17:19:13
 running on   24 total cores
 distrk:  each k-point on   12 cores,    2 groups
 distr:  one band on NCORE=   2 cores,    6 groups


--------------------------------------------------------------------------------------------------------


 INCAR:
   SYSTEM = routine with relax: pwdword
   ICHARG = 2
   NPAR = 6
   KPAR = 2
   NCORE = 2
   ADDGRID = T
   PREC = Acc
   ENCUT = 600
   METAGGA = R2SCAN
   LASPH = .TRUE.
   LMIXTAU = .FALSE.
   ALGO = A
   EDIFF = 1E-9
   NELM = 100
   NELMIN = 6
   IALGO = 38
   LREAL = F
   NSW = 0
   ISIF = -1
   ISMEAR = 0
   SIGMA = 0.02
   SYMPREC = 1E-4

 POTCAR:    PAW_PBE B 06Sep2000                   
 POTCAR:    PAW_PBE Mo_sv 02Feb2006               
 POTCAR:    PAW_PBE Si 05Jan2001                  
 -----------------------------------------------------------------------------
|                                                                             |
|           W    W    AA    RRRRR   N    N  II  N    N   GGGG   !!!           |
|           W    W   A  A   R    R  NN   N  II  NN   N  G    G  !!!           |
|           W    W  A    A  R    R  N N  N  II  N N  N  G       !!!           |
|           W WW W  AAAAAA  RRRRR   N  N N  II  N  N N  G  GGG   !            |
|           WW  WW  A    A  R   R   N   NN  II  N   NN  G    G                |
|           W    W  A    A  R    R  N    N  II  N    N   GGGG   !!!           |
|                                                                             |
|     For optimal performance we recommend to set                             |
|       NCORE = 2 up to number-of-cores-per-socket                            |
|     NCORE specifies how many cores store one orbital (NPAR=cpu/NCORE).      |
|     This setting can greatly improve the performance of VASP for DFT.       |
|     The default, NCORE=1 might be grossly inefficient on modern             |
|     multi-core architectures or massively parallel machines. Do your        |
|     own testing! More info at https://www.vasp.at/wiki/index.php/NCORE      |
|     Unfortunately you need to use the default for GW and RPA                |
|     calculations (for HF NCORE is supported but not extensively tested      |
|     yet).                                                                   |
|                                                                             |
 -----------------------------------------------------------------------------

 POTCAR:    PAW_PBE B 06Sep2000                   
   VRHFIN =B: s2p1                                                                                  
   LEXCH  = PE                                                                                      
   EATOM  =    71.1703 eV,    5.2309 Ry                                                             
                                                                                                    
   TITEL  = PAW_PBE B 06Sep2000                                                                     
   LULTRA =        F    use ultrasoft PP ?                                                          
   IUNSCR =        1    unscreen: 0-lin 1-nonlin 2-no                                               
   RPACOR =    1.200    partial core radius                                                         
   POMASS =   10.811; ZVAL   =    3.000    mass and valenz                                          
   RCORE  =    1.700    outmost cutoff radius                                                       
   RWIGS  =    1.710; RWIGS  =    0.905    wigner-seitz radius (au A)                               
   ENMAX  =  318.614; ENMIN  =  238.960 eV                                                          
   ICORE  =        2    local potential                                                             
   LCOR   =        T    correct aug charges                                                         
   LPAW   =        T    paw PP                                                                      
   EAUG   =  535.514                                                                                
   DEXC   =    0.000                                                                                
   RMAX   =    1.732    core radius for proj-oper                                                   
   RAUG   =    1.300    factor for augmentation sphere                                              
   RDEP   =    1.757    radius for radial grids                                                     
   RDEPT  =    1.436    core radius for aug-charge                                                  
                                                                                                    
   Atomic configuration                                                                             
    4 entries                                                                                       
     n  l   j            E        occ.                                                              
     1  0  0.50      -180.5896   2.0000                                                             
     2  0  0.50        -9.4431   2.0000                                                             
     2  1  0.50        -3.6068   1.0000                                                             
     3  2  1.50        -4.0817   0.0000                                                             
   Description                                                                                      
     l       E           TYP  RCUT    TYP  RCUT                                                     
     0     -9.4430752     23  1.500                                                                 
     0      0.8675899     23  1.500                                                                 
     1     -3.6067955     23  1.700                                                                 
     1      6.1086146     23  1.700                                                                 
     2     -4.0817478      7  1.700                                                                 
  local pseudopotential read in
  partial core-charges read in
  partial kinetic energy density read in
  atomic valenz-charges read in
  non local Contribution for L=           0  read in
    real space projection operators read in
  non local Contribution for L=           0  read in
    real space projection operators read in
  non local Contribution for L=           1  read in
    real space projection operators read in
  non local Contribution for L=           1  read in
    real space projection operators read in
    PAW grid and wavefunctions read in
 
   number of l-projection  operators is LMAX  =           4
   number of lm-projection operators is LMMAX =           8
 
 POTCAR:    PAW_PBE Mo_sv 02Feb2006               
   VRHFIN =Mo: 4p5s4d                                                                               
   LEXCH  = PE                                                                                      
   EATOM  =  1862.2866 eV,  136.8742 Ry                                                             
                                                                                                    
   TITEL  = PAW_PBE Mo_sv 02Feb2006                                                                 
   LULTRA =        F    use ultrasoft PP ?                                                          
   IUNSCR =        1    unscreen: 0-lin 1-nonlin 2-no                                               
   RPACOR =    2.200    partial core radius                                                         
   POMASS =   95.940; ZVAL   =   14.000    mass and valenz                                          
   RCORE  =    2.500    outmost cutoff radius                                                       
   RWIGS  =    2.750; RWIGS  =    1.455    wigner-seitz radius (au A)                               
   ENMAX  =  242.676; ENMIN  =  182.007 eV                                                          
   ICORE  =        3    local potential                                                             
   LCOR   =        T    correct aug charges                                                         
   LPAW   =        T    paw PP                                                                      
   EAUG   =  446.014                                                                                
   DEXC   =    0.000                                                                                
   RMAX   =    2.563    core radius for proj-oper                                                   
   RAUG   =    1.300    factor for augmentation sphere                                              
   RDEP   =    2.641    radius for radial grids                                                     
   RDEPT  =    2.031    core radius for aug-charge                                                  
                                                                                                    
   Atomic configuration                                                                             
   11 entries                                                                                       
     n  l   j            E        occ.                                                              
     1  0  0.50    -19819.0341   2.0000                                                             
     2  0  0.50     -2799.0127   2.0000                                                             
     2  1  1.50     -2502.0276   6.0000                                                             
     3  0  0.50      -476.4449   2.0000                                                             
     3  1  1.50      -379.1496   6.0000                                                             
     3  2  2.50      -220.9367  10.0000                                                             
     4  0  0.50       -64.3378   2.0000                                                             
     5  0  0.50        -4.0862   1.0000                                                             
     4  1  1.50       -38.4773   6.0000                                                             
     4  2  2.50        -3.7535   5.0000                                                             
     4  3  2.50        -1.3606   0.0000                                                             
   Description                                                                                      
     l       E           TYP  RCUT    TYP  RCUT                                                     
     0    -64.3377829     23  2.100                                                                 
     0     -4.0861640     23  2.400                                                                 
     1    -38.4772993     23  2.100                                                                 
     1     13.6058260     23  2.100                                                                 
     2     -3.7534941     23  2.400                                                                 
     2     -5.1140767     23  2.400                                                                 
     3     -4.0817478     23  2.500                                                                 
  local pseudopotential read in
  partial core-charges read in
  partial kinetic energy density read in
  atomic valenz-charges read in
  non local Contribution for L=           0  read in
    real space projection operators read in
  non local Contribution for L=           0  read in
    real space projection operators read in
  non local Contribution for L=           1  read in
    real space projection operators read in
  non local Contribution for L=           1  read in
    real space projection operators read in
  non local Contribution for L=           2  read in
    real space projection operators read in
  non local Contribution for L=           2  read in
    real space projection operators read in
    PAW grid and wavefunctions read in
 
   number of l-projection  operators is LMAX  =           6
   number of lm-projection operators is LMMAX =          18
 
 POTCAR:    PAW_PBE Si 05Jan2001                  
   VRHFIN =Si: s2p2                                                                                 
   LEXCH  = PE                                                                                      
   EATOM  =   103.0669 eV,    7.5752 Ry                                                             
                                                                                                    
   TITEL  = PAW_PBE Si 05Jan2001                                                                    
   LULTRA =        F    use ultrasoft PP ?                                                          
   IUNSCR =        1    unscreen: 0-lin 1-nonlin 2-no                                               
   RPACOR =    1.500    partial core radius                                                         
   POMASS =   28.085; ZVAL   =    4.000    mass and valenz                                          
   RCORE  =    1.900    outmost cutoff radius                                                       
   RWIGS  =    2.480; RWIGS  =    1.312    wigner-seitz radius (au A)                               
   ENMAX  =  245.345; ENMIN  =  184.009 eV                                                          
   ICORE  =        2    local potential                                                             
   LCOR   =        T    correct aug charges                                                         
   LPAW   =        T    paw PP                                                                      
   EAUG   =  322.069                                                                                
   DEXC   =    0.000                                                                                
   RMAX   =    1.950    core radius for proj-oper                                                   
   RAUG   =    1.300    factor for augmentation sphere                                              
   RDEP   =    1.993    radius for radial grids                                                     
   RDEPT  =    1.837    core radius for aug-charge                                                  
                                                                                                    
   Atomic configuration                                                                             
    6 entries                                                                                       
     n  l   j            E        occ.                                                              
     1  0  0.50     -1785.8828   2.0000                                                             
     2  0  0.50      -139.4969   2.0000                                                             
     2  1  1.50       -95.5546   6.0000                                                             
     3  0  0.50       -10.8127   2.0000                                                             
     3  1  0.50        -4.0811   2.0000                                                             
     3  2  1.50        -4.0817   0.0000                                                             
   Description                                                                                      
     l       E           TYP  RCUT    TYP  RCUT                                                     
     0    -10.8127223     23  1.900                                                                 
     0     -7.6451159     23  1.900                                                                 
     1     -4.0811372     23  1.900                                                                 
     1      2.4879257     23  1.900                                                                 
     2     -4.0817478      7  1.900                                                                 
  local pseudopotential read in
  partial core-charges read in
  partial kinetic energy density read in
  atomic valenz-charges read in
  non local Contribution for L=           0  read in
    real space projection operators read in
  non local Contribution for L=           0  read in
    real space projection operators read in
  non local Contribution for L=           1  read in
    real space projection operators read in
  non local Contribution for L=           1  read in
    real space projection operators read in
    PAW grid and wavefunctions read in
 
   number of l-projection  operators is LMAX  =           4
   number of lm-projection operators is LMMAX =           8
 
 -----------------------------------------------------------------------------
|                                                                             |
|               ----> ADVICE to this user running VASP <----                  |
|                                                                             |
|     You have a (more or less) 'large supercell' and for larger cells it     |
|     might be more efficient to use real-space projection operators.         |
|     Therefore, try LREAL= Auto in the INCAR file.                           |
|     Mind: For very accurate calculation, you might also keep the            |
|     reciprocal projection scheme (i.e. LREAL=.FALSE.).                      |
|                                                                             |
 -----------------------------------------------------------------------------

  PAW_PBE B 06Sep2000                   :
 energy of atom  1       EATOM=  -71.1703
 kinetic energy error for atom=    0.0007 (will be added to EATOM!!)
  PAW_PBE Mo_sv 02Feb2006               :
 energy of atom  2       EATOM=-1862.2866
 kinetic energy error for atom=    0.0041 (will be added to EATOM!!)
  PAW_PBE Si 05Jan2001                  :
 energy of atom  3       EATOM= -103.0669
 kinetic energy error for atom=    0.0003 (will be added to EATOM!!)
 
 
 POSCAR: EA91
  positions in direct lattice
  No initial velocities read in

 METAGGA = R2SCA    LMAXTAU =  6    LMIXTAU =  F

 exchange correlation table for  LEXCH =        8
   RHO(1)=    0.500       N(1)  =     2000
   RHO(2)=  100.500       N(2)  =     4000
 


--------------------------------------------------------------------------------------------------------


 ion  position               nearest neighbor table
   1  0.168  0.668  0.835-  27 1.73   8 1.99  22 1.99  24 1.99  17 1.99  23 2.76  11 2.76
   2  0.832  0.332  0.165-  26 1.73   9 1.99  21 1.99   5 1.99  15 1.99  23 2.76  11 2.76
   3  0.668  0.832  0.500-  25 1.73  16 1.99  10 1.99  20 1.99   6 1.99  14 2.76   7 2.76
   4  0.332  0.168  0.500-  28 1.73  13 1.99  12 1.99  19 1.99  18 1.99  14 2.76   7 2.76
   5  0.594  0.323  0.181-   2 1.99  11 2.22  13 2.55  25 2.67  21 2.69  26 2.71  15 2.93   7 2.94
                            20 2.94  12 2.94  24 3.34
   6  0.906  0.087  0.729-   3 1.99  14 2.22  22 2.55  26 2.67  16 2.69  25 2.71  10 2.93  23 2.94
                            24 2.94   9 2.94  12 3.34
   7  0.500  0.500  0.500-  19 2.22  20 2.22  13 2.22  16 2.22  25 2.64  28 2.64   3 2.76   4 2.76
                             5 2.94  17 2.94   9 2.94   8 2.94
   8  0.913  0.642  0.819-   1 1.99  23 2.22  19 2.55  25 2.66  24 2.69  27 2.71  22 2.93   7 2.94
                            16 2.94  18 2.94  21 3.34
   9  0.087  0.358  0.181-   2 1.99  23 2.22  20 2.55  28 2.66  15 2.69  26 2.71  21 2.93   7 2.94
                            13 2.94   6 2.94  22 3.34
  10  0.677  0.858  0.271-   3 1.99  14 2.22  15 2.55  27 2.66  20 2.69  25 2.71   6 2.93  11 2.94
                            21 2.94  17 2.94  18 3.34
  11  0.500  0.000  0.000-   5 2.22  15 2.22  17 2.22  24 2.22  26 2.64  27 2.64   1 2.76   2 2.76
                            12 2.94  13 2.94  10 2.94  16 2.94
  12  0.323  0.142  0.729-   4 1.99  14 2.22  24 2.55  26 2.66  19 2.69  28 2.71  18 2.93  11 2.94
                            22 2.94   5 2.94   6 3.34
  13  0.358  0.177  0.271-   4 1.99   7 2.22   5 2.55  27 2.66  18 2.69  28 2.71  19 2.93  11 2.94
                             9 2.94  24 2.94  20 3.34
  14  0.000  0.000  0.500-   6 2.22  18 2.22  12 2.22  10 2.22  25 2.64  28 2.64   3 2.76   4 2.76
                            15 2.94  24 2.94  22 2.94  21 2.94
  15  0.823  0.094  0.181-   2 1.99  11 2.22  10 2.55  28 2.67   9 2.69  26 2.71   5 2.93  14 2.94
                            18 2.94  16 2.94  17 3.34
  16  0.642  0.823  0.729-   3 1.99   7 2.22  17 2.55  26 2.66   6 2.69  25 2.71  20 2.93  11 2.94
                             8 2.94  15 2.94  19 3.34
  17  0.406  0.677  0.819-   1 1.99  11 2.22  16 2.55  28 2.67  22 2.69  27 2.71  24 2.93   7 2.94
                            19 2.94  10 2.94  15 3.34
  18  0.094  0.913  0.271-   4 1.99  14 2.22  21 2.55  27 2.67  13 2.69  28 2.71  12 2.93  23 2.94
                            15 2.94   8 2.94  10 3.34
  19  0.587  0.406  0.729-   4 1.99   7 2.22   8 2.55  26 2.67  12 2.69  28 2.71  13 2.93  23 2.94
                            17 2.94  21 2.94  16 3.34
  20  0.413  0.594  0.271-   3 1.99   7 2.22   9 2.55  27 2.67  10 2.69  25 2.71  16 2.93  23 2.94
                             5 2.94  22 2.94  13 3.34
  21  0.858  0.587  0.181-   2 1.99  23 2.22  18 2.55  25 2.66   5 2.69  26 2.71   9 2.93  14 2.94
                            10 2.94  19 2.94   8 3.34
  22  0.142  0.413  0.819-   1 1.99  23 2.22   6 2.55  28 2.66  17 2.69  27 2.71   8 2.93  14 2.94
                            12 2.94  20 2.94   9 3.34
  23  0.000  0.500  0.000-   8 2.22   9 2.22  21 2.22  22 2.22  26 2.64  27 2.64   1 2.76   2 2.76
                             6 2.94  18 2.94  19 2.94  20 2.94
  24  0.177  0.906  0.819-   1 1.99  11 2.22  12 2.55  25 2.67   8 2.69  27 2.71  17 2.93  14 2.94
                             6 2.94  13 2.94   5 3.34
  25  0.803  0.697  0.500-   3 1.73   7 2.64  14 2.64   8 2.66  21 2.66   5 2.67  24 2.67  10 2.71
                            16 2.71   6 2.71  20 2.71
  26  0.697  0.197  0.894-   2 1.73  11 2.64  23 2.64  16 2.66  12 2.66  19 2.67   6 2.67  21 2.71
                             9 2.71   5 2.71  15 2.71
  27  0.303  0.803  0.106-   1 1.73  11 2.64  23 2.64  13 2.66  10 2.66  20 2.67  18 2.67  22 2.71
                             8 2.71  17 2.71  24 2.71
  28  0.197  0.303  0.500-   4 1.73   7 2.64  14 2.64   9 2.66  22 2.66  17 2.67  15 2.67  12 2.71
                            13 2.71  19 2.71  18 2.71
 
  LATTYP: Found a body centered tetragonal cell.
 ALAT       =     9.0460732819
 C/A-ratio  =     1.1298318837
  
  Lattice vectors:
  
 A1 = (   7.5402972704,   0.0000000000,  -3.1896447179)
 A2 = (  -3.3120723672,   6.7739397370,  -3.1896447179)
 A3 = (   0.0000000000,   0.0000000000,   8.1871800000)


Analysis of symmetry for initial positions (statically):
=====================================================================
 Subroutine PRICEL returns:
 Original cell was already a primitive cell.
 

 Routine SETGRP: Setting up the symmetry group for a 
 body centered tetragonal supercell.


 Subroutine GETGRP returns: Found 16 space group operations
 (whereof  8 operations were pure point group operations)
 out of a pool of 16 trial point group operations.


The static configuration has the point symmetry C_4h.
 The point group associated with its full space group is D_4h.


Analysis of symmetry for dynamics (positions and initial velocities):
=====================================================================
 Subroutine PRICEL returns:
 Original cell was already a primitive cell.
 

 Routine SETGRP: Setting up the symmetry group for a 
 body centered tetragonal supercell.


 Subroutine GETGRP returns: Found 16 space group operations
 (whereof  8 operations were pure point group operations)
 out of a pool of 16 trial point group operations.


The dynamic configuration has the point symmetry C_4h.
 The point group associated with its full space group is D_4h.


 Subroutine INISYM returns: Found 16 space group operations
 (whereof  8 operations are pure point group operations),
 and found     1 'primitive' translations


----------------------------------------------------------------------------------------

                                     Primitive cell                                     

  volume of cell :     418.1808

  direct lattice vectors                    reciprocal lattice vectors
     7.540297270  0.000000000 -3.189644718     0.132620766  0.064844033  0.000000000
    -3.312072367  6.773939737 -3.189644718     0.000000000  0.147624579  0.000000000
     0.000000000  0.000000000  8.187180000     0.051667745  0.082775679  0.122142178

  length of vectors
     8.187180000  8.187180000  8.187180000     0.147624579  0.147624579  0.156333236

  position of ions in fractional coordinates (direct lattice)
     0.167600000  0.667600000  0.835200000
     0.832400000  0.332400000  0.164800000
     0.667600000  0.832400000  0.500000000
     0.332400000  0.167600000  0.500000000
     0.593860000  0.323190000  0.180700000
     0.906140000  0.086830000  0.729320000
     0.500000000  0.500000000  0.500000000
     0.913170000  0.642490000  0.819300000
     0.086830000  0.357510000  0.180700000
     0.676810000  0.857510000  0.270680000
     0.500000000  0.000000000  0.000000000
     0.323190000  0.142490000  0.729320000
     0.357510000  0.176810000  0.270680000
     0.000000000  0.000000000  0.500000000
     0.823190000  0.093860000  0.180700000
     0.642490000  0.823190000  0.729320000
     0.406140000  0.676810000  0.819300000
     0.093860000  0.913170000  0.270680000
     0.586830000  0.406140000  0.729320000
     0.413170000  0.593860000  0.270680000
     0.857510000  0.586830000  0.180700000
     0.142490000  0.413170000  0.819300000
     0.000000000  0.500000000  0.000000000
     0.176810000  0.906140000  0.819300000
     0.802780000  0.697220000  0.500000000
     0.697220000  0.197220000  0.894440000
     0.302780000  0.802780000  0.105560000
     0.197220000  0.302780000  0.500000000

  ion indices of the primitive-cell ions
   primitive index   ion index
                 1           1
                 2           2
                 3           3
                 4           4
                 5           5
                 6           6
                 7           7
                 8           8
                 9           9
                10          10
                11          11
                12          12
                13          13
                14          14
                15          15
                16          16
                17          17
                18          18
                19          19
                20          20
                21          21
                22          22
                23          23
                24          24
                25          25
                26          26
                27          27
                28          28

----------------------------------------------------------------------------------------

 
 
 KPOINTS: EA                                      

Automatic generation of k-mesh.
 Grid dimensions read from file:
 generate k-points for:    5    5    6

 Generating k-lattice:

  Cartesian coordinates                     Fractional coordinates (reciprocal lattice)
     0.026524153  0.012968807  0.000000000     0.200000000  0.000000000  0.000000000
     0.000000000  0.029524916  0.000000000     0.000000000  0.200000000  0.000000000
     0.008611291  0.013795947  0.020357030     0.000000000  0.000000000  0.166666667

  Length of vectors
     0.029524916  0.029524916  0.026055539

  Shift w.r.t. Gamma in fractional coordinates (k-lattice)
     0.000000000  0.000000000  0.000000000

 -----------------------------------------------------------------------------
|                                                                             |
|           W    W    AA    RRRRR   N    N  II  N    N   GGGG   !!!           |
|           W    W   A  A   R    R  NN   N  II  NN   N  G    G  !!!           |
|           W    W  A    A  R    R  N N  N  II  N N  N  G       !!!           |
|           W WW W  AAAAAA  RRRRR   N  N N  II  N  N N  G  GGG   !            |
|           WW  WW  A    A  R   R   N   NN  II  N   NN  G    G                |
|           W    W  A    A  R    R  N    N  II  N    N   GGGG   !!!           |
|                                                                             |
|     Your reciprocal lattice and k-lattice belong to different lattice       |
|     classes:                                                                |
|                                                                             |
|        The reciprocal lattice is body-centered tetragonal,                  |
|        whereas your k-lattice is base-centered monoclinic.                  |
|                                                                             |
|     Results are often still useful ...                                      |
|                                                                             |
 -----------------------------------------------------------------------------

 WARNING: IBZKPT: internal override: KBLOWUP is changed to .FALSE.
      ... skipping the blow-up phase ...

 
 Subroutine IBZKPT returns following result:
 ===========================================
 
 Found     48 irreducible k-points:
 
 Following reciprocal coordinates:
            Coordinates               Weight
  0.000000  0.000000  0.000000      1.000000
  0.200000  0.000000  0.000000      4.000000
  0.400000  0.000000  0.000000      4.000000
  0.200000  0.200000  0.000000      2.000000
  0.400000  0.200000  0.000000      4.000000
 -0.400000  0.200000  0.000000      4.000000
 -0.200000  0.200000  0.000000      2.000000
  0.400000  0.400000  0.000000      2.000000
 -0.400000  0.400000  0.000000      2.000000
 -0.000000  0.000000  0.166667      2.000000
  0.200000  0.000000  0.166667      4.000000
  0.400000  0.000000  0.166667      4.000000
 -0.400000 -0.000000  0.166667      4.000000
 -0.200000 -0.000000  0.166667      4.000000
  0.200000  0.200000  0.166667      2.000000
  0.400000  0.200000  0.166667      4.000000
 -0.400000  0.200000  0.166667      4.000000
 -0.200000  0.200000  0.166667      4.000000
  0.400000  0.400000  0.166667      2.000000
 -0.400000  0.400000  0.166667      4.000000
 -0.200000  0.400000  0.166667      4.000000
 -0.400000 -0.400000  0.166667      2.000000
 -0.200000 -0.400000  0.166667      4.000000
 -0.200000 -0.200000  0.166667      2.000000
  0.000000  0.000000  0.333333      2.000000
  0.200000  0.000000  0.333333      4.000000
  0.400000  0.000000  0.333333      4.000000
 -0.400000  0.000000  0.333333      4.000000
 -0.200000  0.000000  0.333333      4.000000
  0.200000  0.200000  0.333333      2.000000
  0.400000  0.200000  0.333333      4.000000
 -0.400000  0.200000  0.333333      4.000000
 -0.200000  0.200000  0.333333      4.000000
  0.400000  0.400000  0.333333      2.000000
 -0.400000  0.400000  0.333333      4.000000
 -0.200000  0.400000  0.333333      4.000000
 -0.400000 -0.400000  0.333333      2.000000
 -0.200000 -0.400000  0.333333      4.000000
 -0.200000 -0.200000  0.333333      2.000000
 -0.000000  0.000000  0.500000      1.000000
  0.200000  0.000000  0.500000      4.000000
  0.400000  0.000000  0.500000      4.000000
  0.200000  0.200000  0.500000      2.000000
  0.400000  0.200000  0.500000      4.000000
 -0.400000  0.200000  0.500000      4.000000
 -0.200000  0.200000  0.500000      2.000000
  0.400000  0.400000  0.500000      2.000000
 -0.400000  0.400000  0.500000      2.000000
 
 Following cartesian coordinates:
            Coordinates               Weight
  0.000000  0.000000  0.000000      1.000000
  0.026524  0.012969  0.000000      4.000000
  0.053048  0.025938  0.000000      4.000000
  0.026524  0.042494  0.000000      2.000000
  0.053048  0.055463  0.000000      4.000000
 -0.053048  0.003587  0.000000      4.000000
 -0.026524  0.016556  0.000000      2.000000
  0.053048  0.084987  0.000000      2.000000
 -0.053048  0.033112  0.000000      2.000000
  0.008611  0.013796  0.020357      2.000000
  0.035135  0.026765  0.020357      4.000000
  0.061660  0.039734  0.020357      4.000000
 -0.044437 -0.012142  0.020357      4.000000
 -0.017913  0.000827  0.020357      4.000000
  0.035135  0.056290  0.020357      2.000000
  0.061660  0.069258  0.020357      4.000000
 -0.044437  0.017383  0.020357      4.000000
 -0.017913  0.030352  0.020357      4.000000
  0.061660  0.098783  0.020357      2.000000
 -0.044437  0.046908  0.020357      4.000000
 -0.017913  0.059877  0.020357      4.000000
 -0.044437 -0.071191  0.020357      2.000000
 -0.017913 -0.058223  0.020357      4.000000
 -0.017913 -0.028698  0.020357      2.000000
  0.017223  0.027592  0.040714      2.000000
  0.043747  0.040561  0.040714      4.000000
  0.070271  0.053530  0.040714      4.000000
 -0.035826  0.001654  0.040714      4.000000
 -0.009302  0.014623  0.040714      4.000000
  0.043747  0.070086  0.040714      2.000000
  0.070271  0.083054  0.040714      4.000000
 -0.035826  0.031179  0.040714      4.000000
 -0.009302  0.044148  0.040714      4.000000
  0.070271  0.112579  0.040714      2.000000
 -0.035826  0.060704  0.040714      4.000000
 -0.009302  0.073673  0.040714      4.000000
 -0.035826 -0.057396  0.040714      2.000000
 -0.009302 -0.044427  0.040714      4.000000
 -0.009302 -0.014902  0.040714      2.000000
  0.025834  0.041388  0.061071      1.000000
  0.052358  0.054357  0.061071      4.000000
  0.078882  0.067325  0.061071      4.000000
  0.052358  0.083882  0.061071      2.000000
  0.078882  0.096850  0.061071      4.000000
 -0.027214  0.044975  0.061071      4.000000
 -0.000690  0.057944  0.061071      2.000000
  0.078882  0.126375  0.061071      2.000000
 -0.027214  0.074500  0.061071      2.000000
 


--------------------------------------------------------------------------------------------------------




 Dimension of arrays:
   k-points           NKPTS =     48   k-points in BZ     NKDIM =     48   number of bands    NBANDS=    186
   number of dos      NEDOS =    301   number of ions     NIONS =     28
   non local maximal  LDIM  =      6   non local SUM 2l+1 LMDIM =     18
   total plane-waves  NPLWV = 343000
   max r-space proj   IRMAX =      1   max aug-charges    IRDMAX= 287122
   dimension x,y,z NGX =    70 NGY =   70 NGZ =   70
   dimension x,y,z NGXF=   140 NGYF=  140 NGZF=  140
   support grid    NGXF=   280 NGYF=  280 NGZF=  280
   ions per type =               4  20   4
   NGX,Y,Z   is equivalent  to a cutoff of  14.21, 14.21, 14.21 a.u.
   NGXF,Y,Z  is equivalent  to a cutoff of  28.43, 28.43, 28.43 a.u.

 SYSTEM =  routine with relax: pwdword             
 POSCAR =  EA91                                    

 Startparameter for this run:
   NWRITE =      2    write-flag & timer
   PREC   = acc       normal or accurate (medium, high low for compatibility)
   ISTART =      0    job   : 0-new  1-cont  2-samecut
   ICHARG =      2    charge: 1-file 2-atom 10-const
   ISPIN  =      1    spin polarized calculation?
   LNONCOLLINEAR =      F non collinear calculations
   LSORBIT =      F    spin-orbit coupling
   INIWAV =      1    electr: 0-lowe 1-rand  2-diag
   LASPH  =      T    aspherical Exc in radial PAW
   METAGGA=      F    non-selfconsistent MetaGGA calc.

 Electronic Relaxation 1
   ENCUT  =  600.0 eV  44.10 Ry    6.64 a.u.  16.35 16.35 16.35*2*pi/ulx,y,z
   ENINI  =  600.0     initial cutoff
   ENAUG  =  535.5 eV  augmentation charge cutoff
   NELM   =    100;   NELMIN=  6; NELMDL= -5     # of ELM steps 
   EDIFF  = 0.1E-08   stopping-criterion for ELM
   LREAL  =      F    real-space projection
   NLSPLINE    = F    spline interpolate recip. space projectors
   LCOMPAT=      F    compatible to vasp.4.4
   GGA_COMPAT  = T    GGA compatible to vasp.4.4-vasp.4.6
   LMAXPAW     = -100 max onsite density
   LMAXMIX     =    2 max onsite mixed and CHGCAR
   VOSKOWN=      0    Vosko Wilk Nusair interpolation
   ROPT   =    0.00000   0.00000   0.00000
 Ionic relaxation
   EDIFFG = 0.1E-07   stopping-criterion for IOM
   NSW    =      0    number of steps for IOM
   NBLOCK =      1;   KBLOCK =      1    inner block; outer block 
   IBRION =     -1    ionic relax: 0-MD 1-quasi-New 2-CG
   NFREE  =      0    steps in history (QN), initial steepest desc. (CG)
   ISIF   =     -1    stress and relaxation
   IWAVPR =     10    prediction:  0-non 1-charg 2-wave 3-comb
   ISYM   =      2    0-nonsym 1-usesym 2-fastsym
   LCORR  =      T    Harris-Foulkes like correction to forces

   POTIM  = 0.5000    time-step for ionic-motion
   TEIN   =    0.0    initial temperature
   TEBEG  =    0.0;   TEEND  =   0.0 temperature during run
   SMASS  =  -3.00    Nose mass-parameter (am)
   estimated Nose-frequenzy (Omega)   =  0.10E-29 period in steps = 0.13E+47 mass=  -0.153E-26a.u.
   SCALEE = 1.0000    scale energy and forces
   NPACO  =    256;   APACO  = 16.0  distance and # of slots for P.C.
   PSTRESS=    0.0 pullay stress

  Mass of Ions in am
   POMASS =  10.81 95.94 28.09
  Ionic Valenz
   ZVAL   =   3.00 14.00  4.00
  Atomic Wigner-Seitz radii
   RWIGS  =  -1.00 -1.00 -1.00
  virtual crystal weights 
   VCA    =   1.00  1.00  1.00
   NELECT =     308.0000    total number of electrons
   NUPDOWN=      -1.0000    fix difference up-down

 DOS related values:
   EMIN   =  10.00;   EMAX   =-10.00  energy-range for DOS
   EFERMI =   0.00
   ISMEAR =     0;   SIGMA  =   0.02  broadening in eV -4-tet -1-fermi 0-gaus

 Electronic relaxation 2 (details)
   IALGO  =     58    algorithm
   LDIAG  =      T    sub-space diagonalisation (order eigenvalues)
   LSUBROT=      F    optimize rotation matrix (better conditioning)
   TURBO    =      0    0=normal 1=particle mesh
   IRESTART =      0    0=no restart 2=restart with 2 vectors
   NREBOOT  =      0    no. of reboots
   NMIN     =      0    reboot dimension
   EREF     =   0.00    reference energy to select bands
   IMIX   =      4    mixing-type and parameters
     AMIX     =   0.40;   BMIX     =  1.00
     AMIX_MAG =   1.60;   BMIX_MAG =  1.00
     AMIN     =   0.10
     WC   =   100.;   INIMIX=   1;  MIXPRE=   1;  MAXMIX= -45

 Intra band minimization:
   WEIMIN = 0.0000     energy-eigenvalue tresh-hold
   EBREAK =  0.13E-11  absolut break condition
   DEPER  =   0.30     relativ break condition  

   TIME   =   0.40     timestep for ELM

  volume/ion in A,a.u.               =      14.94       100.79
  Fermi-wavevector in a.u.,A,eV,Ry     =   1.478440  2.793846 29.739406  2.185785
  Thomas-Fermi vector in A             =   2.592721
 
 Write flags
   LWAVE        =      T    write WAVECAR
   LDOWNSAMPLE  =      F    k-point downsampling of WAVECAR
   LCHARG       =      T    write CHGCAR
   LVTOT        =      F    write LOCPOT, total local potential
   LVHAR        =      F    write LOCPOT, Hartree potential only
   LELF         =      F    write electronic localiz. function (ELF)
   LORBIT       =      0    0 simple, 1 ext, 2 COOP (PROOUT), +10 PAW based schemes


 Dipole corrections
   LMONO  =      F    monopole corrections only (constant potential shift)
   LDIPOL =      F    correct potential (dipole corrections)
   IDIPOL =      0    1-x, 2-y, 3-z, 4-all directions 
   EPSILON=  1.0000000 bulk dielectric constant

 Exchange correlation treatment:
   GGA     =    --    GGA type
   LEXCH   =     8    internal setting for exchange type
   VOSKOWN=      0    Vosko Wilk Nusair interpolation
   LHFCALC =     F    Hartree Fock is set to
   LHFONE  =     F    Hartree Fock one center treatment
   AEXX    =    0.0000 exact exchange contribution

 Linear response parameters
   LEPSILON=     F    determine dielectric tensor
   LRPA    =     F    only Hartree local field effects (RPA)
   LNABLA  =     F    use nabla operator in PAW spheres
   LVEL    =     F    velocity operator in full k-point grid
   LINTERFAST=   F  fast interpolation
   KINTER  =     0    interpolate to denser k-point grid
   CSHIFT  =0.1000    complex shift for real part using Kramers Kronig
   OMEGAMAX=  -1.0    maximum frequency
   DEG_THRESHOLD= 0.2000000E-02 threshold for treating states as degnerate
   RTIME   =   -0.100 relaxation time in fs
  (WPLASMAI=    0.000 imaginary part of plasma frequency in eV, 0.658/RTIME)
   DFIELD  = 0.0000000 0.0000000 0.0000000 field for delta impulse in time
 
 Orbital magnetization related:
   ORBITALMAG=     F  switch on orbital magnetization
   LCHIMAG   =     F  perturbation theory with respect to B field
   DQ        =  0.001000  dq finite difference perturbation B field
   LLRAUG    =     F  two centre corrections for induced B field



--------------------------------------------------------------------------------------------------------


 Static calculation
 charge density and potential will be updated during run
 non-spin polarized calculation
 Conjugate gradient for all bands (Freysoldt, et al. PRB 79, 241103 (2009))
 preconditioned conjugated gradient                                        
 perform sub-space diagonalisation
    before iterative eigenvector-optimisation
 modified Broyden-mixing scheme, WC =      100.0
 initial mixing is a Kerker type mixing with AMIX =  0.4000 and BMIX =      1.0000
 Hartree-type preconditioning will be used
 using additional bands           32
 reciprocal scheme for non local part
 use partial core corrections
 no Harris-corrections to forces 
 use gradient corrections 
 use of overlap-Matrix (Vanderbilt PP)
 Gauss-broadening in eV      SIGMA  =   0.02


--------------------------------------------------------------------------------------------------------


  energy-cutoff  :      600.00
  volume of cell :      418.18
      direct lattice vectors                 reciprocal lattice vectors
     7.540297270  0.000000000 -3.189644718     0.132620766  0.064844033  0.000000000
    -3.312072367  6.773939737 -3.189644718     0.000000000  0.147624579  0.000000000
     0.000000000  0.000000000  8.187180000     0.051667745  0.082775679  0.122142178

  length of vectors
     8.187180000  8.187180000  8.187180000     0.147624579  0.147624579  0.156333236


 
 k-points in units of 2pi/SCALE and weight: EA                                      
   0.00000000  0.00000000  0.00000000       0.007
   0.02652415  0.01296881  0.00000000       0.027
   0.05304831  0.02593761  0.00000000       0.027
   0.02652415  0.04249372  0.00000000       0.013
   0.05304831  0.05546253  0.00000000       0.027
  -0.05304831  0.00358730  0.00000000       0.027
  -0.02652415  0.01655611  0.00000000       0.013
   0.05304831  0.08498744  0.00000000       0.013
  -0.05304831  0.03311222  0.00000000       0.013
   0.00861129  0.01379595  0.02035703       0.013
   0.03513544  0.02676475  0.02035703       0.027
   0.06165960  0.03973356  0.02035703       0.027
  -0.04443702 -0.01214167  0.02035703       0.027
  -0.01791286  0.00082714  0.02035703       0.027
   0.03513544  0.05628967  0.02035703       0.013
   0.06165960  0.06925848  0.02035703       0.027
  -0.04443702  0.01738325  0.02035703       0.027
  -0.01791286  0.03035206  0.02035703       0.027
   0.06165960  0.09878339  0.02035703       0.013
  -0.04443702  0.04690816  0.02035703       0.027
  -0.01791286  0.05987697  0.02035703       0.027
  -0.04443702 -0.07119150  0.02035703       0.013
  -0.01791286 -0.05822269  0.02035703       0.027
  -0.01791286 -0.02869778  0.02035703       0.013
   0.01722258  0.02759189  0.04071406       0.013
   0.04374673  0.04056070  0.04071406       0.027
   0.07027089  0.05352951  0.04071406       0.027
  -0.03582572  0.00165428  0.04071406       0.027
  -0.00930157  0.01462309  0.04071406       0.027
   0.04374673  0.07008562  0.04071406       0.013
   0.07027089  0.08305442  0.04071406       0.027
  -0.03582572  0.03117920  0.04071406       0.027
  -0.00930157  0.04414800  0.04071406       0.027
   0.07027089  0.11257934  0.04071406       0.013
  -0.03582572  0.06070411  0.04071406       0.027
  -0.00930157  0.07367292  0.04071406       0.027
  -0.03582572 -0.05739555  0.04071406       0.013
  -0.00930157 -0.04442675  0.04071406       0.027
  -0.00930157 -0.01490183  0.04071406       0.013
   0.02583387  0.04138784  0.06107109       0.007
   0.05235803  0.05435665  0.06107109       0.027
   0.07888218  0.06732545  0.06107109       0.027
   0.05235803  0.08388156  0.06107109       0.013
   0.07888218  0.09685037  0.06107109       0.027
  -0.02721443  0.04497514  0.06107109       0.027
  -0.00069028  0.05794395  0.06107109       0.013
   0.07888218  0.12637528  0.06107109       0.013
  -0.02721443  0.07450006  0.06107109       0.013
 
 k-points in reciprocal lattice and weights: EA                                      
   0.00000000  0.00000000  0.00000000       0.007
   0.20000000  0.00000000  0.00000000       0.027
   0.40000000  0.00000000  0.00000000       0.027
   0.20000000  0.20000000  0.00000000       0.013
   0.40000000  0.20000000  0.00000000       0.027
  -0.40000000  0.20000000  0.00000000       0.027
  -0.20000000  0.20000000  0.00000000       0.013
   0.40000000  0.40000000  0.00000000       0.013
  -0.40000000  0.40000000  0.00000000       0.013
  -0.00000000  0.00000000  0.16666667       0.013
   0.20000000  0.00000000  0.16666667       0.027
   0.40000000  0.00000000  0.16666667       0.027
  -0.40000000 -0.00000000  0.16666667       0.027
  -0.20000000 -0.00000000  0.16666667       0.027
   0.20000000  0.20000000  0.16666667       0.013
   0.40000000  0.20000000  0.16666667       0.027
  -0.40000000  0.20000000  0.16666667       0.027
  -0.20000000  0.20000000  0.16666667       0.027
   0.40000000  0.40000000  0.16666667       0.013
  -0.40000000  0.40000000  0.16666667       0.027
  -0.20000000  0.40000000  0.16666667       0.027
  -0.40000000 -0.40000000  0.16666667       0.013
  -0.20000000 -0.40000000  0.16666667       0.027
  -0.20000000 -0.20000000  0.16666667       0.013
   0.00000000  0.00000000  0.33333333       0.013
   0.20000000  0.00000000  0.33333333       0.027
   0.40000000  0.00000000  0.33333333       0.027
  -0.40000000  0.00000000  0.33333333       0.027
  -0.20000000  0.00000000  0.33333333       0.027
   0.20000000  0.20000000  0.33333333       0.013
   0.40000000  0.20000000  0.33333333       0.027
  -0.40000000  0.20000000  0.33333333       0.027
  -0.20000000  0.20000000  0.33333333       0.027
   0.40000000  0.40000000  0.33333333       0.013
  -0.40000000  0.40000000  0.33333333       0.027
  -0.20000000  0.40000000  0.33333333       0.027
  -0.40000000 -0.40000000  0.33333333       0.013
  -0.20000000 -0.40000000  0.33333333       0.027
  -0.20000000 -0.20000000  0.33333333       0.013
  -0.00000000  0.00000000  0.50000000       0.007
   0.20000000  0.00000000  0.50000000       0.027
   0.40000000  0.00000000  0.50000000       0.027
   0.20000000  0.20000000  0.50000000       0.013
   0.40000000  0.20000000  0.50000000       0.027
  -0.40000000  0.20000000  0.50000000       0.027
  -0.20000000  0.20000000  0.50000000       0.013
   0.40000000  0.40000000  0.50000000       0.013
  -0.40000000  0.40000000  0.50000000       0.013
 
 position of ions in fractional coordinates (direct lattice) 
   0.16760000  0.66760000  0.83520000
   0.83240000  0.33240000  0.16480000
   0.66760000  0.83240000  0.50000000
   0.33240000  0.16760000  0.50000000
   0.59386000  0.32319000  0.18070000
   0.90614000  0.08683000  0.72932000
   0.50000000  0.50000000  0.50000000
   0.91317000  0.64249000  0.81930000
   0.08683000  0.35751000  0.18070000
   0.67681000  0.85751000  0.27068000
   0.50000000  0.00000000  0.00000000
   0.32319000  0.14249000  0.72932000
   0.35751000  0.17681000  0.27068000
   0.00000000  0.00000000  0.50000000
   0.82319000  0.09386000  0.18070000
   0.64249000  0.82319000  0.72932000
   0.40614000  0.67681000  0.81930000
   0.09386000  0.91317000  0.27068000
   0.58683000  0.40614000  0.72932000
   0.41317000  0.59386000  0.27068000
   0.85751000  0.58683000  0.18070000
   0.14249000  0.41317000  0.81930000
   0.00000000  0.50000000  0.00000000
   0.17681000  0.90614000  0.81930000
   0.80278000  0.69722000  0.50000000
   0.69722000  0.19722000  0.89444000
   0.30278000  0.80278000  0.10556000
   0.19722000  0.30278000  0.50000000
 
 position of ions in cartesian coordinates  (Angst):
  -0.94738569  4.52228217  4.17394147
   5.17561059  2.25165757 -2.36605090
   2.27693342  5.63862744 -0.69087708
   1.95129148  1.13531230  2.49876764
   3.40745227  2.18926958 -1.44564026
   6.54497772  0.58818119  2.80385260
   2.11411245  3.38696987  0.90394528
   4.75759988  4.35218854  1.74575387
  -0.52937498  2.42175120  0.06213669
   2.26321342  5.80872106 -2.67782980
   3.77014864  0.00000000 -1.59482236
   1.96501148  0.96521867  4.48572037
   2.11012416  1.19770028  0.51181492
   0.00000000  0.00000000  4.09359000
   5.89622620  0.63580198 -1.44564026
   2.11810074  5.57623945  1.29607565
   0.82077263  4.58467015  3.25353083
  -2.31675282  6.18575855 -0.99596204
   3.07970758  2.75116788  2.80385260
   1.14851733  4.02277185 -0.99596204
   4.52225689  3.97515106 -3.12750803
  -0.29403198  2.79878868  4.93539859
  -1.65603618  3.38696987 -1.59482236
  -1.66800129  6.13813775  3.25353083
   3.74395675  4.72292626 -0.69087708
   4.60403915  1.33595639  4.46999546
  -0.37581425  5.43798334 -2.66210489
   0.48426816  2.05101347  2.49876764
 


--------------------------------------------------------------------------------------------------------


 k-point   1 :   0.0000 0.0000 0.0000  plane waves:   14001
 k-point   2 :   0.2000 0.0000 0.0000  plane waves:   13970
 k-point   3 :   0.4000 0.0000 0.0000  plane waves:   13948
 k-point   4 :   0.2000 0.2000 0.0000  plane waves:   13954
 k-point   5 :   0.4000 0.2000 0.0000  plane waves:   13972
 k-point   6 :  -0.4000 0.2000 0.0000  plane waves:   13962
 k-point   7 :  -0.2000 0.2000 0.0000  plane waves:   13961
 k-point   8 :   0.4000 0.4000 0.0000  plane waves:   13980
 k-point   9 :  -0.4000 0.4000 0.0000  plane waves:   13958
 k-point  10 :  -0.0000 0.0000 0.1667  plane waves:   13979
 k-point  11 :   0.2000 0.0000 0.1667  plane waves:   13956
 k-point  12 :   0.4000 0.0000 0.1667  plane waves:   13953
 k-point  13 :  -0.4000-0.0000 0.1667  plane waves:   13958
 k-point  14 :  -0.2000-0.0000 0.1667  plane waves:   13969
 k-point  15 :   0.2000 0.2000 0.1667  plane waves:   13967
 k-point  16 :   0.4000 0.2000 0.1667  plane waves:   13963
 k-point  17 :  -0.4000 0.2000 0.1667  plane waves:   13970
 k-point  18 :  -0.2000 0.2000 0.1667  plane waves:   13951
 k-point  19 :   0.4000 0.4000 0.1667  plane waves:   13978
 k-point  20 :  -0.4000 0.4000 0.1667  plane waves:   13955
 k-point  21 :  -0.2000 0.4000 0.1667  plane waves:   13950
 k-point  22 :  -0.4000-0.4000 0.1667  plane waves:   13943
 k-point  23 :  -0.2000-0.4000 0.1667  plane waves:   13937
 k-point  24 :  -0.2000-0.2000 0.1667  plane waves:   13968
 k-point  25 :   0.0000 0.0000 0.3333  plane waves:   13976
 k-point  26 :   0.2000 0.0000 0.3333  plane waves:   13970
 k-point  27 :   0.4000 0.0000 0.3333  plane waves:   13971
 k-point  28 :  -0.4000 0.0000 0.3333  plane waves:   13934
 k-point  29 :  -0.2000 0.0000 0.3333  plane waves:   13954
 k-point  30 :   0.2000 0.2000 0.3333  plane waves:   13959
 k-point  31 :   0.4000 0.2000 0.3333  plane waves:   13961
 k-point  32 :  -0.4000 0.2000 0.3333  plane waves:   13947
 k-point  33 :  -0.2000 0.2000 0.3333  plane waves:   13962
 k-point  34 :   0.4000 0.4000 0.3333  plane waves:   13949
 k-point  35 :  -0.4000 0.4000 0.3333  plane waves:   13939
 k-point  36 :  -0.2000 0.4000 0.3333  plane waves:   13941
 k-point  37 :  -0.4000-0.4000 0.3333  plane waves:   13928
 k-point  38 :  -0.2000-0.4000 0.3333  plane waves:   13926
 k-point  39 :  -0.2000-0.2000 0.3333  plane waves:   13942
 k-point  40 :  -0.0000 0.0000 0.5000  plane waves:   13982
 k-point  41 :   0.2000 0.0000 0.5000  plane waves:   13967
 k-point  42 :   0.4000 0.0000 0.5000  plane waves:   13949
 k-point  43 :   0.2000 0.2000 0.5000  plane waves:   13967
 k-point  44 :   0.4000 0.2000 0.5000  plane waves:   13938
 k-point  45 :  -0.4000 0.2000 0.5000  plane waves:   13946
 k-point  46 :  -0.2000 0.2000 0.5000  plane waves:   13964
 k-point  47 :   0.4000 0.4000 0.5000  plane waves:   13942
 k-point  48 :  -0.4000 0.4000 0.5000  plane waves:   13962

 maximum and minimum number of plane-waves per node :      7049     6901

 maximum number of plane-waves:     14001
 maximum index in each direction: 
   IXMAX=   16   IYMAX=   16   IZMAX=   16
   IXMIN=  -16   IYMIN=  -16   IZMIN=  -16


 parallel 3D FFT for wavefunctions:
    minimum data exchange during FFTs selected (reduces bandwidth)
 parallel 3D FFT for charge:
    minimum data exchange during FFTs selected (reduces bandwidth)


 total amount of memory used by VASP MPI-rank0   761783. kBytes
=======================================================================

   base      :      30000. kBytes
   nonl-proj :     148076. kBytes
   fftplans  :      39301. kBytes
   grid      :      29509. kBytes
   one-center:        217. kBytes
   wavefun   :     514680. kBytes
 
     INWAV:  cpu time    0.0001: real time    0.0001
 Broyden mixing: mesh for mixing (old mesh)
   NGX = 33   NGY = 33   NGZ = 33
  (NGX  =140   NGY  =140   NGZ  =140)
  gives a total of  35937 points

 initial charge density was supplied:
 charge density of overlapping atoms calculated
 number of electron     308.0000000 magnetization 
 keeping initial charge density in first step


--------------------------------------------------------------------------------------------------------


 Maximum index for augmentation-charges        26444 (set IRDMAX)


--------------------------------------------------------------------------------------------------------


 First call to EWALD:  gamma=   0.237
 Maximum number of real-space cells 3x 3x 3
 Maximum number of reciprocal cells 3x 3x 3

    FEWALD:  cpu time    0.1136: real time    0.1145


--------------------------------------- Iteration      1(   1)  ---------------------------------------


    POTLOK:  cpu time    0.5352: real time    0.5414
    SETDIJ:  cpu time    1.0122: real time    1.0224
    TRIAL :  cpu time  154.0497: real time  155.6545
    CORREC:  cpu time    0.0025: real time    0.0025
    --------------------------------------------
      LOOP:  cpu time  155.9145: real time  157.5486

 eigenvalue-minimisations  : 18420
 total energy-change (2. order) : 0.3964869E+04  (-0.2144926E+05)
 number of electron     308.0000000 magnetization 
 augmentation part      308.0000000 magnetization 

 Free energy of the ion-electron system (eV)
  ---------------------------------------------------
  alpha Z        PSCENC =      2031.37184632
  Ewald energy   TEWEN  =    -28773.70438545
  -Hartree energ DENC   =     -9517.92261755
  -exchange      EXHF   =         0.00000000
  -V(xc)+E(xc)   XCENC  =      1558.03796258
  PAW double counting   =     30223.22972892   -30115.03668801
  entropy T*S    EENTRO =        -0.00185189
  eigenvalues    EBANDS =       616.29969820
  atomic energy  EATOM  =     37942.59505656
  ---------------------------------------------------
  free energy    TOTEN  =      3964.86874967 eV

  energy without entropy =     3964.87060157  energy(sigma->0) =     3964.86967562


--------------------------------------------------------------------------------------------------------




--------------------------------------- Iteration      1(   2)  ---------------------------------------


    TRIAL :  cpu time  155.9191: real time  157.5426
    CORREC:  cpu time    0.0026: real time    0.0026
    --------------------------------------------
      LOOP:  cpu time  155.9243: real time  157.5486

 eigenvalue-minimisations  : 19044
 total energy-change (2. order) :-0.4437011E+04  (-0.4317598E+04)
 number of electron     308.0000000 magnetization 
 augmentation part      308.0000000 magnetization 

 Free energy of the ion-electron system (eV)
  ---------------------------------------------------
  alpha Z        PSCENC =      2031.37184632
  Ewald energy   TEWEN  =    -28773.70438545
  -Hartree energ DENC   =     -9517.92261755
  -exchange      EXHF   =         0.00000000
  -V(xc)+E(xc)   XCENC  =      1558.03796258
  PAW double counting   =     30223.22972892   -30115.03668801
  entropy T*S    EENTRO =        -0.00386669
  eigenvalues    EBANDS =     -3820.70953469
  atomic energy  EATOM  =     37942.59505656
  ---------------------------------------------------
  free energy    TOTEN  =      -472.14249801 eV

  energy without entropy =     -472.13863133  energy(sigma->0) =     -472.14056467


--------------------------------------------------------------------------------------------------------




--------------------------------------- Iteration      1(   3)  ---------------------------------------


    TRIAL :  cpu time  177.8293: real time  179.6798
    CORREC:  cpu time    0.0025: real time    0.0025
    --------------------------------------------
      LOOP:  cpu time  177.8341: real time  179.6853

 eigenvalue-minimisations  : 23676
 total energy-change (2. order) :-0.2115107E+03  (-0.2021595E+03)
 number of electron     308.0000000 magnetization 
 augmentation part      308.0000000 magnetization 

 Free energy of the ion-electron system (eV)
  ---------------------------------------------------
  alpha Z        PSCENC =      2031.37184632
  Ewald energy   TEWEN  =    -28773.70438545
  -Hartree energ DENC   =     -9517.92261755
  -exchange      EXHF   =         0.00000000
  -V(xc)+E(xc)   XCENC  =      1558.03796258
  PAW double counting   =     30223.22972892   -30115.03668801
  entropy T*S    EENTRO =        -0.00398917
  eigenvalues    EBANDS =     -4032.22012859
  atomic energy  EATOM  =     37942.59505656
  ---------------------------------------------------
  free energy    TOTEN  =      -683.65321440 eV

  energy without entropy =     -683.64922523  energy(sigma->0) =     -683.65121981


--------------------------------------------------------------------------------------------------------




--------------------------------------- Iteration      1(   4)  ---------------------------------------


    TRIAL :  cpu time  168.0712: real time  169.8427
    CORREC:  cpu time    0.0024: real time    0.0024
    --------------------------------------------
      LOOP:  cpu time  168.0749: real time  169.8481

 eigenvalue-minimisations  : 21660
 total energy-change (2. order) :-0.6728167E+01  (-0.6552366E+01)
 number of electron     308.0000000 magnetization 
 augmentation part      308.0000000 magnetization 

 Free energy of the ion-electron system (eV)
  ---------------------------------------------------
  alpha Z        PSCENC =      2031.37184632
  Ewald energy   TEWEN  =    -28773.70438545
  -Hartree energ DENC   =     -9517.92261755
  -exchange      EXHF   =         0.00000000
  -V(xc)+E(xc)   XCENC  =      1558.03796258
  PAW double counting   =     30223.22972892   -30115.03668801
  entropy T*S    EENTRO =        -0.00328952
  eigenvalues    EBANDS =     -4038.94899507
  atomic energy  EATOM  =     37942.59505656
  ---------------------------------------------------
  free energy    TOTEN  =      -690.38138123 eV

  energy without entropy =     -690.37809171  energy(sigma->0) =     -690.37973647


--------------------------------------------------------------------------------------------------------




--------------------------------------- Iteration      1(   5)  ---------------------------------------


    TRIAL :  cpu time  169.2018: real time  170.9973
    CORREC:  cpu time    0.0026: real time    0.0026
    CHARGE:  cpu time   10.6504: real time   10.7469
    --------------------------------------------
      LOOP:  cpu time  179.8560: real time  181.7498

 eigenvalue-minimisations  : 21924
 total energy-change (2. order) :-0.1754402E+00  (-0.1742419E+00)
 number of electron     308.0000002 magnetization 
 augmentation part       43.9823697 magnetization 

 Free energy of the ion-electron system (eV)
  ---------------------------------------------------
  alpha Z        PSCENC =      2031.37184632
  Ewald energy   TEWEN  =    -28773.70438545
  -Hartree energ DENC   =     -9517.92261755
  -exchange      EXHF   =         0.00000000
  -V(xc)+E(xc)   XCENC  =      1558.03796258
  PAW double counting   =     30223.22972892   -30115.03668801
  entropy T*S    EENTRO =        -0.00326274
  eigenvalues    EBANDS =     -4039.12446208
  atomic energy  EATOM  =     37942.59505656
  ---------------------------------------------------
  free energy    TOTEN  =      -690.55682145 eV

  energy without entropy =     -690.55355872  energy(sigma->0) =     -690.55519008


--------------------------------------------------------------------------------------------------------




--------------------------------------- Iteration      1(   6)  ---------------------------------------


    POTLOK:  cpu time    0.4796: real time    0.4830
    SETDIJ:  cpu time    0.9792: real time    0.9888
    TRIAL :  cpu time  139.3248: real time  140.9186
    CORREC:  cpu time   45.6707: real time   46.1212
    CHARGE:  cpu time   10.4990: real time   10.5944
    --------------------------------------------
      LOOP:  cpu time  196.9556: real time  199.1089

 eigenvalue-minimisations  :     0
 total energy-change (2. order) : 0.2113484E+03  (-0.5505818E+02)
 number of electron     308.0000001 magnetization 
 augmentation part       48.8849184 magnetization 

 Free energy of the ion-electron system (eV)
  ---------------------------------------------------
  alpha Z        PSCENC =      2031.37184632
  Ewald energy   TEWEN  =    -28773.70438545
  -Hartree energ DENC   =     -8820.70400515
  -exchange      EXHF   =         0.00000000
  -V(xc)+E(xc)   XCENC  =      1571.35505279
  PAW double counting   =     51497.37317574   -51508.71128812
  entropy T*S    EENTRO =        -0.00374387
  eigenvalues    EBANDS =     -4418.78064776
  atomic energy  EATOM  =     37942.59505656
  ---------------------------------------------------
  free energy    TOTEN  =      -479.20845781 eV

  energy without entropy =     -479.20471394  energy(sigma->0) =     -479.20658588


--------------------------------------------------------------------------------------------------------




--------------------------------------- Iteration      1(   7)  ---------------------------------------


    POTLOK:  cpu time    0.4943: real time    0.4982
    SETDIJ:  cpu time    1.2700: real time    1.2797
    TRIAL :  cpu time  150.5299: real time  151.9855
    CORREC:  cpu time   46.9293: real time   47.3912
    CHARGE:  cpu time   11.0394: real time   11.1331
    --------------------------------------------
      LOOP:  cpu time  210.2639: real time  212.2899

 eigenvalue-minimisations  :     0
 total energy-change (2. order) :-0.5506047E+02  (-0.8947905E+01)
 number of electron     308.0000001 magnetization 
 augmentation part       48.6075838 magnetization 

 Free energy of the ion-electron system (eV)
  ---------------------------------------------------
  alpha Z        PSCENC =      2031.37184632
  Ewald energy   TEWEN  =    -28773.70438545
  -Hartree energ DENC   =     -9219.40820509
  -exchange      EXHF   =         0.00000000
  -V(xc)+E(xc)   XCENC  =      1590.90980068
  PAW double counting   =     48156.42576676   -48132.47677359
  entropy T*S    EENTRO =        -0.00537335
  eigenvalues    EBANDS =     -4129.97829408
  atomic energy  EATOM  =     37942.59505656
  ---------------------------------------------------
  free energy    TOTEN  =      -534.26893177 eV

  energy without entropy =     -534.26355842  energy(sigma->0) =     -534.26624510


--------------------------------------------------------------------------------------------------------




--------------------------------------- Iteration      1(   8)  ---------------------------------------


    POTLOK:  cpu time    0.4516: real time    0.4547
    SETDIJ:  cpu time    1.6892: real time    1.7013
    TRIAL :  cpu time  156.7805: real time  158.2721
    CORREC:  cpu time   45.8411: real time   46.2950
    CHARGE:  cpu time   11.4028: real time   11.4985
    --------------------------------------------
      LOOP:  cpu time  216.7751: real time  218.8350

 eigenvalue-minimisations  :     0
 total energy-change (2. order) :-0.8944869E+01  (-0.2150147E+01)
 number of electron     308.0000001 magnetization 
 augmentation part       48.7014925 magnetization 

 Free energy of the ion-electron system (eV)
  ---------------------------------------------------
  alpha Z        PSCENC =      2031.37184632
  Ewald energy   TEWEN  =    -28773.70438545
  -Hartree energ DENC   =     -9215.09924071
  -exchange      EXHF   =         0.00000000
  -V(xc)+E(xc)   XCENC  =      1591.61110786
  PAW double counting   =     46773.23958890   -46741.80012717
  entropy T*S    EENTRO =        -0.00535569
  eigenvalues    EBANDS =     -4151.42227401
  atomic energy  EATOM  =     37942.59505656
  ---------------------------------------------------
  free energy    TOTEN  =      -543.21380106 eV

  energy without entropy =     -543.20844537  energy(sigma->0) =     -543.21112321


--------------------------------------------------------------------------------------------------------




--------------------------------------- Iteration      1(   9)  ---------------------------------------


    POTLOK:  cpu time    0.4904: real time    0.4936
    SETDIJ:  cpu time    0.9516: real time    0.9614
    TRIAL :  cpu time  151.5886: real time  153.0608
    CORREC:  cpu time   45.3392: real time   45.7894
    CHARGE:  cpu time   10.6958: real time   10.7905
    --------------------------------------------
      LOOP:  cpu time  209.0744: real time  211.1054

 eigenvalue-minimisations  :     0
 total energy-change (2. order) :-0.2150073E+01  (-0.8064607E+00)
 number of electron     308.0000001 magnetization 
 augmentation part       48.7153020 magnetization 

 Free energy of the ion-electron system (eV)
  ---------------------------------------------------
  alpha Z        PSCENC =      2031.37184632
  Ewald energy   TEWEN  =    -28773.70438545
  -Hartree energ DENC   =     -9225.86399491
  -exchange      EXHF   =         0.00000000
  -V(xc)+E(xc)   XCENC  =      1592.76693491
  PAW double counting   =     46160.93663156   -46122.69805342
  entropy T*S    EENTRO =        -0.00500804
  eigenvalues    EBANDS =     -4150.76255418
  atomic energy  EATOM  =     37942.59505656
  ---------------------------------------------------
  free energy    TOTEN  =      -545.36387430 eV

  energy without entropy =     -545.35886626  energy(sigma->0) =     -545.36137028


--------------------------------------------------------------------------------------------------------




--------------------------------------- Iteration      1(  10)  ---------------------------------------


    POTLOK:  cpu time    0.4591: real time    0.4623
    SETDIJ:  cpu time    0.9948: real time    1.0043
    TRIAL :  cpu time  150.5770: real time  152.0657
    CORREC:  cpu time   45.7521: real time   46.2103
    CHARGE:  cpu time   10.6022: real time   10.6954
    --------------------------------------------
      LOOP:  cpu time  208.4236: real time  210.4772

 eigenvalue-minimisations  :     0
 total energy-change (2. order) :-0.8063406E+00  (-0.3262987E+00)
 number of electron     308.0000001 magnetization 
 augmentation part       48.7073023 magnetization 

 Free energy of the ion-electron system (eV)
  ---------------------------------------------------
  alpha Z        PSCENC =      2031.37184632
  Ewald energy   TEWEN  =    -28773.70438545
  -Hartree energ DENC   =     -9243.99573189
  -exchange      EXHF   =         0.00000000
  -V(xc)+E(xc)   XCENC  =      1593.73110574
  PAW double counting   =     45865.68684545   -45823.60088529
  entropy T*S    EENTRO =        -0.00522102
  eigenvalues    EBANDS =     -4138.24905827
  atomic energy  EATOM  =     37942.59505656
  ---------------------------------------------------
  free energy    TOTEN  =      -546.17021488 eV

  energy without entropy =     -546.16499386  energy(sigma->0) =     -546.16760437


--------------------------------------------------------------------------------------------------------




--------------------------------------- Iteration      1(  11)  ---------------------------------------


    POTLOK:  cpu time    0.4078: real time    0.4107
    SETDIJ:  cpu time    1.0032: real time    1.0120
    TRIAL :  cpu time  156.3152: real time  157.7923
    CORREC:  cpu time   46.8579: real time   47.3148
    CHARGE:  cpu time   11.1088: real time   11.2117
    --------------------------------------------
      LOOP:  cpu time  215.7199: real time  217.7692

 eigenvalue-minimisations  :     0
 total energy-change (2. order) :-0.3264202E+00  (-0.1227925E+00)
 number of electron     308.0000002 magnetization 
 augmentation part       48.6976436 magnetization 

 Free energy of the ion-electron system (eV)
  ---------------------------------------------------
  alpha Z        PSCENC =      2031.37184632
  Ewald energy   TEWEN  =    -28773.70438545
  -Hartree energ DENC   =     -9255.22905908
  -exchange      EXHF   =         0.00000000
  -V(xc)+E(xc)   XCENC  =      1594.13732388
  PAW double counting   =     45757.47376607   -45714.03448983
  entropy T*S    EENTRO =        -0.00543010
  eigenvalues    EBANDS =     -4129.10147249
  atomic energy  EATOM  =     37942.59505656
  ---------------------------------------------------
  free energy    TOTEN  =      -546.49663504 eV

  energy without entropy =     -546.49120494  energy(sigma->0) =     -546.49391999


--------------------------------------------------------------------------------------------------------




--------------------------------------- Iteration      1(  12)  ---------------------------------------


    POTLOK:  cpu time    0.4202: real time    0.4239
    SETDIJ:  cpu time    0.9741: real time    0.9844
    TRIAL :  cpu time  149.9853: real time  151.5320
    CORREC:  cpu time   47.2065: real time   47.6746
    CHARGE:  cpu time   10.5293: real time   10.6165
    --------------------------------------------
      LOOP:  cpu time  209.1186: real time  211.2348

 eigenvalue-minimisations  :     0
 total energy-change (2. order) :-0.1227536E+00  (-0.5063416E-01)
 number of electron     308.0000002 magnetization 
 augmentation part       48.6966237 magnetization 

 Free energy of the ion-electron system (eV)
  ---------------------------------------------------
  alpha Z        PSCENC =      2031.37184632
  Ewald energy   TEWEN  =    -28773.70438545
  -Hartree energ DENC   =     -9248.87419077
  -exchange      EXHF   =         0.00000000
  -V(xc)+E(xc)   XCENC  =      1593.92651158
  PAW double counting   =     45788.18256808   -45744.97557380
  entropy T*S    EENTRO =        -0.00561756
  eigenvalues    EBANDS =     -4135.13579106
  atomic energy  EATOM  =     37942.59505656
  ---------------------------------------------------
  free energy    TOTEN  =      -546.61938864 eV

  energy without entropy =     -546.61377108  energy(sigma->0) =     -546.61657986


--------------------------------------------------------------------------------------------------------




--------------------------------------- Iteration      1(  13)  ---------------------------------------


    POTLOK:  cpu time    0.4134: real time    0.4162
    SETDIJ:  cpu time    1.3789: real time    1.3888
