 vasp.6.2.0 18Jan21 (build Jan 05 2022 15:41:44) complex                        
  
 executed on             LinuxIFC date 2025.05.07  20:55:45
 running on   24 total cores
 distrk:  each k-point on   12 cores,    2 groups
 distr:  one band on NCORE=   2 cores,    6 groups


--------------------------------------------------------------------------------------------------------


 INCAR:
   SYSTEM = routine with relax: pwdword
   ICHARG = 2
   NPAR = 6
   KPAR = 2
   NCORE = 2
   ADDGRID = T
   PREC = Acc
   ENCUT = 600
   METAGGA = R2SCAN
   LASPH = .TRUE.
   LMIXTAU = .FALSE.
   ALGO = A
   EDIFF = 1E-9
   NELM = 100
   NELMIN = 6
   IALGO = 38
   LREAL = F
   NSW = 0
   ISIF = -1
   ISMEAR = 0
   SIGMA = 0.02
   SYMPREC = 1E-4

 POTCAR:    PAW_PBE B 06Sep2000                   
 POTCAR:    PAW_PBE Mo_sv 02Feb2006               
 POTCAR:    PAW_PBE Si 05Jan2001                  
 -----------------------------------------------------------------------------
|                                                                             |
|           W    W    AA    RRRRR   N    N  II  N    N   GGGG   !!!           |
|           W    W   A  A   R    R  NN   N  II  NN   N  G    G  !!!           |
|           W    W  A    A  R    R  N N  N  II  N N  N  G       !!!           |
|           W WW W  AAAAAA  RRRRR   N  N N  II  N  N N  G  GGG   !            |
|           WW  WW  A    A  R   R   N   NN  II  N   NN  G    G                |
|           W    W  A    A  R    R  N    N  II  N    N   GGGG   !!!           |
|                                                                             |
|     For optimal performance we recommend to set                             |
|       NCORE = 2 up to number-of-cores-per-socket                            |
|     NCORE specifies how many cores store one orbital (NPAR=cpu/NCORE).      |
|     This setting can greatly improve the performance of VASP for DFT.       |
|     The default, NCORE=1 might be grossly inefficient on modern             |
|     multi-core architectures or massively parallel machines. Do your        |
|     own testing! More info at https://www.vasp.at/wiki/index.php/NCORE      |
|     Unfortunately you need to use the default for GW and RPA                |
|     calculations (for HF NCORE is supported but not extensively tested      |
|     yet).                                                                   |
|                                                                             |
 -----------------------------------------------------------------------------

 POTCAR:    PAW_PBE B 06Sep2000                   
   VRHFIN =B: s2p1                                                                                  
   LEXCH  = PE                                                                                      
   EATOM  =    71.1703 eV,    5.2309 Ry                                                             
                                                                                                    
   TITEL  = PAW_PBE B 06Sep2000                                                                     
   LULTRA =        F    use ultrasoft PP ?                                                          
   IUNSCR =        1    unscreen: 0-lin 1-nonlin 2-no                                               
   RPACOR =    1.200    partial core radius                                                         
   POMASS =   10.811; ZVAL   =    3.000    mass and valenz                                          
   RCORE  =    1.700    outmost cutoff radius                                                       
   RWIGS  =    1.710; RWIGS  =    0.905    wigner-seitz radius (au A)                               
   ENMAX  =  318.614; ENMIN  =  238.960 eV                                                          
   ICORE  =        2    local potential                                                             
   LCOR   =        T    correct aug charges                                                         
   LPAW   =        T    paw PP                                                                      
   EAUG   =  535.514                                                                                
   DEXC   =    0.000                                                                                
   RMAX   =    1.732    core radius for proj-oper                                                   
   RAUG   =    1.300    factor for augmentation sphere                                              
   RDEP   =    1.757    radius for radial grids                                                     
   RDEPT  =    1.436    core radius for aug-charge                                                  
                                                                                                    
   Atomic configuration                                                                             
    4 entries                                                                                       
     n  l   j            E        occ.                                                              
     1  0  0.50      -180.5896   2.0000                                                             
     2  0  0.50        -9.4431   2.0000                                                             
     2  1  0.50        -3.6068   1.0000                                                             
     3  2  1.50        -4.0817   0.0000                                                             
   Description                                                                                      
     l       E           TYP  RCUT    TYP  RCUT                                                     
     0     -9.4430752     23  1.500                                                                 
     0      0.8675899     23  1.500                                                                 
     1     -3.6067955     23  1.700                                                                 
     1      6.1086146     23  1.700                                                                 
     2     -4.0817478      7  1.700                                                                 
  local pseudopotential read in
  partial core-charges read in
  partial kinetic energy density read in
  atomic valenz-charges read in
  non local Contribution for L=           0  read in
    real space projection operators read in
  non local Contribution for L=           0  read in
    real space projection operators read in
  non local Contribution for L=           1  read in
    real space projection operators read in
  non local Contribution for L=           1  read in
    real space projection operators read in
    PAW grid and wavefunctions read in
 
   number of l-projection  operators is LMAX  =           4
   number of lm-projection operators is LMMAX =           8
 
 POTCAR:    PAW_PBE Mo_sv 02Feb2006               
   VRHFIN =Mo: 4p5s4d                                                                               
   LEXCH  = PE                                                                                      
   EATOM  =  1862.2866 eV,  136.8742 Ry                                                             
                                                                                                    
   TITEL  = PAW_PBE Mo_sv 02Feb2006                                                                 
   LULTRA =        F    use ultrasoft PP ?                                                          
   IUNSCR =        1    unscreen: 0-lin 1-nonlin 2-no                                               
   RPACOR =    2.200    partial core radius                                                         
   POMASS =   95.940; ZVAL   =   14.000    mass and valenz                                          
   RCORE  =    2.500    outmost cutoff radius                                                       
   RWIGS  =    2.750; RWIGS  =    1.455    wigner-seitz radius (au A)                               
   ENMAX  =  242.676; ENMIN  =  182.007 eV                                                          
   ICORE  =        3    local potential                                                             
   LCOR   =        T    correct aug charges                                                         
   LPAW   =        T    paw PP                                                                      
   EAUG   =  446.014                                                                                
   DEXC   =    0.000                                                                                
   RMAX   =    2.563    core radius for proj-oper                                                   
   RAUG   =    1.300    factor for augmentation sphere                                              
   RDEP   =    2.641    radius for radial grids                                                     
   RDEPT  =    2.031    core radius for aug-charge                                                  
                                                                                                    
   Atomic configuration                                                                             
   11 entries                                                                                       
     n  l   j            E        occ.                                                              
     1  0  0.50    -19819.0341   2.0000                                                             
     2  0  0.50     -2799.0127   2.0000                                                             
     2  1  1.50     -2502.0276   6.0000                                                             
     3  0  0.50      -476.4449   2.0000                                                             
     3  1  1.50      -379.1496   6.0000                                                             
     3  2  2.50      -220.9367  10.0000                                                             
     4  0  0.50       -64.3378   2.0000                                                             
     5  0  0.50        -4.0862   1.0000                                                             
     4  1  1.50       -38.4773   6.0000                                                             
     4  2  2.50        -3.7535   5.0000                                                             
     4  3  2.50        -1.3606   0.0000                                                             
   Description                                                                                      
     l       E           TYP  RCUT    TYP  RCUT                                                     
     0    -64.3377829     23  2.100                                                                 
     0     -4.0861640     23  2.400                                                                 
     1    -38.4772993     23  2.100                                                                 
     1     13.6058260     23  2.100                                                                 
     2     -3.7534941     23  2.400                                                                 
     2     -5.1140767     23  2.400                                                                 
     3     -4.0817478     23  2.500                                                                 
  local pseudopotential read in
  partial core-charges read in
  partial kinetic energy density read in
  atomic valenz-charges read in
  non local Contribution for L=           0  read in
    real space projection operators read in
  non local Contribution for L=           0  read in
    real space projection operators read in
  non local Contribution for L=           1  read in
    real space projection operators read in
  non local Contribution for L=           1  read in
    real space projection operators read in
  non local Contribution for L=           2  read in
    real space projection operators read in
  non local Contribution for L=           2  read in
    real space projection operators read in
    PAW grid and wavefunctions read in
 
   number of l-projection  operators is LMAX  =           6
   number of lm-projection operators is LMMAX =          18
 
 POTCAR:    PAW_PBE Si 05Jan2001                  
   VRHFIN =Si: s2p2                                                                                 
   LEXCH  = PE                                                                                      
   EATOM  =   103.0669 eV,    7.5752 Ry                                                             
                                                                                                    
   TITEL  = PAW_PBE Si 05Jan2001                                                                    
   LULTRA =        F    use ultrasoft PP ?                                                          
   IUNSCR =        1    unscreen: 0-lin 1-nonlin 2-no                                               
   RPACOR =    1.500    partial core radius                                                         
   POMASS =   28.085; ZVAL   =    4.000    mass and valenz                                          
   RCORE  =    1.900    outmost cutoff radius                                                       
   RWIGS  =    2.480; RWIGS  =    1.312    wigner-seitz radius (au A)                               
   ENMAX  =  245.345; ENMIN  =  184.009 eV                                                          
   ICORE  =        2    local potential                                                             
   LCOR   =        T    correct aug charges                                                         
   LPAW   =        T    paw PP                                                                      
   EAUG   =  322.069                                                                                
   DEXC   =    0.000                                                                                
   RMAX   =    1.950    core radius for proj-oper                                                   
   RAUG   =    1.300    factor for augmentation sphere                                              
   RDEP   =    1.993    radius for radial grids                                                     
   RDEPT  =    1.837    core radius for aug-charge                                                  
                                                                                                    
   Atomic configuration                                                                             
    6 entries                                                                                       
     n  l   j            E        occ.                                                              
     1  0  0.50     -1785.8828   2.0000                                                             
     2  0  0.50      -139.4969   2.0000                                                             
     2  1  1.50       -95.5546   6.0000                                                             
     3  0  0.50       -10.8127   2.0000                                                             
     3  1  0.50        -4.0811   2.0000                                                             
     3  2  1.50        -4.0817   0.0000                                                             
   Description                                                                                      
     l       E           TYP  RCUT    TYP  RCUT                                                     
     0    -10.8127223     23  1.900                                                                 
     0     -7.6451159     23  1.900                                                                 
     1     -4.0811372     23  1.900                                                                 
     1      2.4879257     23  1.900                                                                 
     2     -4.0817478      7  1.900                                                                 
  local pseudopotential read in
  partial core-charges read in
  partial kinetic energy density read in
  atomic valenz-charges read in
  non local Contribution for L=           0  read in
    real space projection operators read in
  non local Contribution for L=           0  read in
    real space projection operators read in
  non local Contribution for L=           1  read in
    real space projection operators read in
  non local Contribution for L=           1  read in
    real space projection operators read in
    PAW grid and wavefunctions read in
 
   number of l-projection  operators is LMAX  =           4
   number of lm-projection operators is LMMAX =           8
 
 -----------------------------------------------------------------------------
|                                                                             |
|               ----> ADVICE to this user running VASP <----                  |
|                                                                             |
|     You have a (more or less) 'large supercell' and for larger cells it     |
|     might be more efficient to use real-space projection operators.         |
|     Therefore, try LREAL= Auto in the INCAR file.                           |
|     Mind: For very accurate calculation, you might also keep the            |
|     reciprocal projection scheme (i.e. LREAL=.FALSE.).                      |
|                                                                             |
 -----------------------------------------------------------------------------

  PAW_PBE B 06Sep2000                   :
 energy of atom  1       EATOM=  -71.1703
 kinetic energy error for atom=    0.0007 (will be added to EATOM!!)
  PAW_PBE Mo_sv 02Feb2006               :
 energy of atom  2       EATOM=-1862.2866
 kinetic energy error for atom=    0.0041 (will be added to EATOM!!)
  PAW_PBE Si 05Jan2001                  :
 energy of atom  3       EATOM= -103.0669
 kinetic energy error for atom=    0.0003 (will be added to EATOM!!)
 
 
 POSCAR: EA212
  positions in direct lattice
  No initial velocities read in

 METAGGA = R2SCA    LMAXTAU =  6    LMIXTAU =  F

 exchange correlation table for  LEXCH =        8
   RHO(1)=    0.500       N(1)  =     2000
   RHO(2)=  100.500       N(2)  =     4000
 


--------------------------------------------------------------------------------------------------------


 ion  position               nearest neighbor table
   1  0.750  0.750  0.000-   3 2.46   4 2.46   7 2.46   8 2.46   9 2.46  11 2.46  10 2.46   6 2.46

   2  0.250  0.250  0.000-   6 2.46  10 2.46   9 2.46  11 2.46   8 2.46   7 2.46   3 2.46   4 2.46

   3  0.507  0.704  0.210-   1 2.46   2 2.46  16 2.49  19 2.49  14 2.51  17 2.51   7 2.64  11 2.64
                             5 2.72   9 3.19   9 3.19
   4  0.796  0.993  0.790-   1 2.46   2 2.46  19 2.49  16 2.49  20 2.51  18 2.51   8 2.64   9 2.64
                             5 2.72  11 3.19  11 3.19
   5  0.500  0.000  0.500-  14 2.45  20 2.45  18 2.45  17 2.45  13 2.50  15 2.50  19 2.50  16 2.50
                             4 2.72   6 2.72   3 2.72  10 2.72  12 3.19  12 3.19
   6  0.204  0.007  0.210-   2 2.46   1 2.46  13 2.49  15 2.49  14 2.51  17 2.51   9 2.64   8 2.64
                             5 2.72   7 3.19   7 3.19
   7  0.704  0.493  0.197-   1 2.46   2 2.46  14 2.49  17 2.49  15 2.51  13 2.51   3 2.64  10 2.64
                            12 2.72   6 3.19   6 3.19
   8  0.007  0.796  0.803-   1 2.46   2 2.46  20 2.49  18 2.49  13 2.51  15 2.51   4 2.64   6 2.64
                            12 2.72  10 3.19  10 3.19
   9  0.993  0.204  0.197-   2 2.46   1 2.46  14 2.49  17 2.49  19 2.51  16 2.51   6 2.64   4 2.64
                            12 2.72   3 3.19   3 3.19
  10  0.493  0.296  0.790-   2 2.46   1 2.46  15 2.49  13 2.49  20 2.51  18 2.51  11 2.64   7 2.64
                             5 2.72   8 3.19   8 3.19
  11  0.296  0.507  0.803-   2 2.46   1 2.46  20 2.49  18 2.49  16 2.51  19 2.51  10 2.64   3 2.64
                            12 2.72   4 3.19   4 3.19
  12  0.000  0.500  0.500-  15 2.45  16 2.45  13 2.45  19 2.45  18 2.50  17 2.50  14 2.50  20 2.50
                             7 2.72   8 2.72   9 2.72  11 2.72   5 3.19   5 3.19
  13  0.098  0.889  0.500-  12 2.45   6 2.49  10 2.49   5 2.50   8 2.51   7 2.51  17 2.67  20 2.67
                            19 2.71  15 3.11
  14  0.598  0.098  0.209-   5 2.45   7 2.49   9 2.49  12 2.50   3 2.51   6 2.51  15 2.67  19 2.67
                            20 2.71  17 3.11
  15  0.611  0.402  0.500-  12 2.45  10 2.49   6 2.49   5 2.50   7 2.51   8 2.51  18 2.67  14 2.67
                            16 2.71  13 3.11
  16  0.389  0.598  0.500-  12 2.45   3 2.49   4 2.49   5 2.50  11 2.51   9 2.51  17 2.67  20 2.67
                            15 2.71  19 3.11
  17  0.111  0.611  0.209-   5 2.45   9 2.49   7 2.49  12 2.50   6 2.51   3 2.51  16 2.67  13 2.67
                            18 2.71  14 3.11
  18  0.889  0.389  0.791-   5 2.45   8 2.49  11 2.49  12 2.50   4 2.51  10 2.51  15 2.67  19 2.67
                            17 2.71  20 3.11
  19  0.902  0.111  0.500-  12 2.45   4 2.49   3 2.49   5 2.50   9 2.51  11 2.51  18 2.67  14 2.67
                            13 2.71  16 3.11
  20  0.402  0.902  0.791-   5 2.45   8 2.49  11 2.49  12 2.50  10 2.51   4 2.51  13 2.67  16 2.67
                            14 2.71  18 3.11
 
  LATTYP: Found a body centered tetragonal cell.
 ALAT       =     9.1615494867
 C/A-ratio  =     0.6969346742
  
  Lattice vectors:
  
 A1 = (   7.0828863857,   0.0000000000,  -1.4111870386)
 A2 = (  -4.7672732994,   5.2383570746,  -1.4111870386)
 A3 = (   0.0000000000,   0.0000000000,   7.2221000000)


Analysis of symmetry for initial positions (statically):
=====================================================================
 Subroutine PRICEL returns:
 Original cell was already a primitive cell.
 

 Routine SETGRP: Setting up the symmetry group for a 
 body centered tetragonal supercell.


 Subroutine GETGRP returns: Found 16 space group operations
 (whereof  8 operations were pure point group operations)
 out of a pool of 16 trial point group operations.


The static configuration has the point symmetry C_4h.
 The point group associated with its full space group is D_4h.


Analysis of symmetry for dynamics (positions and initial velocities):
=====================================================================
 Subroutine PRICEL returns:
 Original cell was already a primitive cell.
 

 Routine SETGRP: Setting up the symmetry group for a 
 body centered tetragonal supercell.


 Subroutine GETGRP returns: Found 16 space group operations
 (whereof  8 operations were pure point group operations)
 out of a pool of 16 trial point group operations.


The dynamic configuration has the point symmetry C_4h.
 The point group associated with its full space group is D_4h.


 Subroutine INISYM returns: Found 16 space group operations
 (whereof  8 operations are pure point group operations),
 and found     1 'primitive' translations


----------------------------------------------------------------------------------------

                                     Primitive cell                                     

  volume of cell :     267.9593

  direct lattice vectors                    reciprocal lattice vectors
     7.082886386  0.000000000 -1.411187039     0.141185379  0.128488623  0.000000000
    -4.767273299  5.238357075 -1.411187039     0.000000000  0.190899548  0.000000000
     0.000000000  0.000000000  7.222100000     0.027587402  0.062407949  0.138463882

  length of vectors
     7.222100000  7.222100000  7.222100000     0.190899548  0.190899548  0.154363413

  position of ions in fractional coordinates (direct lattice)
     0.750000000  0.750000000  0.000000000
     0.250000000  0.250000000  0.000000000
     0.506500000  0.703610000  0.210110000
     0.796390000  0.993500000  0.789890000
     0.500000000  0.000000000  0.500000000
     0.203610000  0.006500000  0.210110000
     0.703610000  0.493500000  0.197110000
     0.006500000  0.796390000  0.802890000
     0.993500000  0.203610000  0.197110000
     0.493500000  0.296390000  0.789890000
     0.296390000  0.506500000  0.802890000
     0.000000000  0.500000000  0.500000000
     0.098390000  0.889420000  0.500000000
     0.598390000  0.098390000  0.208970000
     0.610580000  0.401610000  0.500000000
     0.389420000  0.598390000  0.500000000
     0.110580000  0.610580000  0.208970000
     0.889420000  0.389420000  0.791030000
     0.901610000  0.110580000  0.500000000
     0.401610000  0.901610000  0.791030000

  ion indices of the primitive-cell ions
   primitive index   ion index
                 1           1
                 2           2
                 3           3
                 4           4
                 5           5
                 6           6
                 7           7
                 8           8
                 9           9
                10          10
                11          11
                12          12
                13          13
                14          14
                15          15
                16          16
                17          17
                18          18
                19          19
                20          20

----------------------------------------------------------------------------------------

 
 
 KPOINTS: EA                                      

Automatic generation of k-mesh.
 Grid dimensions read from file:
 generate k-points for:    7    7    6

 Generating k-lattice:

  Cartesian coordinates                     Fractional coordinates (reciprocal lattice)
     0.020169340  0.018355518  0.000000000     0.142857143  0.000000000  0.000000000
     0.000000000  0.027271364  0.000000000     0.000000000  0.142857143  0.000000000
     0.004597900  0.010401325  0.023077314     0.000000000  0.000000000  0.166666667

  Length of vectors
     0.027271364  0.027271364  0.025727236

  Shift w.r.t. Gamma in fractional coordinates (k-lattice)
     0.000000000  0.000000000  0.000000000

 -----------------------------------------------------------------------------
|                                                                             |
|           W    W    AA    RRRRR   N    N  II  N    N   GGGG   !!!           |
|           W    W   A  A   R    R  NN   N  II  NN   N  G    G  !!!           |
|           W    W  A    A  R    R  N N  N  II  N N  N  G       !!!           |
|           W WW W  AAAAAA  RRRRR   N  N N  II  N  N N  G  GGG   !            |
|           WW  WW  A    A  R   R   N   NN  II  N   NN  G    G                |
|           W    W  A    A  R    R  N    N  II  N    N   GGGG   !!!           |
|                                                                             |
|     Your reciprocal lattice and k-lattice belong to different lattice       |
|     classes:                                                                |
|                                                                             |
|        The reciprocal lattice is body-centered tetragonal,                  |
|        whereas your k-lattice is base-centered monoclinic.                  |
|                                                                             |
|     Results are often still useful ...                                      |
|                                                                             |
 -----------------------------------------------------------------------------

 WARNING: IBZKPT: internal override: KBLOWUP is changed to .FALSE.
      ... skipping the blow-up phase ...

 
 Subroutine IBZKPT returns following result:
 ===========================================
 
 Found     88 irreducible k-points:
 
 Following reciprocal coordinates:
            Coordinates               Weight
  0.000000  0.000000  0.000000      1.000000
  0.142857  0.000000  0.000000      4.000000
  0.285714  0.000000  0.000000      4.000000
  0.428571  0.000000  0.000000      4.000000
  0.142857  0.142857  0.000000      2.000000
  0.285714  0.142857  0.000000      4.000000
  0.428571  0.142857  0.000000      4.000000
 -0.428571  0.142857  0.000000      4.000000
 -0.285714  0.142857  0.000000      4.000000
 -0.142857  0.142857  0.000000      2.000000
  0.285714  0.285714  0.000000      2.000000
  0.428571  0.285714  0.000000      4.000000
 -0.428571  0.285714  0.000000      4.000000
 -0.285714  0.285714  0.000000      2.000000
  0.428571  0.428571  0.000000      2.000000
 -0.428571  0.428571  0.000000      2.000000
  0.000000  0.000000  0.166667      2.000000
  0.142857 -0.000000  0.166667      4.000000
  0.285714  0.000000  0.166667      4.000000
  0.428571  0.000000  0.166667      4.000000
 -0.428571  0.000000  0.166667      4.000000
 -0.285714 -0.000000  0.166667      4.000000
 -0.142857  0.000000  0.166667      4.000000
  0.142857  0.142857  0.166667      2.000000
  0.285714  0.142857  0.166667      4.000000
  0.428571  0.142857  0.166667      4.000000
 -0.428571  0.142857  0.166667      4.000000
 -0.285714  0.142857  0.166667      4.000000
 -0.142857  0.142857  0.166667      4.000000
  0.285714  0.285714  0.166667      2.000000
  0.428571  0.285714  0.166667      4.000000
 -0.428571  0.285714  0.166667      4.000000
 -0.285714  0.285714  0.166667      4.000000
 -0.142857  0.285714  0.166667      4.000000
  0.428571  0.428571  0.166667      2.000000
 -0.428571  0.428571  0.166667      4.000000
 -0.285714  0.428571  0.166667      4.000000
 -0.142857  0.428571  0.166667      4.000000
 -0.428571 -0.428571  0.166667      2.000000
 -0.285714 -0.428571  0.166667      4.000000
 -0.142857 -0.428571  0.166667      4.000000
 -0.285714 -0.285714  0.166667      2.000000
 -0.142857 -0.285714  0.166667      4.000000
 -0.142857 -0.142857  0.166667      2.000000
  0.000000  0.000000  0.333333      2.000000
  0.142857  0.000000  0.333333      4.000000
  0.285714 -0.000000  0.333333      4.000000
  0.428571  0.000000  0.333333      4.000000
 -0.428571 -0.000000  0.333333      4.000000
 -0.285714 -0.000000  0.333333      4.000000
 -0.142857  0.000000  0.333333      4.000000
  0.142857  0.142857  0.333333      2.000000
  0.285714  0.142857  0.333333      4.000000
  0.428571  0.142857  0.333333      4.000000
 -0.428571  0.142857  0.333333      4.000000
 -0.285714  0.142857  0.333333      4.000000
 -0.142857  0.142857  0.333333      4.000000
  0.285714  0.285714  0.333333      2.000000
  0.428571  0.285714  0.333333      4.000000
 -0.428571  0.285714  0.333333      4.000000
 -0.285714  0.285714  0.333333      4.000000
 -0.142857  0.285714  0.333333      4.000000
  0.428571  0.428571  0.333333      2.000000
 -0.428571  0.428571  0.333333      4.000000
 -0.285714  0.428571  0.333333      4.000000
 -0.142857  0.428571  0.333333      4.000000
 -0.428571 -0.428571  0.333333      2.000000
 -0.285714 -0.428571  0.333333      4.000000
 -0.142857 -0.428571  0.333333      4.000000
 -0.285714 -0.285714  0.333333      2.000000
 -0.142857 -0.285714  0.333333      4.000000
 -0.142857 -0.142857  0.333333      2.000000
  0.000000 -0.000000  0.500000      1.000000
  0.142857 -0.000000  0.500000      4.000000
  0.285714  0.000000  0.500000      4.000000
  0.428571  0.000000  0.500000      4.000000
  0.142857  0.142857  0.500000      2.000000
  0.285714  0.142857  0.500000      4.000000
  0.428571  0.142857  0.500000      4.000000
 -0.428571  0.142857  0.500000      4.000000
 -0.285714  0.142857  0.500000      4.000000
 -0.142857  0.142857  0.500000      2.000000
  0.285714  0.285714  0.500000      2.000000
  0.428571  0.285714  0.500000      4.000000
 -0.428571  0.285714  0.500000      4.000000
 -0.285714  0.285714  0.500000      2.000000
  0.428571  0.428571  0.500000      2.000000
 -0.428571  0.428571  0.500000      2.000000
 
 Following cartesian coordinates:
            Coordinates               Weight
  0.000000  0.000000  0.000000      1.000000
  0.020169  0.018356  0.000000      4.000000
  0.040339  0.036711  0.000000      4.000000
  0.060508  0.055067  0.000000      4.000000
  0.020169  0.045627  0.000000      2.000000
  0.040339  0.063982  0.000000      4.000000
  0.060508  0.082338  0.000000      4.000000
 -0.060508 -0.027795  0.000000      4.000000
 -0.040339 -0.009440  0.000000      4.000000
 -0.020169  0.008916  0.000000      2.000000
  0.040339  0.091254  0.000000      2.000000
  0.060508  0.109609  0.000000      4.000000
 -0.060508 -0.000524  0.000000      4.000000
 -0.040339  0.017832  0.000000      2.000000
  0.060508  0.136881  0.000000      2.000000
 -0.060508  0.026748  0.000000      2.000000
  0.004598  0.010401  0.023077      2.000000
  0.024767  0.028757  0.023077      4.000000
  0.044937  0.047112  0.023077      4.000000
  0.065106  0.065468  0.023077      4.000000
 -0.055910 -0.044665  0.023077      4.000000
 -0.035741 -0.026310  0.023077      4.000000
 -0.015571 -0.007954  0.023077      4.000000
  0.024767  0.056028  0.023077      2.000000
  0.044937  0.074384  0.023077      4.000000
  0.065106  0.092739  0.023077      4.000000
 -0.055910 -0.017394  0.023077      4.000000
 -0.035741  0.000962  0.023077      4.000000
 -0.015571  0.019317  0.023077      4.000000
  0.044937  0.101655  0.023077      2.000000
  0.065106  0.120011  0.023077      4.000000
 -0.055910  0.009878  0.023077      4.000000
 -0.035741  0.028233  0.023077      4.000000
 -0.015571  0.046589  0.023077      4.000000
  0.065106  0.147282  0.023077      2.000000
 -0.055910  0.037149  0.023077      4.000000
 -0.035741  0.055504  0.023077      4.000000
 -0.015571  0.073860  0.023077      4.000000
 -0.055910 -0.126479  0.023077      2.000000
 -0.035741 -0.108124  0.023077      4.000000
 -0.015571 -0.089768  0.023077      4.000000
 -0.035741 -0.080852  0.023077      2.000000
 -0.015571 -0.062497  0.023077      4.000000
 -0.015571 -0.035226  0.023077      2.000000
  0.009196  0.020803  0.046155      2.000000
  0.029365  0.039158  0.046155      4.000000
  0.049534  0.057514  0.046155      4.000000
  0.069704  0.075869  0.046155      4.000000
 -0.051312 -0.034264  0.046155      4.000000
 -0.031143 -0.015908  0.046155      4.000000
 -0.010974  0.002447  0.046155      4.000000
  0.029365  0.066430  0.046155      2.000000
  0.049534  0.084785  0.046155      4.000000
  0.069704  0.103141  0.046155      4.000000
 -0.051312 -0.006993  0.046155      4.000000
 -0.031143  0.011363  0.046155      4.000000
 -0.010974  0.029718  0.046155      4.000000
  0.049534  0.112056  0.046155      2.000000
  0.069704  0.130412  0.046155      4.000000
 -0.051312  0.020279  0.046155      4.000000
 -0.031143  0.038634  0.046155      4.000000
 -0.010974  0.056990  0.046155      4.000000
  0.069704  0.157683  0.046155      2.000000
 -0.051312  0.047550  0.046155      4.000000
 -0.031143  0.065906  0.046155      4.000000
 -0.010974  0.084261  0.046155      4.000000
 -0.051312 -0.116078  0.046155      2.000000
 -0.031143 -0.097722  0.046155      4.000000
 -0.010974 -0.079367  0.046155      4.000000
 -0.031143 -0.070451  0.046155      2.000000
 -0.010974 -0.052096  0.046155      4.000000
 -0.010974 -0.024824  0.046155      2.000000
  0.013794  0.031204  0.069232      1.000000
  0.033963  0.049559  0.069232      4.000000
  0.054132  0.067915  0.069232      4.000000
  0.074302  0.086271  0.069232      4.000000
  0.033963  0.076831  0.069232      2.000000
  0.054132  0.095186  0.069232      4.000000
  0.074302  0.113542  0.069232      4.000000
 -0.046714  0.003409  0.069232      4.000000
 -0.026545  0.021764  0.069232      4.000000
 -0.006376  0.040120  0.069232      2.000000
  0.054132  0.122458  0.069232      2.000000
  0.074302  0.140813  0.069232      4.000000
 -0.046714  0.030680  0.069232      4.000000
 -0.026545  0.049036  0.069232      2.000000
  0.074302  0.168085  0.069232      2.000000
 -0.046714  0.057952  0.069232      2.000000
 


--------------------------------------------------------------------------------------------------------




 Dimension of arrays:
   k-points           NKPTS =     88   k-points in BZ     NKDIM =     88   number of bands    NBANDS=    108
   number of dos      NEDOS =    301   number of ions     NIONS =     20
   non local maximal  LDIM  =      6   non local SUM 2l+1 LMDIM =     18
   total plane-waves  NPLWV = 216000
   max r-space proj   IRMAX =      1   max aug-charges    IRDMAX= 282180
   dimension x,y,z NGX =    60 NGY =   60 NGZ =   60
   dimension x,y,z NGXF=   120 NGYF=  120 NGZF=  120
   support grid    NGXF=   240 NGYF=  240 NGZF=  240
   ions per type =               2  10   8
   NGX,Y,Z   is equivalent  to a cutoff of  13.81, 13.81, 13.81 a.u.
   NGXF,Y,Z  is equivalent  to a cutoff of  27.62, 27.62, 27.62 a.u.

 SYSTEM =  routine with relax: pwdword             
 POSCAR =  EA212                                   

 Startparameter for this run:
   NWRITE =      2    write-flag & timer
   PREC   = acc       normal or accurate (medium, high low for compatibility)
   ISTART =      0    job   : 0-new  1-cont  2-samecut
   ICHARG =      2    charge: 1-file 2-atom 10-const
   ISPIN  =      1    spin polarized calculation?
   LNONCOLLINEAR =      F non collinear calculations
   LSORBIT =      F    spin-orbit coupling
   INIWAV =      1    electr: 0-lowe 1-rand  2-diag
   LASPH  =      T    aspherical Exc in radial PAW
   METAGGA=      F    non-selfconsistent MetaGGA calc.

 Electronic Relaxation 1
   ENCUT  =  600.0 eV  44.10 Ry    6.64 a.u.  14.42 14.42 14.42*2*pi/ulx,y,z
   ENINI  =  600.0     initial cutoff
   ENAUG  =  535.5 eV  augmentation charge cutoff
   NELM   =    100;   NELMIN=  6; NELMDL= -5     # of ELM steps 
   EDIFF  = 0.1E-08   stopping-criterion for ELM
   LREAL  =      F    real-space projection
   NLSPLINE    = F    spline interpolate recip. space projectors
   LCOMPAT=      F    compatible to vasp.4.4
   GGA_COMPAT  = T    GGA compatible to vasp.4.4-vasp.4.6
   LMAXPAW     = -100 max onsite density
   LMAXMIX     =    2 max onsite mixed and CHGCAR
   VOSKOWN=      0    Vosko Wilk Nusair interpolation
   ROPT   =    0.00000   0.00000   0.00000
 Ionic relaxation
   EDIFFG = 0.1E-07   stopping-criterion for IOM
   NSW    =      0    number of steps for IOM
   NBLOCK =      1;   KBLOCK =      1    inner block; outer block 
   IBRION =     -1    ionic relax: 0-MD 1-quasi-New 2-CG
   NFREE  =      0    steps in history (QN), initial steepest desc. (CG)
   ISIF   =     -1    stress and relaxation
   IWAVPR =     10    prediction:  0-non 1-charg 2-wave 3-comb
   ISYM   =      2    0-nonsym 1-usesym 2-fastsym
   LCORR  =      T    Harris-Foulkes like correction to forces

   POTIM  = 0.5000    time-step for ionic-motion
   TEIN   =    0.0    initial temperature
   TEBEG  =    0.0;   TEEND  =   0.0 temperature during run
   SMASS  =  -3.00    Nose mass-parameter (am)
   estimated Nose-frequenzy (Omega)   =  0.10E-29 period in steps = 0.13E+47 mass=  -0.119E-26a.u.
   SCALEE = 1.0000    scale energy and forces
   NPACO  =    256;   APACO  = 16.0  distance and # of slots for P.C.
   PSTRESS=    0.0 pullay stress

  Mass of Ions in am
   POMASS =  10.81 95.94 28.09
  Ionic Valenz
   ZVAL   =   3.00 14.00  4.00
  Atomic Wigner-Seitz radii
   RWIGS  =  -1.00 -1.00 -1.00
  virtual crystal weights 
   VCA    =   1.00  1.00  1.00
   NELECT =     178.0000    total number of electrons
   NUPDOWN=      -1.0000    fix difference up-down

 DOS related values:
   EMIN   =  10.00;   EMAX   =-10.00  energy-range for DOS
   EFERMI =   0.00
   ISMEAR =     0;   SIGMA  =   0.02  broadening in eV -4-tet -1-fermi 0-gaus

 Electronic relaxation 2 (details)
   IALGO  =     58    algorithm
   LDIAG  =      T    sub-space diagonalisation (order eigenvalues)
   LSUBROT=      F    optimize rotation matrix (better conditioning)
   TURBO    =      0    0=normal 1=particle mesh
   IRESTART =      0    0=no restart 2=restart with 2 vectors
   NREBOOT  =      0    no. of reboots
   NMIN     =      0    reboot dimension
   EREF     =   0.00    reference energy to select bands
   IMIX   =      4    mixing-type and parameters
     AMIX     =   0.40;   BMIX     =  1.00
     AMIX_MAG =   1.60;   BMIX_MAG =  1.00
     AMIN     =   0.10
     WC   =   100.;   INIMIX=   1;  MIXPRE=   1;  MAXMIX= -45

 Intra band minimization:
   WEIMIN = 0.0000     energy-eigenvalue tresh-hold
   EBREAK =  0.23E-11  absolut break condition
   DEPER  =   0.30     relativ break condition  

   TIME   =   0.40     timestep for ELM

  volume/ion in A,a.u.               =      13.40        90.41
  Fermi-wavevector in a.u.,A,eV,Ry     =   1.428429  2.699339 27.761440  2.040408
  Thomas-Fermi vector in A             =   2.548491
 
 Write flags
   LWAVE        =      T    write WAVECAR
   LDOWNSAMPLE  =      F    k-point downsampling of WAVECAR
   LCHARG       =      T    write CHGCAR
   LVTOT        =      F    write LOCPOT, total local potential
   LVHAR        =      F    write LOCPOT, Hartree potential only
   LELF         =      F    write electronic localiz. function (ELF)
   LORBIT       =      0    0 simple, 1 ext, 2 COOP (PROOUT), +10 PAW based schemes


 Dipole corrections
   LMONO  =      F    monopole corrections only (constant potential shift)
   LDIPOL =      F    correct potential (dipole corrections)
   IDIPOL =      0    1-x, 2-y, 3-z, 4-all directions 
   EPSILON=  1.0000000 bulk dielectric constant

 Exchange correlation treatment:
   GGA     =    --    GGA type
   LEXCH   =     8    internal setting for exchange type
   VOSKOWN=      0    Vosko Wilk Nusair interpolation
   LHFCALC =     F    Hartree Fock is set to
   LHFONE  =     F    Hartree Fock one center treatment
   AEXX    =    0.0000 exact exchange contribution

 Linear response parameters
   LEPSILON=     F    determine dielectric tensor
   LRPA    =     F    only Hartree local field effects (RPA)
   LNABLA  =     F    use nabla operator in PAW spheres
   LVEL    =     F    velocity operator in full k-point grid
   LINTERFAST=   F  fast interpolation
   KINTER  =     0    interpolate to denser k-point grid
   CSHIFT  =0.1000    complex shift for real part using Kramers Kronig
   OMEGAMAX=  -1.0    maximum frequency
   DEG_THRESHOLD= 0.2000000E-02 threshold for treating states as degnerate
   RTIME   =   -0.100 relaxation time in fs
  (WPLASMAI=    0.000 imaginary part of plasma frequency in eV, 0.658/RTIME)
   DFIELD  = 0.0000000 0.0000000 0.0000000 field for delta impulse in time
 
 Orbital magnetization related:
   ORBITALMAG=     F  switch on orbital magnetization
   LCHIMAG   =     F  perturbation theory with respect to B field
   DQ        =  0.001000  dq finite difference perturbation B field
   LLRAUG    =     F  two centre corrections for induced B field



--------------------------------------------------------------------------------------------------------


 Static calculation
 charge density and potential will be updated during run
 non-spin polarized calculation
 Conjugate gradient for all bands (Freysoldt, et al. PRB 79, 241103 (2009))
 preconditioned conjugated gradient                                        
 perform sub-space diagonalisation
    before iterative eigenvector-optimisation
 modified Broyden-mixing scheme, WC =      100.0
 initial mixing is a Kerker type mixing with AMIX =  0.4000 and BMIX =      1.0000
 Hartree-type preconditioning will be used
 using additional bands           19
 reciprocal scheme for non local part
 use partial core corrections
 no Harris-corrections to forces 
 use gradient corrections 
 use of overlap-Matrix (Vanderbilt PP)
 Gauss-broadening in eV      SIGMA  =   0.02


--------------------------------------------------------------------------------------------------------


  energy-cutoff  :      600.00
  volume of cell :      267.96
      direct lattice vectors                 reciprocal lattice vectors
     7.082886386  0.000000000 -1.411187039     0.141185379  0.128488623  0.000000000
    -4.767273299  5.238357075 -1.411187039     0.000000000  0.190899548  0.000000000
     0.000000000  0.000000000  7.222100000     0.027587402  0.062407949  0.138463882

  length of vectors
     7.222100000  7.222100000  7.222100000     0.190899548  0.190899548  0.154363413


 
 k-points in units of 2pi/SCALE and weight: EA                                      
   0.00000000  0.00000000  0.00000000       0.003
   0.02016934  0.01835552  0.00000000       0.014
   0.04033868  0.03671104  0.00000000       0.014
   0.06050802  0.05506655  0.00000000       0.014
   0.02016934  0.04562688  0.00000000       0.007
   0.04033868  0.06398240  0.00000000       0.014
   0.06050802  0.08233792  0.00000000       0.014
  -0.06050802 -0.02779519  0.00000000       0.014
  -0.04033868 -0.00943967  0.00000000       0.014
  -0.02016934  0.00891585  0.00000000       0.007
   0.04033868  0.09125376  0.00000000       0.007
   0.06050802  0.10960928  0.00000000       0.014
  -0.06050802 -0.00052382  0.00000000       0.014
  -0.04033868  0.01783169  0.00000000       0.007
   0.06050802  0.13688064  0.00000000       0.007
  -0.06050802  0.02674754  0.00000000       0.007
   0.00459790  0.01040132  0.02307731       0.007
   0.02476724  0.02875684  0.02307731       0.014
   0.04493658  0.04711236  0.02307731       0.014
   0.06510592  0.06546788  0.02307731       0.014
  -0.05591012 -0.04466523  0.02307731       0.014
  -0.03574078 -0.02630971  0.02307731       0.014
  -0.01557144 -0.00795419  0.02307731       0.014
   0.02476724  0.05602821  0.02307731       0.007
   0.04493658  0.07438372  0.02307731       0.014
   0.06510592  0.09273924  0.02307731       0.014
  -0.05591012 -0.01739386  0.02307731       0.014
  -0.03574078  0.00096165  0.02307731       0.014
  -0.01557144  0.01931717  0.02307731       0.014
   0.04493658  0.10165509  0.02307731       0.007
   0.06510592  0.12001061  0.02307731       0.014
  -0.05591012  0.00987750  0.02307731       0.014
  -0.03574078  0.02823302  0.02307731       0.014
  -0.01557144  0.04658854  0.02307731       0.014
   0.06510592  0.14728197  0.02307731       0.007
  -0.05591012  0.03714886  0.02307731       0.014
  -0.03574078  0.05550438  0.02307731       0.014
  -0.01557144  0.07385990  0.02307731       0.014
  -0.05591012 -0.12647932  0.02307731       0.007
  -0.03574078 -0.10812380  0.02307731       0.014
  -0.01557144 -0.08976828  0.02307731       0.014
  -0.03574078 -0.08085244  0.02307731       0.007
  -0.01557144 -0.06249692  0.02307731       0.014
  -0.01557144 -0.03522556  0.02307731       0.007
   0.00919580  0.02080265  0.04615463       0.007
   0.02936514  0.03915817  0.04615463       0.014
   0.04953448  0.05751368  0.04615463       0.014
   0.06970382  0.07586920  0.04615463       0.014
  -0.05131222 -0.03426390  0.04615463       0.014
  -0.03114288 -0.01590839  0.04615463       0.014
  -0.01097354  0.00244713  0.04615463       0.014
   0.02936514  0.06642953  0.04615463       0.007
   0.04953448  0.08478505  0.04615463       0.014
   0.06970382  0.10314057  0.04615463       0.014
  -0.05131222 -0.00699254  0.04615463       0.014
  -0.03114288  0.01136298  0.04615463       0.014
  -0.01097354  0.02971850  0.04615463       0.014
   0.04953448  0.11205641  0.04615463       0.007
   0.06970382  0.13041193  0.04615463       0.014
  -0.05131222  0.02027882  0.04615463       0.014
  -0.03114288  0.03863434  0.04615463       0.014
  -0.01097354  0.05698986  0.04615463       0.014
   0.06970382  0.15768329  0.04615463       0.007
  -0.05131222  0.04755019  0.04615463       0.014
  -0.03114288  0.06590571  0.04615463       0.014
  -0.01097354  0.08426122  0.04615463       0.014
  -0.05131222 -0.11607800  0.04615463       0.007
  -0.03114288 -0.09772248  0.04615463       0.014
  -0.01097354 -0.07936696  0.04615463       0.014
  -0.03114288 -0.07045111  0.04615463       0.007
  -0.01097354 -0.05209560  0.04615463       0.014
  -0.01097354 -0.02482423  0.04615463       0.007
   0.01379370  0.03120397  0.06923194       0.003
   0.03396304  0.04955949  0.06923194       0.014
   0.05413238  0.06791501  0.06923194       0.014
   0.07430172  0.08627053  0.06923194       0.014
   0.03396304  0.07683086  0.06923194       0.007
   0.05413238  0.09518637  0.06923194       0.014
   0.07430172  0.11354189  0.06923194       0.014
  -0.04671432  0.00340879  0.06923194       0.014
  -0.02654498  0.02176430  0.06923194       0.014
  -0.00637564  0.04011982  0.06923194       0.007
   0.05413238  0.12245774  0.06923194       0.007
   0.07430172  0.14081326  0.06923194       0.014
  -0.04671432  0.03068015  0.06923194       0.014
  -0.02654498  0.04903567  0.06923194       0.007
   0.07430172  0.16808462  0.06923194       0.007
  -0.04671432  0.05795151  0.06923194       0.007
 
 k-points in reciprocal lattice and weights: EA                                      
   0.00000000  0.00000000  0.00000000       0.003
   0.14285714  0.00000000  0.00000000       0.014
   0.28571429  0.00000000  0.00000000       0.014
   0.42857143  0.00000000  0.00000000       0.014
   0.14285714  0.14285714  0.00000000       0.007
   0.28571429  0.14285714  0.00000000       0.014
   0.42857143  0.14285714  0.00000000       0.014
  -0.42857143  0.14285714  0.00000000       0.014
  -0.28571429  0.14285714  0.00000000       0.014
  -0.14285714  0.14285714  0.00000000       0.007
   0.28571429  0.28571429  0.00000000       0.007
   0.42857143  0.28571429  0.00000000       0.014
  -0.42857143  0.28571429  0.00000000       0.014
  -0.28571429  0.28571429  0.00000000       0.007
   0.42857143  0.42857143  0.00000000       0.007
  -0.42857143  0.42857143  0.00000000       0.007
   0.00000000  0.00000000  0.16666667       0.007
   0.14285714 -0.00000000  0.16666667       0.014
   0.28571429  0.00000000  0.16666667       0.014
   0.42857143  0.00000000  0.16666667       0.014
  -0.42857143  0.00000000  0.16666667       0.014
  -0.28571429 -0.00000000  0.16666667       0.014
  -0.14285714  0.00000000  0.16666667       0.014
   0.14285714  0.14285714  0.16666667       0.007
   0.28571429  0.14285714  0.16666667       0.014
   0.42857143  0.14285714  0.16666667       0.014
  -0.42857143  0.14285714  0.16666667       0.014
  -0.28571429  0.14285714  0.16666667       0.014
  -0.14285714  0.14285714  0.16666667       0.014
   0.28571429  0.28571429  0.16666667       0.007
   0.42857143  0.28571429  0.16666667       0.014
  -0.42857143  0.28571429  0.16666667       0.014
  -0.28571429  0.28571429  0.16666667       0.014
  -0.14285714  0.28571429  0.16666667       0.014
   0.42857143  0.42857143  0.16666667       0.007
  -0.42857143  0.42857143  0.16666667       0.014
  -0.28571429  0.42857143  0.16666667       0.014
  -0.14285714  0.42857143  0.16666667       0.014
  -0.42857143 -0.42857143  0.16666667       0.007
  -0.28571429 -0.42857143  0.16666667       0.014
  -0.14285714 -0.42857143  0.16666667       0.014
  -0.28571429 -0.28571429  0.16666667       0.007
  -0.14285714 -0.28571429  0.16666667       0.014
  -0.14285714 -0.14285714  0.16666667       0.007
   0.00000000  0.00000000  0.33333333       0.007
   0.14285714  0.00000000  0.33333333       0.014
   0.28571429 -0.00000000  0.33333333       0.014
   0.42857143  0.00000000  0.33333333       0.014
  -0.42857143 -0.00000000  0.33333333       0.014
  -0.28571429 -0.00000000  0.33333333       0.014
  -0.14285714  0.00000000  0.33333333       0.014
   0.14285714  0.14285714  0.33333333       0.007
   0.28571429  0.14285714  0.33333333       0.014
   0.42857143  0.14285714  0.33333333       0.014
  -0.42857143  0.14285714  0.33333333       0.014
  -0.28571429  0.14285714  0.33333333       0.014
  -0.14285714  0.14285714  0.33333333       0.014
   0.28571429  0.28571429  0.33333333       0.007
   0.42857143  0.28571429  0.33333333       0.014
  -0.42857143  0.28571429  0.33333333       0.014
  -0.28571429  0.28571429  0.33333333       0.014
  -0.14285714  0.28571429  0.33333333       0.014
   0.42857143  0.42857143  0.33333333       0.007
  -0.42857143  0.42857143  0.33333333       0.014
  -0.28571429  0.42857143  0.33333333       0.014
  -0.14285714  0.42857143  0.33333333       0.014
  -0.42857143 -0.42857143  0.33333333       0.007
  -0.28571429 -0.42857143  0.33333333       0.014
  -0.14285714 -0.42857143  0.33333333       0.014
  -0.28571429 -0.28571429  0.33333333       0.007
  -0.14285714 -0.28571429  0.33333333       0.014
  -0.14285714 -0.14285714  0.33333333       0.007
   0.00000000 -0.00000000  0.50000000       0.003
   0.14285714 -0.00000000  0.50000000       0.014
   0.28571429  0.00000000  0.50000000       0.014
   0.42857143  0.00000000  0.50000000       0.014
   0.14285714  0.14285714  0.50000000       0.007
   0.28571429  0.14285714  0.50000000       0.014
   0.42857143  0.14285714  0.50000000       0.014
  -0.42857143  0.14285714  0.50000000       0.014
  -0.28571429  0.14285714  0.50000000       0.014
  -0.14285714  0.14285714  0.50000000       0.007
   0.28571429  0.28571429  0.50000000       0.007
   0.42857143  0.28571429  0.50000000       0.014
  -0.42857143  0.28571429  0.50000000       0.014
  -0.28571429  0.28571429  0.50000000       0.007
   0.42857143  0.42857143  0.50000000       0.007
  -0.42857143  0.42857143  0.50000000       0.007
 
 position of ions in fractional coordinates (direct lattice) 
   0.75000000  0.75000000  0.00000000
   0.25000000  0.25000000  0.00000000
   0.50650000  0.70361000  0.21011000
   0.79639000  0.99350000  0.78989000
   0.50000000  0.00000000  0.50000000
   0.20361000  0.00650000  0.21011000
   0.70361000  0.49350000  0.19711000
   0.00650000  0.79639000  0.80289000
   0.99350000  0.20361000  0.19711000
   0.49350000  0.29639000  0.78989000
   0.29639000  0.50650000  0.80289000
   0.00000000  0.50000000  0.50000000
   0.09839000  0.88942000  0.50000000
   0.59839000  0.09839000  0.20897000
   0.61058000  0.40161000  0.50000000
   0.38942000  0.59839000  0.50000000
   0.11058000  0.61058000  0.20897000
   0.88942000  0.38942000  0.79103000
   0.90161000  0.11058000  0.50000000
   0.40161000  0.90161000  0.79103000
 
 position of ions in cartesian coordinates  (Angst):
   1.73670981  3.92876781 -2.11678056
   0.57890327  1.30958927 -0.70559352
   0.23318079  3.68576042 -0.19025612
   0.90445387  5.20430775  3.17879500
   3.54144319  0.00000000  2.90545648
   1.41115922  0.03404932  1.22093092
   2.63094032  2.58512922 -0.26579798
  -3.75057002  4.17177519  4.66552391
   6.06618311  1.06658188 -0.26579798
   2.08243230  1.55259665  4.58998204
  -0.31532723  2.65322786  4.66552391
  -2.38363665  2.61917854  2.90545648
  -3.54322303  4.65909955  2.21706533
   3.76927636  0.51540195  0.52591533
   2.41008414  2.10377658  2.18266059
  -0.09447105  3.13458049  2.21706533
  -2.12757615  3.19843606  0.49151059
   4.44318924  2.03992101  3.90821533
   5.85883611  0.57925753  2.18266059
  -1.45366328  4.72295512  3.87381059
 


--------------------------------------------------------------------------------------------------------


 k-point   1 :   0.0000 0.0000 0.0000  plane waves:    8977
 k-point   2 :   0.1429 0.0000 0.0000  plane waves:    8973
 k-point   3 :   0.2857 0.0000 0.0000  plane waves:    8946
 k-point   4 :   0.4286 0.0000 0.0000  plane waves:    8946
 k-point   5 :   0.1429 0.1429 0.0000  plane waves:    8957
 k-point   6 :   0.2857 0.1429 0.0000  plane waves:    8952
 k-point   7 :   0.4286 0.1429 0.0000  plane waves:    8937
 k-point   8 :  -0.4286 0.1429 0.0000  plane waves:    8944
 k-point   9 :  -0.2857 0.1429 0.0000  plane waves:    8939
 k-point  10 :  -0.1429 0.1429 0.0000  plane waves:    8968
 k-point  11 :   0.2857 0.2857 0.0000  plane waves:    8944
 k-point  12 :   0.4286 0.2857 0.0000  plane waves:    8930
 k-point  13 :  -0.4286 0.2857 0.0000  plane waves:    8939
 k-point  14 :  -0.2857 0.2857 0.0000  plane waves:    8942
 k-point  15 :   0.4286 0.4286 0.0000  plane waves:    8935
 k-point  16 :  -0.4286 0.4286 0.0000  plane waves:    8940
 k-point  17 :   0.0000 0.0000 0.1667  plane waves:    8958
 k-point  18 :   0.1429-0.0000 0.1667  plane waves:    8943
 k-point  19 :   0.2857 0.0000 0.1667  plane waves:    8943
 k-point  20 :   0.4286 0.0000 0.1667  plane waves:    8936
 k-point  21 :  -0.4286 0.0000 0.1667  plane waves:    8946
 k-point  22 :  -0.2857-0.0000 0.1667  plane waves:    8968
 k-point  23 :  -0.1429 0.0000 0.1667  plane waves:    8974
 k-point  24 :   0.1429 0.1429 0.1667  plane waves:    8949
 k-point  25 :   0.2857 0.1429 0.1667  plane waves:    8945
 k-point  26 :   0.4286 0.1429 0.1667  plane waves:    8945
 k-point  27 :  -0.4286 0.1429 0.1667  plane waves:    8950
 k-point  28 :  -0.2857 0.1429 0.1667  plane waves:    8940
 k-point  29 :  -0.1429 0.1429 0.1667  plane waves:    8970
 k-point  30 :   0.2857 0.2857 0.1667  plane waves:    8938
 k-point  31 :   0.4286 0.2857 0.1667  plane waves:    8936
 k-point  32 :  -0.4286 0.2857 0.1667  plane waves:    8935
 k-point  33 :  -0.2857 0.2857 0.1667  plane waves:    8954
 k-point  34 :  -0.1429 0.2857 0.1667  plane waves:    8942
 k-point  35 :   0.4286 0.4286 0.1667  plane waves:    8933
 k-point  36 :  -0.4286 0.4286 0.1667  plane waves:    8924
 k-point  37 :  -0.2857 0.4286 0.1667  plane waves:    8946
 k-point  38 :  -0.1429 0.4286 0.1667  plane waves:    8931
 k-point  39 :  -0.4286-0.4286 0.1667  plane waves:    8927
 k-point  40 :  -0.2857-0.4286 0.1667  plane waves:    8924
 k-point  41 :  -0.1429-0.4286 0.1667  plane waves:    8944
 k-point  42 :  -0.2857-0.2857 0.1667  plane waves:    8938
 k-point  43 :  -0.1429-0.2857 0.1667  plane waves:    8963
 k-point  44 :  -0.1429-0.1429 0.1667  plane waves:    8955
 k-point  45 :   0.0000 0.0000 0.3333  plane waves:    8942
 k-point  46 :   0.1429 0.0000 0.3333  plane waves:    8939
 k-point  47 :   0.2857-0.0000 0.3333  plane waves:    8932
 k-point  48 :   0.4286 0.0000 0.3333  plane waves:    8937
 k-point  49 :  -0.4286-0.0000 0.3333  plane waves:    8941
 k-point  50 :  -0.2857-0.0000 0.3333  plane waves:    8948
 k-point  51 :  -0.1429 0.0000 0.3333  plane waves:    8945
 k-point  52 :   0.1429 0.1429 0.3333  plane waves:    8940
 k-point  53 :   0.2857 0.1429 0.3333  plane waves:    8948
 k-point  54 :   0.4286 0.1429 0.3333  plane waves:    8949
 k-point  55 :  -0.4286 0.1429 0.3333  plane waves:    8945
 k-point  56 :  -0.2857 0.1429 0.3333  plane waves:    8956
 k-point  57 :  -0.1429 0.1429 0.3333  plane waves:    8929
 k-point  58 :   0.2857 0.2857 0.3333  plane waves:    8945
 k-point  59 :   0.4286 0.2857 0.3333  plane waves:    8938
 k-point  60 :  -0.4286 0.2857 0.3333  plane waves:    8946
 k-point  61 :  -0.2857 0.2857 0.3333  plane waves:    8937
 k-point  62 :  -0.1429 0.2857 0.3333  plane waves:    8945
 k-point  63 :   0.4286 0.4286 0.3333  plane waves:    8925
 k-point  64 :  -0.4286 0.4286 0.3333  plane waves:    8947
 k-point  65 :  -0.2857 0.4286 0.3333  plane waves:    8936
 k-point  66 :  -0.1429 0.4286 0.3333  plane waves:    8930
 k-point  67 :  -0.4286-0.4286 0.3333  plane waves:    8908
 k-point  68 :  -0.2857-0.4286 0.3333  plane waves:    8908
 k-point  69 :  -0.1429-0.4286 0.3333  plane waves:    8933
 k-point  70 :  -0.2857-0.2857 0.3333  plane waves:    8941
 k-point  71 :  -0.1429-0.2857 0.3333  plane waves:    8956
 k-point  72 :  -0.1429-0.1429 0.3333  plane waves:    8958
 k-point  73 :   0.0000-0.0000 0.5000  plane waves:    8950
 k-point  74 :   0.1429-0.0000 0.5000  plane waves:    8945
 k-point  75 :   0.2857 0.0000 0.5000  plane waves:    8947
 k-point  76 :   0.4286 0.0000 0.5000  plane waves:    8951
 k-point  77 :   0.1429 0.1429 0.5000  plane waves:    8940
 k-point  78 :   0.2857 0.1429 0.5000  plane waves:    8945
 k-point  79 :   0.4286 0.1429 0.5000  plane waves:    8944
 k-point  80 :  -0.4286 0.1429 0.5000  plane waves:    8937
 k-point  81 :  -0.2857 0.1429 0.5000  plane waves:    8942
 k-point  82 :  -0.1429 0.1429 0.5000  plane waves:    8932
 k-point  83 :   0.2857 0.2857 0.5000  plane waves:    8934
 k-point  84 :   0.4286 0.2857 0.5000  plane waves:    8921
 k-point  85 :  -0.4286 0.2857 0.5000  plane waves:    8934
 k-point  86 :  -0.2857 0.2857 0.5000  plane waves:    8936
 k-point  87 :   0.4286 0.4286 0.5000  plane waves:    8914
 k-point  88 :  -0.4286 0.4286 0.5000  plane waves:    8918

 maximum and minimum number of plane-waves per node :      4502     4447

 maximum number of plane-waves:      8977
 maximum index in each direction: 
   IXMAX=   14   IYMAX=   14   IZMAX=   14
   IXMIN=  -14   IYMIN=  -14   IZMIN=  -14


 parallel 3D FFT for wavefunctions:
    minimum data exchange during FFTs selected (reduces bandwidth)
 parallel 3D FFT for charge:
    minimum data exchange during FFTs selected (reduces bandwidth)


 total amount of memory used by VASP MPI-rank0   596125. kBytes
=======================================================================

   base      :      30000. kBytes
   nonl-proj :     172051. kBytes
   fftplans  :      24345. kBytes
   grid      :      18307. kBytes
   one-center:        155. kBytes
   wavefun   :     351267. kBytes
 
     INWAV:  cpu time    0.0001: real time    0.0001
 Broyden mixing: mesh for mixing (old mesh)
   NGX = 29   NGY = 29   NGZ = 29
  (NGX  =120   NGY  =120   NGZ  =120)
  gives a total of  24389 points

 initial charge density was supplied:
 charge density of overlapping atoms calculated
 number of electron     178.0000000 magnetization 
 keeping initial charge density in first step


--------------------------------------------------------------------------------------------------------


 Maximum index for augmentation-charges        22702 (set IRDMAX)


--------------------------------------------------------------------------------------------------------


 First call to EWALD:  gamma=   0.275
 Maximum number of real-space cells 3x 3x 3
 Maximum number of reciprocal cells 3x 3x 3

    FEWALD:  cpu time    0.0176: real time    0.0178


--------------------------------------- Iteration      1(   1)  ---------------------------------------


    POTLOK:  cpu time    0.3803: real time    0.3847
    SETDIJ:  cpu time    0.7535: real time    0.7590
    TRIAL :  cpu time   75.5564: real time   76.6856
    CORREC:  cpu time    0.0026: real time    0.0026
    --------------------------------------------
      LOOP:  cpu time   76.8130: real time   77.9579

 eigenvalue-minimisations  : 19380
 total energy-change (2. order) : 0.1907811E+04  (-0.1194166E+05)
 number of electron     178.0000000 magnetization 
 augmentation part      178.0000000 magnetization 

 Free energy of the ion-electron system (eV)
  ---------------------------------------------------
  alpha Z        PSCENC =       949.60274533
  Ewald energy   TEWEN  =    -15967.98306320
  -Hartree energ DENC   =     -4265.20479273
  -exchange      EXHF   =         0.00000000
  -V(xc)+E(xc)   XCENC  =       753.40261683
  PAW double counting   =     15611.18605970   -15491.59556298
  entropy T*S    EENTRO =        -0.00070143
  eigenvalues    EBANDS =       728.70673644
  atomic energy  EATOM  =     19589.69688559
  ---------------------------------------------------
  free energy    TOTEN  =      1907.81092354 eV

  energy without entropy =     1907.81162497  energy(sigma->0) =     1907.81127426


--------------------------------------------------------------------------------------------------------




--------------------------------------- Iteration      1(   2)  ---------------------------------------


    TRIAL :  cpu time   86.0038: real time   87.1522
    CORREC:  cpu time    0.0025: real time    0.0025
    --------------------------------------------
      LOOP:  cpu time   86.0092: real time   87.1586

 eigenvalue-minimisations  : 20460
 total energy-change (2. order) :-0.2208376E+04  (-0.2156166E+04)
 number of electron     178.0000000 magnetization 
 augmentation part      178.0000000 magnetization 

 Free energy of the ion-electron system (eV)
  ---------------------------------------------------
  alpha Z        PSCENC =       949.60274533
  Ewald energy   TEWEN  =    -15967.98306320
  -Hartree energ DENC   =     -4265.20479273
  -exchange      EXHF   =         0.00000000
  -V(xc)+E(xc)   XCENC  =       753.40261683
  PAW double counting   =     15611.18605970   -15491.59556298
  entropy T*S    EENTRO =        -0.00195860
  eigenvalues    EBANDS =     -1479.66754773
  atomic energy  EATOM  =     19589.69688559
  ---------------------------------------------------
  free energy    TOTEN  =      -300.56461779 eV

  energy without entropy =     -300.56265919  energy(sigma->0) =     -300.56363849


--------------------------------------------------------------------------------------------------------




--------------------------------------- Iteration      1(   3)  ---------------------------------------


    TRIAL :  cpu time   93.4854: real time   94.6394
    CORREC:  cpu time    0.0026: real time    0.0026
    --------------------------------------------
      LOOP:  cpu time   93.4904: real time   94.6450

 eigenvalue-minimisations  : 24660
 total energy-change (2. order) :-0.1061175E+03  (-0.1017038E+03)
 number of electron     178.0000000 magnetization 
 augmentation part      178.0000000 magnetization 

 Free energy of the ion-electron system (eV)
  ---------------------------------------------------
  alpha Z        PSCENC =       949.60274533
  Ewald energy   TEWEN  =    -15967.98306320
  -Hartree energ DENC   =     -4265.20479273
  -exchange      EXHF   =         0.00000000
  -V(xc)+E(xc)   XCENC  =       753.40261683
  PAW double counting   =     15611.18605970   -15491.59556298
  entropy T*S    EENTRO =        -0.00227672
  eigenvalues    EBANDS =     -1585.78477875
  atomic energy  EATOM  =     19589.69688559
  ---------------------------------------------------
  free energy    TOTEN  =      -406.68216693 eV

  energy without entropy =     -406.67989021  energy(sigma->0) =     -406.68102857


--------------------------------------------------------------------------------------------------------




--------------------------------------- Iteration      1(   4)  ---------------------------------------


    TRIAL :  cpu time   89.5200: real time   90.6080
    CORREC:  cpu time    0.0026: real time    0.0026
    --------------------------------------------
      LOOP:  cpu time   89.5242: real time   90.6136

 eigenvalue-minimisations  : 22716
 total energy-change (2. order) :-0.2873336E+01  (-0.2824764E+01)
 number of electron     178.0000000 magnetization 
 augmentation part      178.0000000 magnetization 

 Free energy of the ion-electron system (eV)
  ---------------------------------------------------
  alpha Z        PSCENC =       949.60274533
  Ewald energy   TEWEN  =    -15967.98306320
  -Hartree energ DENC   =     -4265.20479273
  -exchange      EXHF   =         0.00000000
  -V(xc)+E(xc)   XCENC  =       753.40261683
  PAW double counting   =     15611.18605970   -15491.59556298
  entropy T*S    EENTRO =        -0.00249145
  eigenvalues    EBANDS =     -1588.65790021
  atomic energy  EATOM  =     19589.69688559
  ---------------------------------------------------
  free energy    TOTEN  =      -409.55550312 eV

  energy without entropy =     -409.55301167  energy(sigma->0) =     -409.55425739


--------------------------------------------------------------------------------------------------------




--------------------------------------- Iteration      1(   5)  ---------------------------------------


    TRIAL :  cpu time   90.1641: real time   91.2668
    CORREC:  cpu time    0.0025: real time    0.0025
    CHARGE:  cpu time    4.3646: real time    4.4079
    --------------------------------------------
      LOOP:  cpu time   94.5319: real time   95.6800

 eigenvalue-minimisations  : 22644
 total energy-change (2. order) :-0.5576052E-01  (-0.5561909E-01)
 number of electron     178.0000001 magnetization 
 augmentation part       19.7248981 magnetization 

 Free energy of the ion-electron system (eV)
  ---------------------------------------------------
  alpha Z        PSCENC =       949.60274533
  Ewald energy   TEWEN  =    -15967.98306320
  -Hartree energ DENC   =     -4265.20479273
  -exchange      EXHF   =         0.00000000
  -V(xc)+E(xc)   XCENC  =       753.40261683
  PAW double counting   =     15611.18605970   -15491.59556298
  entropy T*S    EENTRO =        -0.00250513
  eigenvalues    EBANDS =     -1588.71364705
  atomic energy  EATOM  =     19589.69688559
  ---------------------------------------------------
  free energy    TOTEN  =      -409.61126364 eV

  energy without entropy =     -409.60875851  energy(sigma->0) =     -409.61001108


--------------------------------------------------------------------------------------------------------




--------------------------------------- Iteration      1(   6)  ---------------------------------------


    POTLOK:  cpu time    0.2581: real time    0.2598
    SETDIJ:  cpu time    0.7767: real time    0.7820
    TRIAL :  cpu time   68.8661: real time   69.6590
    CORREC:  cpu time   19.7044: real time   19.8895
    CHARGE:  cpu time    4.2966: real time    4.3391
    --------------------------------------------
      LOOP:  cpu time   93.9033: real time   94.9317

 eigenvalue-minimisations  :     0
 total energy-change (2. order) : 0.9672930E+02  (-0.2098816E+02)
 number of electron     178.0000001 magnetization 
 augmentation part       22.5505746 magnetization 

 Free energy of the ion-electron system (eV)
  ---------------------------------------------------
  alpha Z        PSCENC =       949.60274533
  Ewald energy   TEWEN  =    -15967.98306320
  -Hartree energ DENC   =     -3649.46167065
  -exchange      EXHF   =         0.00000000
  -V(xc)+E(xc)   XCENC  =       751.46670900
  PAW double counting   =     27218.69814401   -27166.07406600
  entropy T*S    EENTRO =        -0.00228178
  eigenvalues    EBANDS =     -2038.82514289
  atomic energy  EATOM  =     19589.69688559
  ---------------------------------------------------
  free energy    TOTEN  =      -312.88196393 eV

  energy without entropy =     -312.87968215  energy(sigma->0) =     -312.88082304


--------------------------------------------------------------------------------------------------------




--------------------------------------- Iteration      1(   7)  ---------------------------------------


    POTLOK:  cpu time    0.2219: real time    0.2234
    SETDIJ:  cpu time    0.7782: real time    0.7837
    TRIAL :  cpu time   74.4397: real time   75.2491
    CORREC:  cpu time   20.6661: real time   20.8673
    CHARGE:  cpu time    5.5244: real time    5.5703
    --------------------------------------------
      LOOP:  cpu time  101.6313: real time  102.6970

 eigenvalue-minimisations  :     0
 total energy-change (2. order) :-0.2103576E+02  (-0.3905762E+01)
 number of electron     178.0000001 magnetization 
 augmentation part       22.9521904 magnetization 

 Free energy of the ion-electron system (eV)
  ---------------------------------------------------
  alpha Z        PSCENC =       949.60274533
  Ewald energy   TEWEN  =    -15967.98306320
  -Hartree energ DENC   =     -3934.81466047
  -exchange      EXHF   =         0.00000000
  -V(xc)+E(xc)   XCENC  =       765.40270909
  PAW double counting   =     25880.88551689   -25808.94303466
  entropy T*S    EENTRO =        -0.00236004
  eigenvalues    EBANDS =     -1807.76253743
  atomic energy  EATOM  =     19589.69688559
  ---------------------------------------------------
  free energy    TOTEN  =      -333.91772063 eV

  energy without entropy =     -333.91536059  energy(sigma->0) =     -333.91654061


--------------------------------------------------------------------------------------------------------




--------------------------------------- Iteration      1(   8)  ---------------------------------------


    POTLOK:  cpu time    0.2498: real time    0.2515
    SETDIJ:  cpu time    0.7380: real time    0.7429
    TRIAL :  cpu time   79.8171: real time   80.8571
    CORREC:  cpu time   22.2583: real time   22.4575
    CHARGE:  cpu time    4.9221: real time    4.9689
    --------------------------------------------
      LOOP:  cpu time  107.9865: real time  109.2802

 eigenvalue-minimisations  :     0
 total energy-change (2. order) :-0.3905319E+01  (-0.9054036E+00)
 number of electron     178.0000001 magnetization 
 augmentation part       22.8195478 magnetization 

 Free energy of the ion-electron system (eV)
  ---------------------------------------------------
  alpha Z        PSCENC =       949.60274533
  Ewald energy   TEWEN  =    -15967.98306320
  -Hartree energ DENC   =     -4034.99141035
  -exchange      EXHF   =         0.00000000
  -V(xc)+E(xc)   XCENC  =       770.15705348
  PAW double counting   =     25337.82374257   -25257.66575584
  entropy T*S    EENTRO =        -0.00251083
  eigenvalues    EBANDS =     -1724.46087738
  atomic energy  EATOM  =     19589.69688559
  ---------------------------------------------------
  free energy    TOTEN  =      -337.82303984 eV

  energy without entropy =     -337.82052900  energy(sigma->0) =     -337.82178442


--------------------------------------------------------------------------------------------------------




--------------------------------------- Iteration      1(   9)  ---------------------------------------


    POTLOK:  cpu time    0.2184: real time    0.2199
    SETDIJ:  cpu time    0.7711: real time    0.7766
    TRIAL :  cpu time   74.1732: real time   74.8711
    CORREC:  cpu time   22.1064: real time   22.3099
    CHARGE:  cpu time    7.4421: real time    7.5000
    --------------------------------------------
      LOOP:  cpu time  104.7128: real time  105.6798

 eigenvalue-minimisations  :     0
 total energy-change (2. order) :-0.9056266E+00  (-0.2676948E+00)
 number of electron     178.0000001 magnetization 
 augmentation part       22.8044067 magnetization 

 Free energy of the ion-electron system (eV)
  ---------------------------------------------------
  alpha Z        PSCENC =       949.60274533
  Ewald energy   TEWEN  =    -15967.98306320
  -Hartree energ DENC   =     -4037.45031267
  -exchange      EXHF   =         0.00000000
  -V(xc)+E(xc)   XCENC  =       770.37357707
  PAW double counting   =     25305.56006640   -25222.25751180
  entropy T*S    EENTRO =        -0.00241382
  eigenvalues    EBANDS =     -1726.26854236
  atomic energy  EATOM  =     19589.69688559
  ---------------------------------------------------
  free energy    TOTEN  =      -338.72866649 eV

  energy without entropy =     -338.72625266  energy(sigma->0) =     -338.72745958


--------------------------------------------------------------------------------------------------------




--------------------------------------- Iteration      1(  10)  ---------------------------------------


    POTLOK:  cpu time    0.2526: real time    0.2541
    SETDIJ:  cpu time    0.9999: real time    1.0066
    TRIAL :  cpu time   74.2952: real time   74.9987
    CORREC:  cpu time   20.8313: real time   21.0296
    CHARGE:  cpu time    5.4959: real time    5.5442
    --------------------------------------------
      LOOP:  cpu time  101.8763: real time  102.8353

 eigenvalue-minimisations  :     0
 total energy-change (2. order) :-0.2677524E+00  (-0.9829199E-01)
 number of electron     178.0000002 magnetization 
 augmentation part       22.8443236 magnetization 

 Free energy of the ion-electron system (eV)
  ---------------------------------------------------
  alpha Z        PSCENC =       949.60274533
  Ewald energy   TEWEN  =    -15967.98306320
  -Hartree energ DENC   =     -4039.81575068
  -exchange      EXHF   =         0.00000000
  -V(xc)+E(xc)   XCENC  =       770.51609108
  PAW double counting   =     25366.87961350   -25281.83488146
  entropy T*S    EENTRO =        -0.00229941
  eigenvalues    EBANDS =     -1726.05564519
  atomic energy  EATOM  =     19589.69688559
  ---------------------------------------------------
  free energy    TOTEN  =      -338.99641885 eV

  energy without entropy =     -338.99411944  energy(sigma->0) =     -338.99526915


--------------------------------------------------------------------------------------------------------




--------------------------------------- Iteration      1(  11)  ---------------------------------------


    POTLOK:  cpu time    1.0622: real time    1.0692
    SETDIJ:  cpu time    0.4761: real time    0.4800
    TRIAL :  cpu time   75.0571: real time   75.7637
    CORREC:  cpu time   23.2368: real time   23.4446
    CHARGE:  cpu time    5.0117: real time    5.0588
    --------------------------------------------
      LOOP:  cpu time  104.8447: real time  105.8185

 eigenvalue-minimisations  :     0
 total energy-change (2. order) :-0.9828646E-01  (-0.3632008E-01)
 number of electron     178.0000002 magnetization 
 augmentation part       22.8522756 magnetization 

 Free energy of the ion-electron system (eV)
  ---------------------------------------------------
  alpha Z        PSCENC =       949.60274533
  Ewald energy   TEWEN  =    -15967.98306320
  -Hartree energ DENC   =     -4046.59522388
  -exchange      EXHF   =         0.00000000
  -V(xc)+E(xc)   XCENC  =       770.81273860
  PAW double counting   =     25457.71922213   -25371.82942833
  entropy T*S    EENTRO =        -0.00225771
  eigenvalues    EBANDS =     -1720.51628215
  atomic energy  EATOM  =     19589.69688559
  ---------------------------------------------------
  free energy    TOTEN  =      -339.09470532 eV

  energy without entropy =     -339.09244760  energy(sigma->0) =     -339.09357646


--------------------------------------------------------------------------------------------------------




--------------------------------------- Iteration      1(  12)  ---------------------------------------


    POTLOK:  cpu time    0.2461: real time    0.2476
    SETDIJ:  cpu time    0.7394: real time    0.7446
    TRIAL :  cpu time   78.0962: real time   78.8124
    CORREC:  cpu time   21.6865: real time   21.8859
    CHARGE:  cpu time    5.0412: real time    5.0900
    --------------------------------------------
      LOOP:  cpu time  105.8116: real time  106.7829

 eigenvalue-minimisations  :     0
 total energy-change (2. order) :-0.3631758E-01  (-0.1483641E-01)
 number of electron     178.0000002 magnetization 
 augmentation part       22.8383592 magnetization 

 Free energy of the ion-electron system (eV)
  ---------------------------------------------------
  alpha Z        PSCENC =       949.60274533
  Ewald energy   TEWEN  =    -15967.98306320
  -Hartree energ DENC   =     -4047.36476197
  -exchange      EXHF   =         0.00000000
  -V(xc)+E(xc)   XCENC  =       770.88287208
  PAW double counting   =     25551.58906884   -25465.72349446
  entropy T*S    EENTRO =        -0.00223451
  eigenvalues    EBANDS =     -1719.82901739
  atomic energy  EATOM  =     19589.69688559
  ---------------------------------------------------
  free energy    TOTEN  =      -339.13102290 eV

  energy without entropy =     -339.12878838  energy(sigma->0) =     -339.12990564


--------------------------------------------------------------------------------------------------------




--------------------------------------- Iteration      1(  13)  ---------------------------------------


    POTLOK:  cpu time    0.2250: real time    0.2264
    SETDIJ:  cpu time    0.7775: real time    0.7826
    TRIAL :  cpu time   79.4187: real time   80.2169
    CORREC:  cpu time   20.2300: real time   20.4170
    CHARGE:  cpu time    5.0544: real time    5.1021
    --------------------------------------------
      LOOP:  cpu time  105.7073: real time  106.7473

 eigenvalue-minimisations  :     0
 total energy-change (2. order) :-0.1483534E-01  (-0.6368593E-02)
 number of electron     178.0000002 magnetization 
 augmentation part       22.8410676 magnetization 

 Free energy of the ion-electron system (eV)
  ---------------------------------------------------
  alpha Z        PSCENC =       949.60274533
  Ewald energy   TEWEN  =    -15967.98306320
  -Hartree energ DENC   =     -4046.14245307
  -exchange      EXHF   =         0.00000000
  -V(xc)+E(xc)   XCENC  =       770.81945172
  PAW double counting   =     25609.48886089   -25523.91705136
  entropy T*S    EENTRO =        -0.00220249
  eigenvalues    EBANDS =     -1720.70899963
  atomic energy  EATOM  =     19589.69688559
  ---------------------------------------------------
  free energy    TOTEN  =      -339.14585824 eV

  energy without entropy =     -339.14365575  energy(sigma->0) =     -339.14475699


--------------------------------------------------------------------------------------------------------




--------------------------------------- Iteration      1(  14)  ---------------------------------------


    POTLOK:  cpu time    0.2829: real time    0.2845
    SETDIJ:  cpu time    0.7390: real time    0.7441
    TRIAL :  cpu time   76.8533: real time   77.6855
    CORREC:  cpu time   22.4049: real time   22.6109
    CHARGE:  cpu time    5.0419: real time    5.0870
    --------------------------------------------
      LOOP:  cpu time  105.3228: real time  106.4141

 eigenvalue-minimisations  :     0
 total energy-change (2. order) :-0.6367934E-02  (-0.3003191E-02)
 number of electron     178.0000002 magnetization 
 augmentation part       22.8432788 magnetization 

 Free energy of the ion-electron system (eV)
  ---------------------------------------------------
  alpha Z        PSCENC =       949.60274533
  Ewald energy   TEWEN  =    -15967.98306320
  -Hartree energ DENC   =     -4046.55315175
  -exchange      EXHF   =         0.00000000
  -V(xc)+E(xc)   XCENC  =       770.83418425
  PAW double counting   =     25617.03198661   -25531.50228290
  entropy T*S    EENTRO =        -0.00217364
  eigenvalues    EBANDS =     -1720.27732761
  atomic energy  EATOM  =     19589.69688559
  ---------------------------------------------------
  free energy    TOTEN  =      -339.15222617 eV

  energy without entropy =     -339.15005253  energy(sigma->0) =     -339.15113935


--------------------------------------------------------------------------------------------------------




--------------------------------------- Iteration      1(  15)  ---------------------------------------


    POTLOK:  cpu time    0.2286: real time    0.2302
    SETDIJ:  cpu time    0.7614: real time    0.7668
    TRIAL :  cpu time   76.9561: real time   77.9536
    CORREC:  cpu time   21.3459: real time   21.5771
    CHARGE:  cpu time    5.5037: real time    5.5536
    --------------------------------------------
      LOOP:  cpu time  104.8065: real time  106.0931

 eigenvalue-minimisations  :     0
 total energy-change (2. order) :-0.2999482E-02  (-0.1157621E-02)
 number of electron     178.0000002 magnetization 
 augmentation part       22.8429888 magnetization 

 Free energy of the ion-electron system (eV)
  ---------------------------------------------------
  alpha Z        PSCENC =       949.60274533
  Ewald energy   TEWEN  =    -15967.98306320
  -Hartree energ DENC   =     -4046.87310191
  -exchange      EXHF   =         0.00000000
  -V(xc)+E(xc)   XCENC  =       770.84738891
  PAW double counting   =     25598.60577536   -25513.00722932
  entropy T*S    EENTRO =        -0.00215272
  eigenvalues    EBANDS =     -1720.04245277
  atomic energy  EATOM  =     19589.69688559
  ---------------------------------------------------
  free energy    TOTEN  =      -339.15522565 eV

  energy without entropy =     -339.15307294  energy(sigma->0) =     -339.15414930


--------------------------------------------------------------------------------------------------------




--------------------------------------- Iteration      1(  16)  ---------------------------------------


    POTLOK:  cpu time    0.2217: real time    0.2231
    SETDIJ:  cpu time    0.7727: real time    0.7794
    TRIAL :  cpu time   76.0623: real time   76.7525
    CORREC:  cpu time   21.3702: real time   21.5618
    CHARGE:  cpu time    4.3107: real time    4.3534
    --------------------------------------------
      LOOP:  cpu time  103.4273: real time  104.3638

 eigenvalue-minimisations  :     0
 total energy-change (2. order) :-0.1157603E-02  (-0.4880846E-03)
 number of electron     178.0000002 magnetization 
 augmentation part       22.8431016 magnetization 

 Free energy of the ion-electron system (eV)
  ---------------------------------------------------
  alpha Z        PSCENC =       949.60274533
  Ewald energy   TEWEN  =    -15967.98306320
  -Hartree energ DENC   =     -4046.49553119
  -exchange      EXHF   =         0.00000000
  -V(xc)+E(xc)   XCENC  =       770.83895059
  PAW double counting   =     25581.68650194   -25496.04514239
  entropy T*S    EENTRO =        -0.00214092
  eigenvalues    EBANDS =     -1720.45557722
  atomic energy  EATOM  =     19589.69688559
  ---------------------------------------------------
  free energy    TOTEN  =      -339.15638326 eV

  energy without entropy =     -339.15424234  energy(sigma->0) =     -339.15531280


--------------------------------------------------------------------------------------------------------




--------------------------------------- Iteration      1(  17)  ---------------------------------------


    POTLOK:  cpu time    0.2228: real time    0.2242
    SETDIJ:  cpu time    0.8839: real time    0.8900
    TRIAL :  cpu time   72.0955: real time   72.7764
    CORREC:  cpu time   21.9162: real time   22.2344
    CHARGE:  cpu time    5.7650: real time    5.8155
    --------------------------------------------
      LOOP:  cpu time  100.8880: real time  101.9465

 eigenvalue-minimisations  :     0
 total energy-change (2. order) :-0.4872723E-03  (-0.1775745E-03)
 number of electron     178.0000002 magnetization 
 augmentation part       22.8448777 magnetization 

 Free energy of the ion-electron system (eV)
  ---------------------------------------------------
  alpha Z        PSCENC =       949.60274533
  Ewald energy   TEWEN  =    -15967.98306320
  -Hartree energ DENC   =     -4046.37900120
  -exchange      EXHF   =         0.00000000
  -V(xc)+E(xc)   XCENC  =       770.83290080
  PAW double counting   =     25572.16536051   -25486.51358433
  entropy T*S    EENTRO =        -0.00213437
  eigenvalues    EBANDS =     -1720.57697311
  atomic energy  EATOM  =     19589.69688559
  ---------------------------------------------------
  free energy    TOTEN  =      -339.15687053 eV

  energy without entropy =     -339.15473616  energy(sigma->0) =     -339.15580334


--------------------------------------------------------------------------------------------------------




--------------------------------------- Iteration      1(  18)  ---------------------------------------


    POTLOK:  cpu time    0.2174: real time    0.2189
    SETDIJ:  cpu time    0.8154: real time    0.8210
    TRIAL :  cpu time   81.3542: real time   82.3040
    CORREC:  cpu time   22.7710: real time   22.9705
    CHARGE:  cpu time    5.2295: real time    5.2768
    --------------------------------------------
      LOOP:  cpu time  110.3882: real time  111.5931

 eigenvalue-minimisations  :     0
 total energy-change (2. order) :-0.1771538E-03  (-0.6679077E-04)
 number of electron     178.0000002 magnetization 
 augmentation part       22.8445954 magnetization 

 Free energy of the ion-electron system (eV)
  ---------------------------------------------------
  alpha Z        PSCENC =       949.60274533
  Ewald energy   TEWEN  =    -15967.98306320
  -Hartree energ DENC   =     -4046.54354038
  -exchange      EXHF   =         0.00000000
  -V(xc)+E(xc)   XCENC  =       770.83918038
  PAW double counting   =     25571.66085645   -25486.00858861
  entropy T*S    EENTRO =        -0.00213050
  eigenvalues    EBANDS =     -1720.41938887
  atomic energy  EATOM  =     19589.69688559
  ---------------------------------------------------
  free energy    TOTEN  =      -339.15704768 eV

  energy without entropy =     -339.15491718  energy(sigma->0) =     -339.15598243


--------------------------------------------------------------------------------------------------------




--------------------------------------- Iteration      1(  19)  ---------------------------------------


    POTLOK:  cpu time    0.2272: real time    0.2287
    SETDIJ:  cpu time    0.7448: real time    0.7497
    TRIAL :  cpu time   78.7176: real time   79.4369
    CORREC:  cpu time   20.1906: real time   20.3758
    CHARGE:  cpu time    4.8894: real time    4.9309
    --------------------------------------------
      LOOP:  cpu time  104.8317: real time  105.7849

 eigenvalue-minimisations  :     0
 total energy-change (2. order) :-0.6679627E-04  (-0.3122575E-04)
 number of electron     178.0000002 magnetization 
 augmentation part       22.8438024 magnetization 

 Free energy of the ion-electron system (eV)
  ---------------------------------------------------
  alpha Z        PSCENC =       949.60274533
  Ewald energy   TEWEN  =    -15967.98306320
  -Hartree energ DENC   =     -4046.55205104
  -exchange      EXHF   =         0.00000000
  -V(xc)+E(xc)   XCENC  =       770.83725276
  PAW double counting   =     25575.34599124   -25489.70902598
  entropy T*S    EENTRO =        -0.00212808
  eigenvalues    EBANDS =     -1720.39371867
  atomic energy  EATOM  =     19589.69688559
  ---------------------------------------------------
  free energy    TOTEN  =      -339.15711448 eV

  energy without entropy =     -339.15498640  energy(sigma->0) =     -339.15605044


--------------------------------------------------------------------------------------------------------




--------------------------------------- Iteration      1(  20)  ---------------------------------------


    POTLOK:  cpu time    0.2157: real time    0.2171
    SETDIJ:  cpu time    0.8621: real time    0.8678
    TRIAL :  cpu time   79.3386: real time   80.1963
    CORREC:  cpu time   23.7442: real time   23.9552
    CHARGE:  cpu time    4.8463: real time    4.8885
    --------------------------------------------
      LOOP:  cpu time  109.0086: real time  110.1272

 eigenvalue-minimisations  :     0
 total energy-change (2. order) :-0.3140480E-04  (-0.1497942E-04)
 number of electron     178.0000002 magnetization 
 augmentation part       22.8435374 magnetization 

 Free energy of the ion-electron system (eV)
  ---------------------------------------------------
  alpha Z        PSCENC =       949.60274533
  Ewald energy   TEWEN  =    -15967.98306320
  -Hartree energ DENC   =     -4046.46256160
  -exchange      EXHF   =         0.00000000
  -V(xc)+E(xc)   XCENC  =       770.83306760
  PAW double counting   =     25578.84634403   -25493.22165247
  entropy T*S    EENTRO =        -0.00212708
  eigenvalues    EBANDS =     -1720.46678310
  atomic energy  EATOM  =     19589.69688559
  ---------------------------------------------------
  free energy    TOTEN  =      -339.15714588 eV

  energy without entropy =     -339.15501881  energy(sigma->0) =     -339.15608234


--------------------------------------------------------------------------------------------------------




--------------------------------------- Iteration      1(  21)  ---------------------------------------


    POTLOK:  cpu time    0.2962: real time    0.2980
    SETDIJ:  cpu time    0.7209: real time    0.7255
    TRIAL :  cpu time   79.0445: real time   80.1178
    CORREC:  cpu time   25.4686: real time   25.6799
    CHARGE:  cpu time    4.3140: real time    4.3553
    --------------------------------------------
      LOOP:  cpu time  109.8453: real time  111.1782

 eigenvalue-minimisations  :     0
 total energy-change (2. order) :-0.1516945E-04  (-0.5977047E-05)
 number of electron     178.0000002 magnetization 
 augmentation part       22.8438871 magnetization 

 Free energy of the ion-electron system (eV)
  ---------------------------------------------------
  alpha Z        PSCENC =       949.60274533
  Ewald energy   TEWEN  =    -15967.98306320
  -Hartree energ DENC   =     -4046.45754408
  -exchange      EXHF   =         0.00000000
  -V(xc)+E(xc)   XCENC  =       770.83277979
  PAW double counting   =     25580.36587507   -25494.74173833
  entropy T*S    EENTRO =        -0.00212679
  eigenvalues    EBANDS =     -1720.47097414
  atomic energy  EATOM  =     19589.69688559
  ---------------------------------------------------
  free energy    TOTEN  =      -339.15716105 eV

  energy without entropy =     -339.15503426  energy(sigma->0) =     -339.15609766


--------------------------------------------------------------------------------------------------------




--------------------------------------- Iteration      1(  22)  ---------------------------------------


    POTLOK:  cpu time    0.2192: real time    0.2209
    SETDIJ:  cpu time    0.8367: real time    0.8424
    TRIAL :  cpu time   79.1790: real time   79.9555
    CORREC:  cpu time   22.6426: real time   22.9195
    CHARGE:  cpu time    5.3020: real time    5.3496
    --------------------------------------------
      LOOP:  cpu time  108.1822: real time  109.3614

 eigenvalue-minimisations  :     0
 total energy-change (2. order) :-0.5772577E-05  (-0.2285540E-05)
 number of electron     178.0000002 magnetization 
 augmentation part       22.8439141 magnetization 

 Free energy of the ion-electron system (eV)
  ---------------------------------------------------
  alpha Z        PSCENC =       949.60274533
  Ewald energy   TEWEN  =    -15967.98306320
  -Hartree energ DENC   =     -4046.49858818
  -exchange      EXHF   =         0.00000000
  -V(xc)+E(xc)   XCENC  =       770.83544008
  PAW double counting   =     25580.12830822   -25494.49800761
  entropy T*S    EENTRO =        -0.00212680
  eigenvalues    EBANDS =     -1720.43876027
  atomic energy  EATOM  =     19589.69688559
  ---------------------------------------------------
  free energy    TOTEN  =      -339.15716683 eV

  energy without entropy =     -339.15504002  energy(sigma->0) =     -339.15610342


--------------------------------------------------------------------------------------------------------




--------------------------------------- Iteration      1(  23)  ---------------------------------------


    POTLOK:  cpu time    0.2026: real time    0.2038
    SETDIJ:  cpu time    0.8577: real time    0.8633
    TRIAL :  cpu time   80.7637: real time   81.4604
    CORREC:  cpu time   21.7726: real time   21.9687
    CHARGE:  cpu time    4.8982: real time    4.9415
    --------------------------------------------
      LOOP:  cpu time  108.5671: real time  109.5119

 eigenvalue-minimisations  :     0
 total energy-change (2. order) :-0.2327793E-05  (-0.1192015E-05)
 number of electron     178.0000002 magnetization 
 augmentation part       22.8437708 magnetization 

 Free energy of the ion-electron system (eV)
  ---------------------------------------------------
  alpha Z        PSCENC =       949.60274533
  Ewald energy   TEWEN  =    -15967.98306320
  -Hartree energ DENC   =     -4046.50596354
  -exchange      EXHF   =         0.00000000
  -V(xc)+E(xc)   XCENC  =       770.83580817
  PAW double counting   =     25579.72559471   -25494.09393174
  entropy T*S    EENTRO =        -0.00212702
  eigenvalues    EBANDS =     -1720.43311766
  atomic energy  EATOM  =     19589.69688559
  ---------------------------------------------------
  free energy    TOTEN  =      -339.15716915 eV

  energy without entropy =     -339.15504213  energy(sigma->0) =     -339.15610564


--------------------------------------------------------------------------------------------------------




--------------------------------------- Iteration      1(  24)  ---------------------------------------


    POTLOK:  cpu time    0.2157: real time    0.2172
    SETDIJ:  cpu time    0.7728: real time    0.7773
