<?xml version="1.0" encoding="ISO-8859-1"?>
<modeling>
 <generator>
  <i name="program" type="string">vasp </i>
  <i name="version" type="string">6.2.0  </i>
  <i name="subversion" type="string">18Jan21 (build Jan 05 2022 15:41:44) complex                          parallel </i>
  <i name="platform" type="string">LinuxIFC </i>
  <i name="date" type="string">2025 05 07 </i>
  <i name="time" type="string">17:58:30 </i>
 </generator>
 <incar>
  <i type="string" name="SYSTEM">routine with relax: pwdword</i>
  <i type="string" name="PREC">Acc</i>
  <i type="int" name="IALGO">    38</i>
  <i type="string" name="ALGO">A</i>
  <i type="logical" name="ADDGRID"> T  </i>
  <i type="int" name="ICHARG">     2</i>
  <i type="int" name="NELM">   100</i>
  <i type="int" name="NELMIN">     6</i>
  <i name="EDIFF">      0.00000000</i>
  <i type="int" name="NSW">     0</i>
  <i type="int" name="ISIF">    -1</i>
  <i name="SYMPREC">      0.00010000</i>
  <i name="ENCUT">    600.00000000</i>
  <i type="logical" name="LREAL"> F  </i>
  <i type="int" name="ISMEAR">     0</i>
  <i name="SIGMA">      0.02000000</i>
  <i type="logical" name="LASPH"> T  </i>
  <i type="string" name="METAGGA">R2SCAN</i>
  <i type="logical" name="LMIXTAU"> F  </i>
 </incar>
 <primitive_cell>
  <structure name="primitive_cell" >
   <crystal>
    <varray name="basis" >
     <v>       5.15197158       0.00000000      -2.61713714 </v>
     <v>      -1.94006142       4.77273222      -2.61713714 </v>
     <v>       0.00000000       0.00000000       5.77860000 </v>
    </varray>
    <i name="volume">    142.08988427 </i>
    <varray name="rec_basis" >
     <v>       0.19410045       0.07889963       0.00000000 </v>
     <v>       0.00000000       0.20952359       0.00000000 </v>
     <v>       0.08790840       0.13062734       0.17305230 </v>
    </varray>
   </crystal>
   <varray name="positions" >
    <v>       0.50000000       0.50000000       0.50000000 </v>
    <v>       0.50000000       0.00000000       0.00000000 </v>
    <v>       0.00000000       0.00000000       0.50000000 </v>
    <v>       0.00000000       0.50000000       0.00000000 </v>
    <v>       0.21390000       0.71390000       0.92781000 </v>
    <v>       0.25000000       0.25000000       0.00000000 </v>
    <v>       0.78610000       0.28610000       0.07219000 </v>
    <v>       0.75000000       0.75000000       0.00000000 </v>
    <v>       0.71390000       0.78610000       0.50000000 </v>
    <v>       0.28610000       0.21390000       0.50000000 </v>
    <v>       0.18807000       0.31193000       0.50000000 </v>
    <v>       0.81193000       0.68807000       0.50000000 </v>
    <v>       0.31193000       0.81193000       0.12385000 </v>
    <v>       0.68807000       0.18807000       0.87615000 </v>
   </varray>
  </structure>
  <varray name="primitive_index" >
   <v type="int" >        1 </v>
   <v type="int" >        2 </v>
   <v type="int" >        3 </v>
   <v type="int" >        4 </v>
   <v type="int" >        5 </v>
   <v type="int" >        6 </v>
   <v type="int" >        7 </v>
   <v type="int" >        8 </v>
   <v type="int" >        9 </v>
   <v type="int" >       10 </v>
   <v type="int" >       11 </v>
   <v type="int" >       12 </v>
   <v type="int" >       13 </v>
   <v type="int" >       14 </v>
  </varray>
 </primitive_cell>
 <kpoints>
  <generation param="Gamma">
   <v type="int" name="divisions">       7        7        8 </v>
   <v name="usershift">      0.00000000       0.00000000       0.00000000 </v>
   <v name="genvec1">      0.14285714      -0.00000000       0.00000000 </v>
   <v name="genvec2">      0.00000000       0.14285714       0.00000000 </v>
   <v name="genvec3">      0.00000000       0.00000000       0.12500000 </v>
   <v name="shift">      0.00000000       0.00000000       0.00000000 </v>
  </generation>
  <varray name="kpointlist" >
   <v>       0.00000000       0.00000000       0.00000000 </v>
   <v>       0.14285714       0.00000000       0.00000000 </v>
   <v>       0.28571429       0.00000000       0.00000000 </v>
   <v>       0.42857143       0.00000000       0.00000000 </v>
   <v>       0.14285714       0.14285714       0.00000000 </v>
   <v>       0.28571429       0.14285714       0.00000000 </v>
   <v>       0.42857143       0.14285714       0.00000000 </v>
   <v>      -0.42857143       0.14285714       0.00000000 </v>
   <v>      -0.28571429       0.14285714       0.00000000 </v>
   <v>      -0.14285714       0.14285714       0.00000000 </v>
   <v>       0.28571429       0.28571429       0.00000000 </v>
   <v>       0.42857143       0.28571429       0.00000000 </v>
   <v>      -0.42857143       0.28571429       0.00000000 </v>
   <v>      -0.28571429       0.28571429       0.00000000 </v>
   <v>       0.42857143       0.42857143       0.00000000 </v>
   <v>      -0.42857143       0.42857143       0.00000000 </v>
   <v>      -0.00000000      -0.00000000       0.12500000 </v>
   <v>       0.14285714      -0.00000000       0.12500000 </v>
   <v>       0.28571429      -0.00000000       0.12500000 </v>
   <v>       0.42857143      -0.00000000       0.12500000 </v>
   <v>      -0.42857143       0.00000000       0.12500000 </v>
   <v>      -0.28571429       0.00000000       0.12500000 </v>
   <v>      -0.14285714      -0.00000000       0.12500000 </v>
   <v>       0.14285714       0.14285714       0.12500000 </v>
   <v>       0.28571429       0.14285714       0.12500000 </v>
   <v>       0.42857143       0.14285714       0.12500000 </v>
   <v>      -0.42857143       0.14285714       0.12500000 </v>
   <v>      -0.28571429       0.14285714       0.12500000 </v>
   <v>      -0.14285714       0.14285714       0.12500000 </v>
   <v>       0.28571429       0.28571429       0.12500000 </v>
   <v>       0.42857143       0.28571429       0.12500000 </v>
   <v>      -0.42857143       0.28571429       0.12500000 </v>
   <v>      -0.28571429       0.28571429       0.12500000 </v>
   <v>      -0.14285714       0.28571429       0.12500000 </v>
   <v>       0.42857143       0.42857143       0.12500000 </v>
   <v>      -0.42857143       0.42857143       0.12500000 </v>
   <v>      -0.28571429       0.42857143       0.12500000 </v>
   <v>      -0.14285714       0.42857143       0.12500000 </v>
   <v>      -0.42857143      -0.42857143       0.12500000 </v>
   <v>      -0.28571429      -0.42857143       0.12500000 </v>
   <v>      -0.14285714      -0.42857143       0.12500000 </v>
   <v>      -0.28571429      -0.28571429       0.12500000 </v>
   <v>      -0.14285714      -0.28571429       0.12500000 </v>
   <v>      -0.14285714      -0.14285714       0.12500000 </v>
   <v>      -0.00000000      -0.00000000       0.25000000 </v>
   <v>       0.14285714      -0.00000000       0.25000000 </v>
   <v>       0.28571429       0.00000000       0.25000000 </v>
   <v>       0.42857143       0.00000000       0.25000000 </v>
   <v>      -0.42857143       0.00000000       0.25000000 </v>
   <v>      -0.28571429      -0.00000000       0.25000000 </v>
   <v>      -0.14285714      -0.00000000       0.25000000 </v>
   <v>       0.14285714       0.14285714       0.25000000 </v>
   <v>       0.28571429       0.14285714       0.25000000 </v>
   <v>       0.42857143       0.14285714       0.25000000 </v>
   <v>      -0.42857143       0.14285714       0.25000000 </v>
   <v>      -0.28571429       0.14285714       0.25000000 </v>
   <v>      -0.14285714       0.14285714       0.25000000 </v>
   <v>       0.28571429       0.28571429       0.25000000 </v>
   <v>       0.42857143       0.28571429       0.25000000 </v>
   <v>      -0.42857143       0.28571429       0.25000000 </v>
   <v>      -0.28571429       0.28571429       0.25000000 </v>
   <v>      -0.14285714       0.28571429       0.25000000 </v>
   <v>       0.42857143       0.42857143       0.25000000 </v>
   <v>      -0.42857143       0.42857143       0.25000000 </v>
   <v>      -0.28571429       0.42857143       0.25000000 </v>
   <v>      -0.14285714       0.42857143       0.25000000 </v>
   <v>      -0.42857143      -0.42857143       0.25000000 </v>
   <v>      -0.28571429      -0.42857143       0.25000000 </v>
   <v>      -0.14285714      -0.42857143       0.25000000 </v>
   <v>      -0.28571429      -0.28571429       0.25000000 </v>
   <v>      -0.14285714      -0.28571429       0.25000000 </v>
   <v>      -0.14285714      -0.14285714       0.25000000 </v>
   <v>       0.00000000      -0.00000000       0.37500000 </v>
   <v>       0.14285714      -0.00000000       0.37500000 </v>
   <v>       0.28571429      -0.00000000       0.37500000 </v>
   <v>       0.42857143      -0.00000000       0.37500000 </v>
   <v>      -0.42857143       0.00000000       0.37500000 </v>
   <v>      -0.28571429       0.00000000       0.37500000 </v>
   <v>      -0.14285714       0.00000000       0.37500000 </v>
   <v>       0.14285714       0.14285714       0.37500000 </v>
   <v>       0.28571429       0.14285714       0.37500000 </v>
   <v>       0.42857143       0.14285714       0.37500000 </v>
   <v>      -0.42857143       0.14285714       0.37500000 </v>
   <v>      -0.28571429       0.14285714       0.37500000 </v>
   <v>      -0.14285714       0.14285714       0.37500000 </v>
   <v>       0.28571429       0.28571429       0.37500000 </v>
   <v>       0.42857143       0.28571429       0.37500000 </v>
   <v>      -0.42857143       0.28571429       0.37500000 </v>
   <v>      -0.28571429       0.28571429       0.37500000 </v>
   <v>      -0.14285714       0.28571429       0.37500000 </v>
   <v>       0.42857143       0.42857143       0.37500000 </v>
   <v>      -0.42857143       0.42857143       0.37500000 </v>
   <v>      -0.28571429       0.42857143       0.37500000 </v>
   <v>      -0.14285714       0.42857143       0.37500000 </v>
   <v>      -0.42857143      -0.42857143       0.37500000 </v>
   <v>      -0.28571429      -0.42857143       0.37500000 </v>
   <v>      -0.14285714      -0.42857143       0.37500000 </v>
   <v>      -0.28571429      -0.28571429       0.37500000 </v>
   <v>      -0.14285714      -0.28571429       0.37500000 </v>
   <v>      -0.14285714      -0.14285714       0.37500000 </v>
   <v>      -0.00000000      -0.00000000       0.50000000 </v>
   <v>       0.14285714      -0.00000000       0.50000000 </v>
   <v>       0.28571429       0.00000000       0.50000000 </v>
   <v>       0.42857143       0.00000000       0.50000000 </v>
   <v>       0.14285714       0.14285714       0.50000000 </v>
   <v>       0.28571429       0.14285714       0.50000000 </v>
   <v>       0.42857143       0.14285714       0.50000000 </v>
   <v>      -0.42857143       0.14285714       0.50000000 </v>
   <v>      -0.28571429       0.14285714       0.50000000 </v>
   <v>      -0.14285714       0.14285714       0.50000000 </v>
   <v>       0.28571429       0.28571429       0.50000000 </v>
   <v>       0.42857143       0.28571429       0.50000000 </v>
   <v>      -0.42857143       0.28571429       0.50000000 </v>
   <v>      -0.28571429       0.28571429       0.50000000 </v>
   <v>       0.42857143       0.42857143       0.50000000 </v>
   <v>      -0.42857143       0.42857143       0.50000000 </v>
  </varray>
  <varray name="weights" >
   <v>       0.00255102 </v>
   <v>       0.01020408 </v>
   <v>       0.01020408 </v>
   <v>       0.01020408 </v>
   <v>       0.00510204 </v>
   <v>       0.01020408 </v>
   <v>       0.01020408 </v>
   <v>       0.01020408 </v>
   <v>       0.01020408 </v>
   <v>       0.00510204 </v>
   <v>       0.00510204 </v>
   <v>       0.01020408 </v>
   <v>       0.01020408 </v>
   <v>       0.00510204 </v>
   <v>       0.00510204 </v>
   <v>       0.00510204 </v>
   <v>       0.00510204 </v>
   <v>       0.01020408 </v>
   <v>       0.01020408 </v>
   <v>       0.01020408 </v>
   <v>       0.01020408 </v>
   <v>       0.01020408 </v>
   <v>       0.01020408 </v>
   <v>       0.00510204 </v>
   <v>       0.01020408 </v>
   <v>       0.01020408 </v>
   <v>       0.01020408 </v>
   <v>       0.01020408 </v>
   <v>       0.01020408 </v>
   <v>       0.00510204 </v>
   <v>       0.01020408 </v>
   <v>       0.01020408 </v>
   <v>       0.01020408 </v>
   <v>       0.01020408 </v>
   <v>       0.00510204 </v>
   <v>       0.01020408 </v>
   <v>       0.01020408 </v>
   <v>       0.01020408 </v>
   <v>       0.00510204 </v>
   <v>       0.01020408 </v>
   <v>       0.01020408 </v>
   <v>       0.00510204 </v>
   <v>       0.01020408 </v>
   <v>       0.00510204 </v>
   <v>       0.00510204 </v>
   <v>       0.01020408 </v>
   <v>       0.01020408 </v>
   <v>       0.01020408 </v>
   <v>       0.01020408 </v>
   <v>       0.01020408 </v>
   <v>       0.01020408 </v>
   <v>       0.00510204 </v>
   <v>       0.01020408 </v>
   <v>       0.01020408 </v>
   <v>       0.01020408 </v>
   <v>       0.01020408 </v>
   <v>       0.01020408 </v>
   <v>       0.00510204 </v>
   <v>       0.01020408 </v>
   <v>       0.01020408 </v>
   <v>       0.01020408 </v>
   <v>       0.01020408 </v>
   <v>       0.00510204 </v>
   <v>       0.01020408 </v>
   <v>       0.01020408 </v>
   <v>       0.01020408 </v>
   <v>       0.00510204 </v>
   <v>       0.01020408 </v>
   <v>       0.01020408 </v>
   <v>       0.00510204 </v>
   <v>       0.01020408 </v>
   <v>       0.00510204 </v>
   <v>       0.00510204 </v>
   <v>       0.01020408 </v>
   <v>       0.01020408 </v>
   <v>       0.01020408 </v>
   <v>       0.01020408 </v>
   <v>       0.01020408 </v>
   <v>       0.01020408 </v>
   <v>       0.00510204 </v>
   <v>       0.01020408 </v>
   <v>       0.01020408 </v>
   <v>       0.01020408 </v>
   <v>       0.01020408 </v>
   <v>       0.01020408 </v>
   <v>       0.00510204 </v>
   <v>       0.01020408 </v>
   <v>       0.01020408 </v>
   <v>       0.01020408 </v>
   <v>       0.01020408 </v>
   <v>       0.00510204 </v>
   <v>       0.01020408 </v>
   <v>       0.01020408 </v>
   <v>       0.01020408 </v>
   <v>       0.00510204 </v>
   <v>       0.01020408 </v>
   <v>       0.01020408 </v>
   <v>       0.00510204 </v>
   <v>       0.01020408 </v>
   <v>       0.00510204 </v>
   <v>       0.00255102 </v>
   <v>       0.01020408 </v>
   <v>       0.01020408 </v>
   <v>       0.01020408 </v>
   <v>       0.00510204 </v>
   <v>       0.01020408 </v>
   <v>       0.01020408 </v>
   <v>       0.01020408 </v>
   <v>       0.01020408 </v>
   <v>       0.00510204 </v>
   <v>       0.00510204 </v>
   <v>       0.01020408 </v>
   <v>       0.01020408 </v>
   <v>       0.00510204 </v>
   <v>       0.00510204 </v>
   <v>       0.00510204 </v>
  </varray>
 </kpoints>
 <parameters>
  <separator name="general" >
   <i type="string" name="SYSTEM">routine with relax: pwdword</i>
   <i type="logical" name="LCOMPAT"> F  </i>
  </separator>
  <separator name="electronic" >
   <i type="string" name="PREC">acc</i>
   <i name="ENMAX">    600.00000000</i>
   <i name="ENAUG">    535.51400000</i>
   <i name="EDIFF">      0.00000000</i>
   <i type="int" name="IALGO">    58</i>
   <i type="int" name="IWAVPR">    10</i>
   <i type="int" name="NBANDS">    72</i>
   <i type="int" name="NBANDSLOW">    -1</i>
   <i type="int" name="NBANDSHIGH">    -1</i>
   <i name="NELECT">    112.00000000</i>
   <i type="int" name="TURBO">     0</i>
   <i type="int" name="IRESTART">     0</i>
   <i type="int" name="NREBOOT">     0</i>
   <i type="int" name="NMIN">     0</i>
   <i name="EREF">      0.00000000</i>
   <separator name="electronic smearing" >
    <i type="int" name="ISMEAR">     0</i>
    <i name="SIGMA">      0.02000000</i>
    <i name="KSPACING">      0.50000000</i>
    <i type="logical" name="KGAMMA"> T  </i>
    <i type="logical" name="KBLOWUP"> F  </i>
   </separator>
   <separator name="electronic projectors" >
    <i type="logical" name="LREAL"> F  </i>
    <v name="ROPT">      0.00000000      0.00000000      0.00000000</v>
    <i type="int" name="LMAXPAW">  -100</i>
    <i type="int" name="LMAXMIX">     2</i>
    <i type="logical" name="NLSPLINE"> F  </i>
   </separator>
   <separator name="electronic startup" >
    <i type="int" name="ISTART">     0</i>
    <i type="int" name="ICHARG">     2</i>
    <i type="int" name="INIWAV">     1</i>
   </separator>
   <separator name="electronic spin" >
    <i type="int" name="ISPIN">     1</i>
    <i type="logical" name="LNONCOLLINEAR"> F  </i>
    <v name="MAGMOM">      1.00000000      1.00000000      1.00000000      1.00000000      1.00000000      1.00000000      1.00000000      1.00000000      1.00000000      1.00000000      1.00000000      1.00000000      1.00000000      1.00000000</v>
    <i name="NUPDOWN">     -1.00000000</i>
    <i type="logical" name="LSORBIT"> F  </i>
    <v name="SAXIS">      0.00000000      0.00000000      1.00000000</v>
    <i type="logical" name="LSPIRAL"> F  </i>
    <v name="QSPIRAL">      0.00000000      0.00000000      0.00000000</v>
    <i type="logical" name="LZEROZ"> F  </i>
   </separator>
   <separator name="electronic exchange-correlation" >
    <i type="logical" name="LASPH"> T  </i>
    <i type="logical" name="LMETAGGA"> F  </i>
   </separator>
   <separator name="electronic convergence" >
    <i type="int" name="NELM">   100</i>
    <i type="int" name="NELMDL">    -5</i>
    <i type="int" name="NELMIN">     6</i>
    <i name="ENINI">    600.00000000</i>
    <separator name="electronic convergence detail" >
     <i type="logical" name="LDIAG"> T  </i>
     <i type="logical" name="LSUBROT"> F  </i>
     <i name="WEIMIN">      0.00000000</i>
     <i name="EBREAK">      0.00000000</i>
     <i name="DEPER">      0.30000000</i>
     <i type="int" name="NRMM">     4</i>
     <i name="TIME">      0.40000000</i>
    </separator>
   </separator>
   <separator name="electronic mixer" >
    <i name="AMIX">      0.40000000</i>
    <i name="BMIX">      1.00000000</i>
    <i name="AMIN">      0.10000000</i>
    <i name="AMIX_MAG">      1.60000000</i>
    <i name="BMIX_MAG">      1.00000000</i>
    <separator name="electronic mixer details" >
     <i type="int" name="IMIX">     4</i>
     <i type="logical" name="MIXFIRST"> F  </i>
     <i type="int" name="MAXMIX">   -45</i>
     <i name="WC">    100.00000000</i>
     <i type="int" name="INIMIX">     1</i>
     <i type="int" name="MIXPRE">     1</i>
     <i type="int" name="MREMOVE">     5</i>
    </separator>
   </separator>
   <separator name="electronic dipolcorrection" >
    <i type="logical" name="LDIPOL"> F  </i>
    <i type="logical" name="LMONO"> F  </i>
    <i type="int" name="IDIPOL">     0</i>
    <i name="EPSILON">      1.00000000</i>
    <v name="DIPOL">   -100.00000000   -100.00000000   -100.00000000</v>
    <i name="EFIELD">      0.00000000</i>
   </separator>
  </separator>
  <separator name="grids" >
   <i type="int" name="NGX">    48</i>
   <i type="int" name="NGY">    48</i>
   <i type="int" name="NGZ">    48</i>
   <i type="int" name="NGXF">    96</i>
   <i type="int" name="NGYF">    96</i>
   <i type="int" name="NGZF">    96</i>
   <i type="logical" name="ADDGRID"> T  </i>
  </separator>
  <separator name="ionic" >
   <i type="int" name="NSW">     0</i>
   <i type="int" name="IBRION">    -1</i>
   <i type="int" name="MDALGO">     0</i>
   <i type="int" name="ISIF">    -1</i>
   <i name="PSTRESS">      0.00000000</i>
   <i name="EDIFFG">      0.00000001</i>
   <i type="int" name="NFREE">     0</i>
   <i name="POTIM">      0.50000000</i>
   <i name="SMASS">     -3.00000000</i>
   <i name="SCALEE">      1.00000000</i>
  </separator>
  <separator name="ionic md" >
   <i name="TEBEG">      0.00010000</i>
   <i name="TEEND">      0.00010000</i>
   <i type="int" name="NBLOCK">     1</i>
   <i type="int" name="KBLOCK">     1</i>
   <i type="int" name="NPACO">   256</i>
   <i name="APACO">     16.00000000</i>
  </separator>
  <separator name="symmetry" >
   <i type="int" name="ISYM">     2</i>
   <i name="SYMPREC">      0.00010000</i>
  </separator>
  <separator name="dos" >
   <i type="int" name="LORBIT">     0</i>
   <v name="RWIGS">     -1.00000000     -1.00000000     -1.00000000</v>
   <i type="int" name="NEDOS">   301</i>
   <i name="EMIN">     10.00000000</i>
   <i name="EMAX">    -10.00000000</i>
   <i name="EFERMI">      0.00000000</i>
  </separator>
  <separator name="writing" >
   <i type="int" name="NWRITE">     2</i>
   <i type="logical" name="LWAVE"> T  </i>
   <i type="logical" name="LDOWNSAMPLE"> F  </i>
   <i type="logical" name="LCHARG"> T  </i>
   <i type="logical" name="LPARD"> F  </i>
   <i type="logical" name="LVTOT"> F  </i>
   <i type="logical" name="LVHAR"> F  </i>
   <i type="logical" name="LELF"> F  </i>
   <i type="logical" name="LOPTICS"> F  </i>
   <v name="STM">      0.00000000      0.00000000      0.00000000      0.00000000      0.00000000      0.00000000      0.00000000</v>
  </separator>
  <separator name="performance" >
   <i type="int" name="NPAR">     6</i>
   <i type="int" name="NSIM">     4</i>
   <i type="int" name="NBLK">    -1</i>
   <i type="logical" name="LPLANE"> T  </i>
   <i type="logical" name="LSCALAPACK"> T  </i>
   <i type="logical" name="LSCAAWARE"> F  </i>
   <i type="logical" name="LSCALU"> F  </i>
   <i type="logical" name="LASYNC"> F  </i>
   <i type="logical" name="LORBITALREAL"> F  </i>
  </separator>
  <separator name="miscellaneous" >
   <i type="int" name="IDIOT">     3</i>
   <i type="int" name="PHON_NSTRUCT">    -1</i>
   <i type="logical" name="LMUSIC"> F  </i>
   <v name="POMASS">     10.81100000     95.94000000     28.08500000</v>
   <v name="DARWINR">      0.00000000      0.00000000      0.00000000</v>
   <v name="DARWINV">      1.00000000      1.00000000      1.00000000</v>
   <i type="logical" name="LCORR"> T  </i>
  </separator>
  <i type="logical" name="GGA_COMPAT"> T  </i>
  <i type="logical" name="LBERRY"> F  </i>
  <i type="int" name="ICORELEVEL">     0</i>
  <i type="logical" name="LDAU"> F  </i>
  <i type="int" name="I_CONSTRAINED_M">     0</i>
  <separator name="electronic exchange-correlation" >
   <i type="string" name="GGA">--</i>
   <i type="int" name="VOSKOWN">     0</i>
   <i type="logical" name="LHFCALC"> F  </i>
   <i type="string" name="PRECFOCK"></i>
   <i type="logical" name="LSYMGRAD"> F  </i>
   <i type="logical" name="LHFONE"> F  </i>
   <i type="logical" name="LRHFCALC"> F  </i>
   <i type="logical" name="LTHOMAS"> F  </i>
   <i type="logical" name="LMODELHF"> F  </i>
   <i type="logical" name="LFOCKACE"> F  </i>
   <i name="ENCUT4O">     -1.00000000</i>
   <i type="int" name="EXXOEP">     0</i>
   <i type="int" name="FOURORBIT">     0</i>
   <i name="AEXX">      0.00000000</i>
   <i name="HFALPHA">      0.00000000</i>
   <i name="MCALPHA">      0.00000000</i>
   <i name="ALDAX">      1.00000000</i>
   <i name="AGGAX">      1.00000000</i>
   <i name="ALDAC">      1.00000000</i>
   <i name="AGGAC">      1.00000000</i>
   <i type="int" name="NKREDX">     1</i>
   <i type="int" name="NKREDY">     1</i>
   <i type="int" name="NKREDZ">     1</i>
   <i type="logical" name="SHIFTRED"> F  </i>
   <i type="logical" name="ODDONLY"> F  </i>
   <i type="logical" name="EVENONLY"> F  </i>
   <i type="int" name="LMAXFOCK">     0</i>
   <i type="int" name="NMAXFOCKAE">     0</i>
   <i type="logical" name="LFOCKAEDFT"> F  </i>
   <i name="HFSCREEN">      0.00000000</i>
   <i name="HFSCREENC">      0.00000000</i>
   <i type="int" name="NBANDSGWLOW">     0</i>
  </separator>
  <separator name="vdW DFT" >
   <i type="logical" name="LUSE_VDW"> F  </i>
   <i name="Zab_VDW">     -0.84910000</i>
   <i name="PARAM1">      0.12340000</i>
   <i name="PARAM2">      1.00000000</i>
   <i name="PARAM3">      0.00000000</i>
  </separator>
  <separator name="model GW" >
   <i type="int" name="MODEL_GW">     0</i>
   <i name="MODEL_EPS0">      6.08956647</i>
   <i name="MODEL_ALPHA">      1.00000000</i>
  </separator>
  <separator name="linear response parameters" >
   <i type="logical" name="LEPSILON"> F  </i>
   <i type="logical" name="LRPA"> F  </i>
   <i type="logical" name="LNABLA"> F  </i>
   <i type="logical" name="LVEL"> F  </i>
   <i type="int" name="KINTER">     0</i>
   <i name="CSHIFT">      0.10000000</i>
   <i name="OMEGAMAX">     -1.00000000</i>
   <i name="DEG_THRESHOLD">      0.00200000</i>
   <i name="RTIME">     -0.10000000</i>
   <i name="WPLASMAI">      0.00000000</i>
   <v name="DFIELD">      0.00000000      0.00000000      0.00000000</v>
   <v name="WPLASMA">      0.00000000      0.00000000      0.00000000      0.00000000      0.00000000      0.00000000      0.00000000      0.00000000      0.00000000</v>
  </separator>
  <separator name="orbital magnetization" >
   <i type="logical" name="NUCIND"> F  </i>
   <v name="MAGPOS">      0.00000000      0.00000000      0.00000000</v>
   <i type="logical" name="LNICSALL"> T  </i>
   <i type="logical" name="ORBITALMAG"> F  </i>
   <i type="logical" name="LMAGBLOCH"> F  </i>
   <i type="logical" name="LCHIMAG"> F  </i>
   <i type="logical" name="LGAUGE"> T  </i>
   <i type="int" name="MAGATOM">     0</i>
   <v name="MAGDIPOL">      0.00000000      0.00000000      0.00000000</v>
   <v name="AVECCONST">      0.00000000      0.00000000      0.00000000</v>
  </separator>
  <separator name="response functions" >
   <i type="logical" name="LFINITE_TEMPERATURE"> F  </i>
   <i type="logical" name="LADDER"> F  </i>
   <i type="logical" name="LRPAFORCE"> F  </i>
   <i type="logical" name="LFXC"> F  </i>
   <i type="logical" name="LHARTREE"> T  </i>
   <i type="int" name="IBSE">     0</i>
   <v type="int" name="KPOINT">    -1     0     0     0</v>
   <i type="logical" name="LTCTC"> F  </i>
   <i type="logical" name="LTCTE"> F  </i>
   <i type="logical" name="LTETE"> F  </i>
   <i type="logical" name="LTRIPLET"> F  </i>
   <i type="logical" name="LFXCEPS"> F  </i>
   <i type="logical" name="LFXHEG"> F  </i>
   <i type="int" name="NATURALO">     2</i>
   <i type="logical" name="LHOLEGF"> F  </i>
   <i type="logical" name="L2ORDER"> F  </i>
   <i type="logical" name="LDMP1"> F  </i>
   <i type="logical" name="LMP2LT"> F  </i>
   <i type="logical" name="LSMP2LT"> F  </i>
   <i type="logical" name="LGWLF"> F  </i>
   <i name="ENCUTGW">     -2.00000000</i>
   <i name="ENCUTGWSOFT">     -2.00000000</i>
   <i name="ENCUTLF">     -1.00000000</i>
   <i type="logical" name="LESF_SPLINES"> F  </i>
   <i type="int" name="LMAXMP2">    -1</i>
   <i name="SCISSOR">      0.00000000</i>
   <i type="int" name="NOMEGA">     0</i>
   <i type="int" name="NOMEGAR">     0</i>
   <i type="int" name="NBANDSGW">    -1</i>
   <i type="int" name="NBANDSO">    -1</i>
   <i type="int" name="NBANDSV">    -1</i>
   <i type="int" name="NELM">   100</i>
   <i type="int" name="NELMHF">     1</i>
   <i type="int" name="DIM">     3</i>
   <i type="int" name="IESPILON">     4</i>
   <i type="int" name="ANTIRES">     0</i>
   <i name="OMEGAMAX">    -30.00000000</i>
   <i name="OMEGAMIN">    -30.00000000</i>
   <i name="OMEGATL">   -200.00000000</i>
   <i type="int" name="OMEGAGRID">     0</i>
   <i name="CSHIFT">     -0.10000000</i>
   <i type="logical" name="LSELFENERGY"> F  </i>
   <i type="logical" name="LSPECTRAL"> F  </i>
   <i type="logical" name="LSPECTRALGW"> F  </i>
   <i type="logical" name="LSINGLES"> F  </i>
   <i type="logical" name="LFERMIGW"> F  </i>
   <i type="logical" name="ODDONLYGW"> F  </i>
   <i type="logical" name="EVENONLYGW"> F  </i>
   <i type="int" name="NKREDLFX">     1</i>
   <i type="int" name="NKREDLFY">     1</i>
   <i type="int" name="NKREDLFZ">     1</i>
   <i type="int" name="MAXMEM">  2800</i>
   <i type="int" name="TELESCOPE">     0</i>
   <i type="int" name="NTAUPAR">    -1</i>
   <i type="int" name="NOMEGAPAR">    -1</i>
   <i name="DAMP_NEWTON">      0.80000001</i>
   <i name="LAMBDA">      1.00000000</i>
  </separator>
  <separator name="External order field" >
   <i name="OFIELD_KAPPA">      0.00000000</i>
   <v name="OFIELD_K">      0.00000000      0.00000000      0.00000000</v>
   <i name="OFIELD_Q6_NEAR">      0.00000000</i>
   <i name="OFIELD_Q6_FAR">      0.00000000</i>
   <i name="OFIELD_A">      0.00000000</i>
  </separator>
 </parameters>
 <atominfo>
  <atoms>      14 </atoms>
  <types>       3 </types>
  <array name="atoms" >
   <dimension dim="1">ion</dimension>
   <field type="string">element</field>
   <field type="int">atomtype</field>
   <set>
    <rc><c>B </c><c>   1</c></rc>
    <rc><c>B </c><c>   1</c></rc>
    <rc><c>B </c><c>   1</c></rc>
    <rc><c>B </c><c>   1</c></rc>
    <rc><c>Mo</c><c>   2</c></rc>
    <rc><c>Mo</c><c>   2</c></rc>
    <rc><c>Mo</c><c>   2</c></rc>
    <rc><c>Mo</c><c>   2</c></rc>
    <rc><c>Mo</c><c>   2</c></rc>
    <rc><c>Mo</c><c>   2</c></rc>
    <rc><c>Si</c><c>   3</c></rc>
    <rc><c>Si</c><c>   3</c></rc>
    <rc><c>Si</c><c>   3</c></rc>
    <rc><c>Si</c><c>   3</c></rc>
   </set>
  </array>
  <array name="atomtypes" >
   <dimension dim="1">type</dimension>
   <field type="int">atomspertype</field>
   <field type="string">element</field>
   <field>mass</field>
   <field>valence</field>
   <field type="string">pseudopotential</field>
   <set>
    <rc><c>   4</c><c>B </c><c>     10.81100000</c><c>      3.00000000</c><c>  PAW_PBE B 06Sep2000                   </c></rc>
    <rc><c>   6</c><c>Mo</c><c>     95.94000000</c><c>     14.00000000</c><c>  PAW_PBE Mo_sv 02Feb2006               </c></rc>
    <rc><c>   4</c><c>Si</c><c>     28.08500000</c><c>      4.00000000</c><c>  PAW_PBE Si 05Jan2001                  </c></rc>
   </set>
  </array>
 </atominfo>
 <structure name="initialpos" >
  <crystal>
   <varray name="basis" >
    <v>       5.15197158       0.00000000      -2.61713714 </v>
    <v>      -1.94006142       4.77273222      -2.61713714 </v>
    <v>       0.00000000       0.00000000       5.77860000 </v>
   </varray>
   <i name="volume">    142.08988427 </i>
   <varray name="rec_basis" >
    <v>       0.19410045       0.07889963       0.00000000 </v>
    <v>       0.00000000       0.20952359       0.00000000 </v>
    <v>       0.08790840       0.13062734       0.17305230 </v>
   </varray>
  </crystal>
  <varray name="positions" >
   <v>       0.50000000       0.50000000       0.50000000 </v>
   <v>       0.50000000       0.00000000       0.00000000 </v>
   <v>       0.00000000       0.00000000       0.50000000 </v>
   <v>       0.00000000       0.50000000       0.00000000 </v>
   <v>       0.21390000       0.71390000       0.92781000 </v>
   <v>       0.25000000       0.25000000       0.00000000 </v>
   <v>       0.78610000       0.28610000       0.07219000 </v>
   <v>       0.75000000       0.75000000       0.00000000 </v>
   <v>       0.71390000       0.78610000       0.50000000 </v>
   <v>       0.28610000       0.21390000       0.50000000 </v>
   <v>       0.18807000       0.31193000       0.50000000 </v>
   <v>       0.81193000       0.68807000       0.50000000 </v>
   <v>       0.31193000       0.81193000       0.12385000 </v>
   <v>       0.68807000       0.18807000       0.87615000 </v>
  </varray>
 </structure>
 <calculation>
  <scstep>
   <time name="total">   20.66   20.87</time>
   <energy>
    <i name="alphaZ">    721.38282669 </i>
    <i name="ewald">  -8621.00563494 </i>
    <i name="hartreedc">  -2651.26206074 </i>
    <i name="XCdc">    498.01496024 </i>
    <i name="pawpsdc">   9416.99506030 </i>
    <i name="pawaedc">  -9355.19475361 </i>
    <i name="eentropy">     -0.00053342 </i>
    <i name="bandstr">    -35.70207270 </i>
    <i name="atom">  11870.63976582 </i>
    <i name="e_fr_energy">   1843.86755763 </i>
    <i name="e_wo_entrp">   1843.86809106 </i>
    <i name="e_0_energy">   1843.86782435 </i>
   </energy>
  </scstep>
  <scstep>
   <time name="total">   20.15   20.35</time>
   <energy>
    <i name="e_fr_energy">    329.13412051 </i>
    <i name="e_wo_entrp">    329.13447310 </i>
    <i name="e_0_energy">    329.13429681 </i>
   </energy>
  </scstep>
  <scstep>
   <time name="total">   21.48   21.69</time>
   <energy>
    <i name="e_fr_energy">    263.43210336 </i>
    <i name="e_wo_entrp">    263.43287518 </i>
    <i name="e_0_energy">    263.43248927 </i>
   </energy>
  </scstep>
  <scstep>
   <time name="total">   20.69   20.89</time>
   <energy>
    <i name="e_fr_energy">    262.15011550 </i>
    <i name="e_wo_entrp">    262.15095049 </i>
    <i name="e_0_energy">    262.15053299 </i>
   </energy>
  </scstep>
  <scstep>
   <time name="total">   23.45   23.66</time>
   <energy>
    <i name="e_fr_energy">    262.12019104 </i>
    <i name="e_wo_entrp">    262.12103623 </i>
    <i name="e_0_energy">    262.12061364 </i>
   </energy>
  </scstep>
  <scstep>
   <time name="total">   23.01   23.23</time>
   <energy>
    <i name="e_fr_energy">    680.38031793 </i>
    <i name="e_wo_entrp">    680.38136828 </i>
    <i name="e_0_energy">    680.38084310 </i>
   </energy>
  </scstep>
  <scstep>
   <time name="total">   23.01   23.21</time>
   <energy>
    <i name="e_fr_energy">    461.17124542 </i>
    <i name="e_wo_entrp">    461.17270499 </i>
    <i name="e_0_energy">    461.17197520 </i>
   </energy>
  </scstep>
  <scstep>
   <time name="total">   23.12   23.32</time>
   <energy>
    <i name="e_fr_energy">    430.02416720 </i>
    <i name="e_wo_entrp">    430.02580554 </i>
    <i name="e_0_energy">    430.02498637 </i>
   </energy>
  </scstep>
  <scstep>
   <time name="total">   23.13   23.33</time>
   <energy>
    <i name="e_fr_energy">    419.18233673 </i>
    <i name="e_wo_entrp">    419.18384824 </i>
    <i name="e_0_energy">    419.18309249 </i>
   </energy>
  </scstep>
  <scstep>
   <time name="total">   23.23   23.46</time>
   <energy>
    <i name="e_fr_energy">    415.04652094 </i>
    <i name="e_wo_entrp">    415.04780824 </i>
    <i name="e_0_energy">    415.04716459 </i>
   </energy>
  </scstep>
  <scstep>
   <time name="total">   22.65   22.89</time>
   <energy>
    <i name="e_fr_energy">    413.48102909 </i>
    <i name="e_wo_entrp">    413.48236022 </i>
    <i name="e_0_energy">    413.48169465 </i>
   </energy>
  </scstep>
  <scstep>
   <time name="total">   22.88   23.11</time>
   <energy>
    <i name="e_fr_energy">    412.93630586 </i>
    <i name="e_wo_entrp">    412.93809042 </i>
    <i name="e_0_energy">    412.93719814 </i>
   </energy>
  </scstep>
  <scstep>
   <time name="total">   23.00   23.20</time>
   <energy>
    <i name="e_fr_energy">    412.70864631 </i>
    <i name="e_wo_entrp">    412.71057894 </i>
    <i name="e_0_energy">    412.70961262 </i>
   </energy>
  </scstep>
  <scstep>
   <time name="total">   23.02   23.23</time>
   <energy>
    <i name="e_fr_energy">    412.62046368 </i>
    <i name="e_wo_entrp">    412.62260976 </i>
    <i name="e_0_energy">    412.62153672 </i>
   </energy>
  </scstep>
  <scstep>
   <time name="total">   23.03   23.23</time>
   <energy>
    <i name="e_fr_energy">    412.58767464 </i>
    <i name="e_wo_entrp">    412.58991372 </i>
    <i name="e_0_energy">    412.58879418 </i>
   </energy>
  </scstep>
  <scstep>
   <time name="total">   22.79   23.07</time>
   <energy>
    <i name="e_fr_energy">    412.57578212 </i>
    <i name="e_wo_entrp">    412.57804886 </i>
    <i name="e_0_energy">    412.57691549 </i>
   </energy>
  </scstep>
  <scstep>
   <time name="total">   22.73   22.94</time>
   <energy>
    <i name="e_fr_energy">    412.57212586 </i>
    <i name="e_wo_entrp">    412.57439250 </i>
    <i name="e_0_energy">    412.57325918 </i>
   </energy>
  </scstep>
  <scstep>
   <time name="total">   22.97   23.19</time>
   <energy>
    <i name="e_fr_energy">    412.57085852 </i>
    <i name="e_wo_entrp">    412.57312342 </i>
    <i name="e_0_energy">    412.57199097 </i>
   </energy>
  </scstep>
  <scstep>
   <time name="total">   23.00   23.22</time>
   <energy>
    <i name="e_fr_energy">    412.57041838 </i>
    <i name="e_wo_entrp">    412.57268269 </i>
    <i name="e_0_energy">    412.57155054 </i>
   </energy>
  </scstep>
  <scstep>
   <time name="total">   22.19   22.43</time>
   <energy>
    <i name="e_fr_energy">    412.57029066 </i>
    <i name="e_wo_entrp">    412.57255422 </i>
    <i name="e_0_energy">    412.57142244 </i>
   </energy>
  </scstep>
  <scstep>
   <time name="total">   22.96   23.21</time>
   <energy>
    <i name="e_fr_energy">    412.57024364 </i>
    <i name="e_wo_entrp">    412.57250747 </i>
    <i name="e_0_energy">    412.57137556 </i>
   </energy>
  </scstep>
  <scstep>
   <time name="total">   22.80   23.01</time>
   <energy>
    <i name="e_fr_energy">    412.57022740 </i>
    <i name="e_wo_entrp">    412.57249168 </i>
    <i name="e_0_energy">    412.57135954 </i>
   </energy>
  </scstep>
  <scstep>
   <time name="total">   22.74   22.96</time>
   <energy>
    <i name="e_fr_energy">    412.57022183 </i>
    <i name="e_wo_entrp">    412.57248637 </i>
    <i name="e_0_energy">    412.57135410 </i>
   </energy>
  </scstep>
  <scstep>
   <time name="total">   22.68   22.90</time>
   <energy>
    <i name="e_fr_energy">    412.57022050 </i>
    <i name="e_wo_entrp">    412.57248517 </i>
    <i name="e_0_energy">    412.57135284 </i>
   </energy>
  </scstep>
  <scstep>
   <time name="total">   22.77   22.98</time>
   <energy>
    <i name="e_fr_energy">    412.57022017 </i>
    <i name="e_wo_entrp">    412.57248496 </i>
    <i name="e_0_energy">    412.57135257 </i>
   </energy>
  </scstep>
  <scstep>
   <time name="total">   22.30   22.50</time>
   <energy>
    <i name="e_fr_energy">    412.57021992 </i>
    <i name="e_wo_entrp">    412.57248477 </i>
    <i name="e_0_energy">    412.57135235 </i>
   </energy>
  </scstep>
  <scstep>
   <time name="total">   22.64   22.86</time>
   <energy>
    <i name="e_fr_energy">    412.57021980 </i>
    <i name="e_wo_entrp">    412.57248467 </i>
    <i name="e_0_energy">    412.57135224 </i>
   </energy>
  </scstep>
  <scstep>
   <time name="total">   22.75   22.97</time>
   <energy>
    <i name="e_fr_energy">    412.57021982 </i>
    <i name="e_wo_entrp">    412.57248469 </i>
    <i name="e_0_energy">    412.57135226 </i>
   </energy>
  </scstep>
  <scstep>
   <time name="total">   22.47   22.68</time>
   <energy>
    <i name="e_fr_energy">    412.57021986 </i>
    <i name="e_wo_entrp">    412.57248475 </i>
    <i name="e_0_energy">    412.57135230 </i>
   </energy>
  </scstep>
  <scstep>
   <time name="total">   23.85   24.06</time>
   <energy>
    <i name="e_fr_energy">    412.57021982 </i>
    <i name="e_wo_entrp">    412.57248471 </i>
    <i name="e_0_energy">    412.57135226 </i>
   </energy>
  </scstep>
  <scstep>
   <time name="total">   22.43   22.67</time>
   <energy>
    <i name="e_fr_energy">    412.57021984 </i>
    <i name="e_wo_entrp">    412.57248473 </i>
    <i name="e_0_energy">    412.57135229 </i>
   </energy>
  </scstep>
  <scstep>
   <time name="total">   22.95   23.20</time>
   <energy>
    <i name="e_fr_energy">    412.57021980 </i>
    <i name="e_wo_entrp">    412.57248469 </i>
    <i name="e_0_energy">    412.57135224 </i>
   </energy>
  </scstep>
  <scstep>
   <time name="total">   22.23   22.44</time>
   <energy>
    <i name="e_fr_energy">    412.57021984 </i>
    <i name="e_wo_entrp">    412.57248474 </i>
    <i name="e_0_energy">    412.57135229 </i>
   </energy>
  </scstep>
  <scstep>
   <time name="total">   22.98   23.19</time>
   <energy>
    <i name="e_fr_energy">    412.57021984 </i>
    <i name="e_wo_entrp">    412.57248474 </i>
    <i name="e_0_energy">    412.57135229 </i>
   </energy>
  </scstep>
  <scstep>
   <time name="total">   22.16   22.38</time>
   <energy>
    <i name="e_fr_energy">    412.57021985 </i>
    <i name="e_wo_entrp">    412.57248475 </i>
    <i name="e_0_energy">    412.57135230 </i>
   </energy>
  </scstep>
  <scstep>
   <time name="total">   22.12   22.35</time>
   <energy>
    <i name="e_fr_energy">    412.57021982 </i>
    <i name="e_wo_entrp">    412.57248473 </i>
    <i name="e_0_energy">    412.57135228 </i>
   </energy>
  </scstep>
  <scstep>
   <time name="total">   22.80   23.01</time>
   <energy>
    <i name="e_fr_energy">    412.57021979 </i>
    <i name="e_wo_entrp">    412.57248470 </i>
    <i name="e_0_energy">    412.57135224 </i>
   </energy>
  </scstep>
  <scstep>
   <time name="total">   22.73   22.93</time>
   <energy>
    <i name="e_fr_energy">    412.57021976 </i>
    <i name="e_wo_entrp">    412.57248467 </i>
    <i name="e_0_energy">    412.57135222 </i>
   </energy>
  </scstep>
  <scstep>
   <time name="total">   22.73   22.95</time>
   <energy>
    <i name="e_fr_energy">    412.57021977 </i>
    <i name="e_wo_entrp">    412.57248467 </i>
    <i name="e_0_energy">    412.57135222 </i>
   </energy>
  </scstep>
  <scstep>
   <time name="total">   22.06   22.25</time>
   <energy>
    <i name="e_fr_energy">    412.57021984 </i>
    <i name="e_wo_entrp">    412.57248475 </i>
    <i name="e_0_energy">    412.57135230 </i>
   </energy>
  </scstep>
  <scstep>
   <time name="total">   22.27   22.51</time>
   <energy>
    <i name="e_fr_energy">    412.57021984 </i>
    <i name="e_wo_entrp">    412.57248475 </i>
    <i name="e_0_energy">    412.57135229 </i>
   </energy>
  </scstep>
  <scstep>
   <time name="total">   21.89   22.10</time>
   <energy>
    <i name="e_fr_energy">    412.57021978 </i>
    <i name="e_wo_entrp">    412.57248469 </i>
    <i name="e_0_energy">    412.57135223 </i>
   </energy>
  </scstep>
  <scstep>
   <time name="total">   22.33   22.53</time>
   <energy>
    <i name="e_fr_energy">    412.57021975 </i>
    <i name="e_wo_entrp">    412.57248467 </i>
    <i name="e_0_energy">    412.57135221 </i>
   </energy>
  </scstep>
  <scstep>
   <time name="total">   22.59   22.80</time>
   <energy>
    <i name="e_fr_energy">    412.57021970 </i>
    <i name="e_wo_entrp">    412.57248462 </i>
    <i name="e_0_energy">    412.57135216 </i>
   </energy>
  </scstep>
  <scstep>
   <time name="total">   22.81   23.04</time>
   <energy>
    <i name="e_fr_energy">    412.57021975 </i>
    <i name="e_wo_entrp">    412.57248466 </i>
    <i name="e_0_energy">    412.57135221 </i>
   </energy>
  </scstep>
  <scstep>
   <time name="total">   22.21   22.43</time>
   <energy>
    <i name="e_fr_energy">    412.57021983 </i>
    <i name="e_wo_entrp">    412.57248475 </i>
    <i name="e_0_energy">    412.57135229 </i>
   </energy>
  </scstep>
  <scstep>
   <time name="total">   22.67   22.87</time>
   <energy>
    <i name="e_fr_energy">    412.57021972 </i>
    <i name="e_wo_entrp">    412.57248464 </i>
    <i name="e_0_energy">    412.57135218 </i>
   </energy>
  </scstep>
  <scstep>
   <time name="total">   22.20   22.44</time>
   <energy>
    <i name="e_fr_energy">    412.57021979 </i>
    <i name="e_wo_entrp">    412.57248471 </i>
    <i name="e_0_energy">    412.57135225 </i>
   </energy>
  </scstep>
  <scstep>
   <time name="total">   22.62   22.84</time>
   <energy>
    <i name="e_fr_energy">    412.57021977 </i>
    <i name="e_wo_entrp">    412.57248468 </i>
    <i name="e_0_energy">    412.57135222 </i>
   </energy>
  </scstep>
  <scstep>
   <time name="total">   22.25   22.47</time>
   <energy>
    <i name="e_fr_energy">    412.57021982 </i>
    <i name="e_wo_entrp">    412.57248474 </i>
    <i name="e_0_energy">    412.57135228 </i>
   </energy>
  </scstep>
  <scstep>
   <time name="total">   22.04   22.25</time>
   <energy>
    <i name="e_fr_energy">    412.57021981 </i>
    <i name="e_wo_entrp">    412.57248473 </i>
    <i name="e_0_energy">    412.57135227 </i>
   </energy>
  </scstep>
  <scstep>
   <time name="total">   22.84   23.07</time>
   <energy>
    <i name="e_fr_energy">    412.57021980 </i>
    <i name="e_wo_entrp">    412.57248472 </i>
    <i name="e_0_energy">    412.57135226 </i>
   </energy>
  </scstep>
  <scstep>
   <time name="total">   22.49   22.73</time>
   <energy>
    <i name="e_fr_energy">    412.57021971 </i>
    <i name="e_wo_entrp">    412.57248463 </i>
    <i name="e_0_energy">    412.57135217 </i>
   </energy>
  </scstep>
  <scstep>
   <time name="total">   22.52   22.73</time>
   <energy>
    <i name="e_fr_energy">    412.57021977 </i>
    <i name="e_wo_entrp">    412.57248469 </i>
    <i name="e_0_energy">    412.57135223 </i>
   </energy>
  </scstep>
  <scstep>
   <time name="total">   22.82   23.04</time>
   <energy>
    <i name="e_fr_energy">    412.57021978 </i>
    <i name="e_wo_entrp">    412.57248470 </i>
    <i name="e_0_energy">    412.57135224 </i>
   </energy>
  </scstep>
  <scstep>
   <time name="total">   22.57   22.79</time>
   <energy>
    <i name="e_fr_energy">    412.57021979 </i>
    <i name="e_wo_entrp">    412.57248471 </i>
    <i name="e_0_energy">    412.57135225 </i>
   </energy>
  </scstep>
  <scstep>
   <time name="total">   22.79   23.00</time>
   <energy>
    <i name="e_fr_energy">    412.57021984 </i>
    <i name="e_wo_entrp">    412.57248476 </i>
    <i name="e_0_energy">    412.57135230 </i>
   </energy>
  </scstep>
  <scstep>
   <time name="total">   22.14   22.34</time>
   <energy>
    <i name="e_fr_energy">    412.57021984 </i>
    <i name="e_wo_entrp">    412.57248476 </i>
    <i name="e_0_energy">    412.57135230 </i>
   </energy>
  </scstep>
  <scstep>
   <time name="total">   23.01   23.22</time>
   <energy>
    <i name="e_fr_energy">    412.57021978 </i>
    <i name="e_wo_entrp">    412.57248470 </i>
    <i name="e_0_energy">    412.57135224 </i>
   </energy>
  </scstep>
  <scstep>
   <time name="total">   22.61   22.81</time>
   <energy>
    <i name="e_fr_energy">    412.57021974 </i>
    <i name="e_wo_entrp">    412.57248466 </i>
    <i name="e_0_energy">    412.57135220 </i>
   </energy>
  </scstep>
  <scstep>
   <time name="total">   22.39   22.59</time>
   <energy>
    <i name="e_fr_energy">    412.57021985 </i>
    <i name="e_wo_entrp">    412.57248477 </i>
    <i name="e_0_energy">    412.57135231 </i>
   </energy>
  </scstep>
  <scstep>
   <time name="total">   22.71   22.92</time>
   <energy>
    <i name="e_fr_energy">    412.57021981 </i>
    <i name="e_wo_entrp">    412.57248473 </i>
    <i name="e_0_energy">    412.57135227 </i>
   </energy>
  </scstep>
  <scstep>
   <time name="total">   22.07   22.28</time>
   <energy>
    <i name="e_fr_energy">    412.57021988 </i>
    <i name="e_wo_entrp">    412.57248480 </i>
    <i name="e_0_energy">    412.57135234 </i>
   </energy>
  </scstep>
  <scstep>
   <time name="total">   22.67   22.89</time>
   <energy>
    <i name="e_fr_energy">    412.57021980 </i>
    <i name="e_wo_entrp">    412.57248472 </i>
    <i name="e_0_energy">    412.57135226 </i>
   </energy>
  </scstep>
  <scstep>
   <time name="total">   22.80   23.00</time>
   <energy>
    <i name="e_fr_energy">    412.57021977 </i>
    <i name="e_wo_entrp">    412.57248469 </i>
    <i name="e_0_energy">    412.57135223 </i>
   </energy>
  </scstep>
  <scstep>
   <time name="total">   22.32   22.53</time>
   <energy>
    <i name="e_fr_energy">    412.57021984 </i>
    <i name="e_wo_entrp">    412.57248476 </i>
    <i name="e_0_energy">    412.57135230 </i>
   </energy>
  </scstep>
  <scstep>
   <time name="total">   22.87   23.09</time>
   <energy>
    <i name="e_fr_energy">    412.57021978 </i>
    <i name="e_wo_entrp">    412.57248470 </i>
    <i name="e_0_energy">    412.57135224 </i>
   </energy>
  </scstep>
  <scstep>
   <time name="total">   22.73   22.94</time>
   <energy>
    <i name="e_fr_energy">    412.57021977 </i>
    <i name="e_wo_entrp">    412.57248469 </i>
    <i name="e_0_energy">    412.57135223 </i>
   </energy>
  </scstep>
  <scstep>
   <time name="total">   22.69   22.90</time>
   <energy>
    <i name="e_fr_energy">    412.57021983 </i>
    <i name="e_wo_entrp">    412.57248475 </i>
    <i name="e_0_energy">    412.57135229 </i>
   </energy>
  </scstep>
  <scstep>
   <time name="total">   22.23   22.43</time>
   <energy>
    <i name="e_fr_energy">    412.57021982 </i>
    <i name="e_wo_entrp">    412.57248475 </i>
    <i name="e_0_energy">    412.57135229 </i>
   </energy>
  </scstep>
  <scstep>
   <time name="total">   22.60   22.81</time>
   <energy>
    <i name="e_fr_energy">    412.57021977 </i>
    <i name="e_wo_entrp">    412.57248469 </i>
    <i name="e_0_energy">    412.57135223 </i>
   </energy>
  </scstep>
  <scstep>
   <time name="total">   26.04   26.30</time>
   <energy>
    <i name="alphaZ">    721.38282669 </i>
    <i name="ewald">  -8621.00563494 </i>
    <i name="hartreedc">  -3162.19620154 </i>
    <i name="XCdc">    538.88073027 </i>
    <i name="pawpsdc">**************** </i>
    <i name="pawaedc">**************** </i>
    <i name="eentropy">     -0.00226492 </i>
    <i name="bandstr">  -1047.81105327 </i>
    <i name="atom">  11870.63976582 </i>
    <i name="e_fr_energy">    412.57021977 </i>
    <i name="e_wo_entrp">    412.57248469 </i>
    <i name="e_0_energy">    412.57135223 </i>
   </energy>
  </scstep>
  <structure>
   <crystal>
    <varray name="basis" >
     <v>       5.15197158       0.00000000      -2.61713714 </v>
     <v>      -1.94006142       4.77273222      -2.61713714 </v>
     <v>       0.00000000       0.00000000       5.77860000 </v>
    </varray>
    <i name="volume">    142.08988427 </i>
    <varray name="rec_basis" >
     <v>       0.19410045       0.07889963       0.00000000 </v>
     <v>       0.00000000       0.20952359       0.00000000 </v>
     <v>       0.08790840       0.13062734       0.17305230 </v>
    </varray>
   </crystal>
   <varray name="positions" >
    <v>       0.50000000       0.50000000       0.50000000 </v>
    <v>       0.50000000       0.00000000       0.00000000 </v>
    <v>       0.00000000       0.00000000       0.50000000 </v>
    <v>       0.00000000       0.50000000       0.00000000 </v>
    <v>       0.21390000       0.71390000       0.92781000 </v>
    <v>       0.25000000       0.25000000       0.00000000 </v>
    <v>       0.78610000       0.28610000       0.07219000 </v>
    <v>       0.75000000       0.75000000       0.00000000 </v>
    <v>       0.71390000       0.78610000       0.50000000 </v>
    <v>       0.28610000       0.21390000       0.50000000 </v>
    <v>       0.18807000       0.31193000       0.50000000 </v>
    <v>       0.81193000       0.68807000       0.50000000 </v>
    <v>       0.31193000       0.81193000       0.12385000 </v>
    <v>       0.68807000       0.18807000       0.87615000 </v>
   </varray>
  </structure>
  <varray name="forces" >
   <v>       0.00000000       0.00000000       0.00000000 </v>
   <v>       0.00000000       0.00000000       0.00000000 </v>
   <v>       0.00000000       0.00000000       0.00000000 </v>
   <v>       0.00000000       0.00000000       0.00000000 </v>
   <v>       0.00000000       0.00000000       0.00000000 </v>
   <v>       0.00000000       0.00000000       0.00000000 </v>
   <v>       0.00000000       0.00000000       0.00000000 </v>
   <v>       0.00000000       0.00000000       0.00000000 </v>
   <v>       0.00000000       0.00000000       0.00000000 </v>
   <v>       0.00000000       0.00000000       0.00000000 </v>
   <v>       0.00000000       0.00000000       0.00000000 </v>
   <v>       0.00000000       0.00000000       0.00000000 </v>
   <v>       0.00000000       0.00000000       0.00000000 </v>
   <v>       0.00000000       0.00000000       0.00000000 </v>
  </varray>
  <varray name="stress" >
   <v>       0.00000000       0.00000000       0.00000000 </v>
   <v>       0.00000000       0.00000000       0.00000000 </v>
   <v>       0.00000000       0.00000000       0.00000000 </v>
  </varray>
  <energy>
   <i name="e_fr_energy">    412.57021977 </i>
   <i name="e_wo_entrp">    412.57248469 </i>
   <i name="e_0_energy">    412.57135223 </i>
  </energy>
  <time name="totalsc"> 1630.43 1646.00</time>
  <eigenvalues>
   <array>
    <dimension dim="1">band</dimension>
    <dimension dim="2">kpoint</dimension>
    <dimension dim="3">spin</dimension>
    <field>eigene</field>
    <field>occ</field>
    <set>
     <set comment="spin 1">
      <set comment="kpoint 1">
       <r>  -50.7416    1.0000 </r>
       <r>  -50.7389    1.0000 </r>
       <r>  -48.5369    1.0000 </r>
       <r>  -48.5193    1.0000 </r>
       <r>  -48.5150    1.0000 </r>
       <r>  -48.4957    1.0000 </r>
       <r>  -26.3354    1.0000 </r>
       <r>  -26.3219    1.0000 </r>
       <r>  -26.3168    1.0000 </r>
       <r>  -26.2329    1.0000 </r>
       <r>  -25.8800    1.0000 </r>
       <r>  -25.7391    1.0000 </r>
       <r>  -25.7361    1.0000 </r>
       <r>  -25.6787    1.0000 </r>
       <r>  -25.4633    1.0000 </r>
       <r>  -25.4630    1.0000 </r>
       <r>  -25.4608    1.0000 </r>
       <r>  -25.4285    1.0000 </r>
       <r>  -24.1923    1.0000 </r>
       <r>  -24.1921    1.0000 </r>
       <r>  -24.1872    1.0000 </r>
       <r>  -24.1871    1.0000 </r>
       <r>  -24.1267    1.0000 </r>
       <r>  -24.0841    1.0000 </r>
       <r>    0.1945    1.0000 </r>
       <r>    1.4730    1.0000 </r>
       <r>    3.4276    1.0000 </r>
       <r>    3.7005    1.0000 </r>
       <r>    3.7016    1.0000 </r>
       <r>    4.2907    1.0000 </r>
       <r>    4.8942    1.0000 </r>
       <r>    5.2220    1.0000 </r>
       <r>    5.2700    1.0000 </r>
       <r>    5.2707    1.0000 </r>
       <r>    5.5860    1.0000 </r>
       <r>    5.6658    1.0000 </r>
       <r>    5.6668    1.0000 </r>
       <r>    5.9113    1.0000 </r>
       <r>    6.7499    1.0000 </r>
       <r>    6.7505    1.0000 </r>
       <r>    7.5033    1.0000 </r>
       <r>    7.7661    1.0000 </r>
       <r>    8.3427    1.0000 </r>
       <r>    8.3436    1.0000 </r>
       <r>    8.8792    1.0000 </r>
       <r>    8.8800    1.0000 </r>
       <r>    9.8297    1.0000 </r>
       <r>    9.8696    1.0000 </r>
       <r>    9.8707    1.0000 </r>
       <r>    9.9989    1.0000 </r>
       <r>   10.6058    1.0000 </r>
       <r>   11.0183    1.0000 </r>
       <r>   11.1638    1.0000 </r>
       <r>   11.3074    1.0000 </r>
       <r>   11.7229    0.9911 </r>
       <r>   12.3929    0.0000 </r>
       <r>   12.6713    0.0000 </r>
       <r>   12.8316    0.0000 </r>
       <r>   12.8318    0.0000 </r>
       <r>   13.1545    0.0000 </r>
       <r>   13.7748    0.0000 </r>
       <r>   13.8126    0.0000 </r>
       <r>   13.8128    0.0000 </r>
       <r>   14.7925    0.0000 </r>
       <r>   14.7942    0.0000 </r>
       <r>   15.8475    0.0000 </r>
       <r>   15.8477    0.0000 </r>
       <r>   16.9287    0.0000 </r>
       <r>   17.2074    0.0000 </r>
       <r>   17.5822    0.0000 </r>
       <r>   17.8133    0.0000 </r>
       <r>   17.8196    0.0000 </r>
      </set>
      <set comment="kpoint 2">
       <r>  -50.7415    1.0000 </r>
       <r>  -50.7390    1.0000 </r>
       <r>  -48.5361    1.0000 </r>
       <r>  -48.5195    1.0000 </r>
       <r>  -48.5147    1.0000 </r>
       <r>  -48.4967    1.0000 </r>
       <r>  -26.3301    1.0000 </r>
       <r>  -26.3170    1.0000 </r>
       <r>  -26.3111    1.0000 </r>
       <r>  -26.2344    1.0000 </r>
       <r>  -25.8640    1.0000 </r>
       <r>  -25.7362    1.0000 </r>
       <r>  -25.7222    1.0000 </r>
       <r>  -25.6712    1.0000 </r>
       <r>  -25.4783    1.0000 </r>
       <r>  -25.4700    1.0000 </r>
       <r>  -25.4601    1.0000 </r>
       <r>  -25.4313    1.0000 </r>
       <r>  -24.2000    1.0000 </r>
       <r>  -24.1989    1.0000 </r>
       <r>  -24.1935    1.0000 </r>
       <r>  -24.1931    1.0000 </r>
       <r>  -24.1318    1.0000 </r>
       <r>  -24.0930    1.0000 </r>
       <r>    0.3254    1.0000 </r>
       <r>    1.5550    1.0000 </r>
       <r>    3.4095    1.0000 </r>
       <r>    3.5400    1.0000 </r>
       <r>    3.5991    1.0000 </r>
       <r>    4.3171    1.0000 </r>
       <r>    4.9922    1.0000 </r>
       <r>    5.1354    1.0000 </r>
       <r>    5.3052    1.0000 </r>
       <r>    5.3458    1.0000 </r>
       <r>    5.6151    1.0000 </r>
       <r>    5.8420    1.0000 </r>
       <r>    5.9379    1.0000 </r>
       <r>    6.0642    1.0000 </r>
       <r>    6.7507    1.0000 </r>
       <r>    6.8365    1.0000 </r>
       <r>    7.3873    1.0000 </r>
       <r>    7.7653    1.0000 </r>
       <r>    8.1811    1.0000 </r>
       <r>    8.2859    1.0000 </r>
       <r>    8.7757    1.0000 </r>
       <r>    8.8988    1.0000 </r>
       <r>    9.1633    1.0000 </r>
       <r>    9.6875    1.0000 </r>
       <r>    9.9977    1.0000 </r>
       <r>   10.2235    1.0000 </r>
       <r>   10.6171    1.0000 </r>
       <r>   10.7585    1.0000 </r>
       <r>   11.0222    1.0000 </r>
       <r>   11.0698    1.0000 </r>
       <r>   11.5820    1.0000 </r>
       <r>   12.0644    0.0000 </r>
       <r>   12.4911    0.0000 </r>
       <r>   12.8365    0.0000 </r>
       <r>   12.9477    0.0000 </r>
       <r>   13.0967    0.0000 </r>
       <r>   13.7706    0.0000 </r>
       <r>   13.8052    0.0000 </r>
       <r>   14.0012    0.0000 </r>
       <r>   14.9860    0.0000 </r>
       <r>   15.2526    0.0000 </r>
       <r>   15.8174    0.0000 </r>
       <r>   16.1344    0.0000 </r>
       <r>   16.3329    0.0000 </r>
       <r>   16.6777    0.0000 </r>
       <r>   17.5188    0.0000 </r>
       <r>   17.6273    0.0000 </r>
       <r>   18.2409    0.0000 </r>
      </set>
      <set comment="kpoint 3">
       <r>  -50.7409    1.0000 </r>
       <r>  -50.7392    1.0000 </r>
       <r>  -48.5337    1.0000 </r>
       <r>  -48.5218    1.0000 </r>
       <r>  -48.5126    1.0000 </r>
       <r>  -48.4997    1.0000 </r>
       <r>  -26.3177    1.0000 </r>
       <r>  -26.3082    1.0000 </r>
       <r>  -26.2943    1.0000 </r>
       <r>  -26.2403    1.0000 </r>
       <r>  -25.8223    1.0000 </r>
       <r>  -25.7349    1.0000 </r>
       <r>  -25.6804    1.0000 </r>
       <r>  -25.6489    1.0000 </r>
       <r>  -25.5154    1.0000 </r>
       <r>  -25.5014    1.0000 </r>
       <r>  -25.4560    1.0000 </r>
       <r>  -25.4369    1.0000 </r>
       <r>  -24.2208    1.0000 </r>
       <r>  -24.2160    1.0000 </r>
       <r>  -24.2097    1.0000 </r>
       <r>  -24.2081    1.0000 </r>
       <r>  -24.1374    1.0000 </r>
       <r>  -24.1112    1.0000 </r>
       <r>    0.7030    1.0000 </r>
       <r>    1.7929    1.0000 </r>
       <r>    2.7810    1.0000 </r>
       <r>    3.1271    1.0000 </r>
       <r>    3.8657    1.0000 </r>
       <r>    4.7097    1.0000 </r>
       <r>    4.9526    1.0000 </r>
       <r>    5.2247    1.0000 </r>
       <r>    5.4494    1.0000 </r>
       <r>    5.5918    1.0000 </r>
       <r>    5.8490    1.0000 </r>
       <r>    6.1186    1.0000 </r>
       <r>    6.2656    1.0000 </r>
       <r>    6.4008    1.0000 </r>
       <r>    6.7812    1.0000 </r>
       <r>    6.9941    1.0000 </r>
       <r>    7.1707    1.0000 </r>
       <r>    7.6550    1.0000 </r>
       <r>    7.8089    1.0000 </r>
       <r>    8.0609    1.0000 </r>
       <r>    8.2878    1.0000 </r>
       <r>    8.5423    1.0000 </r>
       <r>    8.7990    1.0000 </r>
       <r>    9.4998    1.0000 </r>
       <r>    9.5757    1.0000 </r>
       <r>   10.1809    1.0000 </r>
       <r>   10.3413    1.0000 </r>
       <r>   10.7421    1.0000 </r>
       <r>   10.8761    1.0000 </r>
       <r>   11.0243    1.0000 </r>
       <r>   11.2481    1.0000 </r>
       <r>   11.7948    0.0032 </r>
       <r>   12.2501    0.0000 </r>
       <r>   12.3615    0.0000 </r>
       <r>   13.1086    0.0000 </r>
       <r>   13.1861    0.0000 </r>
       <r>   13.6443    0.0000 </r>
       <r>   13.8437    0.0000 </r>
       <r>   14.0896    0.0000 </r>
       <r>   15.3010    0.0000 </r>
       <r>   15.6916    0.0000 </r>
       <r>   15.9100    0.0000 </r>
       <r>   16.1786    0.0000 </r>
       <r>   16.3579    0.0000 </r>
       <r>   16.8797    0.0000 </r>
       <r>   17.2356    0.0000 </r>
       <r>   17.6618    0.0000 </r>
       <r>   19.0818    0.0000 </r>
      </set>
      <set comment="kpoint 4">
       <r>  -50.7403    1.0000 </r>
       <r>  -50.7397    1.0000 </r>
       <r>  -48.5300    1.0000 </r>
       <r>  -48.5257    1.0000 </r>
       <r>  -48.5086    1.0000 </r>
       <r>  -48.5039    1.0000 </r>
       <r>  -26.3066    1.0000 </r>
       <r>  -26.3032    1.0000 </r>
       <r>  -26.2725    1.0000 </r>
       <r>  -26.2530    1.0000 </r>
       <r>  -25.7745    1.0000 </r>
       <r>  -25.7440    1.0000 </r>
       <r>  -25.6235    1.0000 </r>
       <r>  -25.6092    1.0000 </r>
       <r>  -25.5670    1.0000 </r>
       <r>  -25.5526    1.0000 </r>
       <r>  -25.4501    1.0000 </r>
       <r>  -25.4434    1.0000 </r>
       <r>  -24.2389    1.0000 </r>
       <r>  -24.2360    1.0000 </r>
       <r>  -24.2215    1.0000 </r>
       <r>  -24.2208    1.0000 </r>
       <r>  -24.1353    1.0000 </r>
       <r>  -24.1264    1.0000 </r>
       <r>    1.2856    1.0000 </r>
       <r>    2.0064    1.0000 </r>
       <r>    2.1659    1.0000 </r>
       <r>    2.6290    1.0000 </r>
       <r>    4.2875    1.0000 </r>
       <r>    4.7008    1.0000 </r>
       <r>    5.1874    1.0000 </r>
       <r>    5.2857    1.0000 </r>
       <r>    5.7122    1.0000 </r>
       <r>    6.0400    1.0000 </r>
       <r>    6.2744    1.0000 </r>
       <r>    6.2781    1.0000 </r>
       <r>    6.3831    1.0000 </r>
       <r>    6.6308    1.0000 </r>
       <r>    6.8262    1.0000 </r>
       <r>    6.9913    1.0000 </r>
       <r>    7.0332    1.0000 </r>
       <r>    7.2444    1.0000 </r>
       <r>    7.2991    1.0000 </r>
       <r>    7.6891    1.0000 </r>
       <r>    7.9653    1.0000 </r>
       <r>    8.3515    1.0000 </r>
       <r>    8.6027    1.0000 </r>
       <r>    8.8605    1.0000 </r>
       <r>    9.6746    1.0000 </r>
       <r>    9.9520    1.0000 </r>
       <r>   10.4595    1.0000 </r>
       <r>   10.7135    1.0000 </r>
       <r>   10.9383    1.0000 </r>
       <r>   11.0116    1.0000 </r>
       <r>   11.2278    1.0000 </r>
       <r>   11.6828    1.0000 </r>
       <r>   11.7231    0.9906 </r>
       <r>   11.8635    0.0000 </r>
       <r>   13.2401    0.0000 </r>
       <r>   13.4308    0.0000 </r>
       <r>   13.5305    0.0000 </r>
       <r>   13.8533    0.0000 </r>
       <r>   14.4578    0.0000 </r>
       <r>   14.9941    0.0000 </r>
       <r>   15.6032    0.0000 </r>
       <r>   15.7752    0.0000 </r>
       <r>   16.4064    0.0000 </r>
       <r>   16.4459    0.0000 </r>
       <r>   17.0046    0.0000 </r>
       <r>   17.0062    0.0000 </r>
       <r>   18.8051    0.0000 </r>
       <r>   19.5385    0.0000 </r>
      </set>
      <set comment="kpoint 5">
       <r>  -50.7410    1.0000 </r>
       <r>  -50.7392    1.0000 </r>
       <r>  -48.5355    1.0000 </r>
       <r>  -48.5193    1.0000 </r>
       <r>  -48.5149    1.0000 </r>
       <r>  -48.4979    1.0000 </r>
       <r>  -26.3223    1.0000 </r>
       <r>  -26.3118    1.0000 </r>
       <r>  -26.2985    1.0000 </r>
       <r>  -26.2367    1.0000 </r>
       <r>  -25.8404    1.0000 </r>
       <r>  -25.7193    1.0000 </r>
       <r>  -25.7142    1.0000 </r>
       <r>  -25.6647    1.0000 </r>
       <r>  -25.4852    1.0000 </r>
       <r>  -25.4798    1.0000 </r>
       <r>  -25.4656    1.0000 </r>
       <r>  -25.4367    1.0000 </r>
       <r>  -24.2164    1.0000 </r>
       <r>  -24.2128    1.0000 </r>
       <r>  -24.2041    1.0000 </r>
       <r>  -24.1991    1.0000 </r>
       <r>  -24.1385    1.0000 </r>
       <r>  -24.1067    1.0000 </r>
       <r>    0.5769    1.0000 </r>
       <r>    1.7546    1.0000 </r>
       <r>    3.0042    1.0000 </r>
       <r>    3.1117    1.0000 </r>
       <r>    3.7405    1.0000 </r>
       <r>    4.6059    1.0000 </r>
       <r>    5.1480    1.0000 </r>
       <r>    5.1881    1.0000 </r>
       <r>    5.2547    1.0000 </r>
       <r>    5.4577    1.0000 </r>
       <r>    5.6458    1.0000 </r>
       <r>    6.0727    1.0000 </r>
       <r>    6.1126    1.0000 </r>
       <r>    6.3047    1.0000 </r>
       <r>    6.8809    1.0000 </r>
       <r>    7.0315    1.0000 </r>
       <r>    7.2831    1.0000 </r>
       <r>    7.7202    1.0000 </r>
       <r>    7.9880    1.0000 </r>
       <r>    8.3038    1.0000 </r>
       <r>    8.5936    1.0000 </r>
       <r>    8.8103    1.0000 </r>
       <r>    8.9166    1.0000 </r>
       <r>    9.3152    1.0000 </r>
       <r>    9.6221    1.0000 </r>
       <r>   10.2715    1.0000 </r>
       <r>   10.4311    1.0000 </r>
       <r>   10.6201    1.0000 </r>
       <r>   10.6250    1.0000 </r>
       <r>   10.8718    1.0000 </r>
       <r>   11.5467    1.0000 </r>
       <r>   11.8696    0.0000 </r>
       <r>   12.4323    0.0000 </r>
       <r>   12.4655    0.0000 </r>
       <r>   12.9579    0.0000 </r>
       <r>   13.0779    0.0000 </r>
       <r>   13.7056    0.0000 </r>
       <r>   13.8807    0.0000 </r>
       <r>   14.2060    0.0000 </r>
       <r>   15.2912    0.0000 </r>
       <r>   15.5126    0.0000 </r>
       <r>   15.8705    0.0000 </r>
       <r>   16.3510    0.0000 </r>
       <r>   16.4160    0.0000 </r>
       <r>   16.6164    0.0000 </r>
       <r>   17.4285    0.0000 </r>
       <r>   17.7870    0.0000 </r>
       <r>   18.3531    0.0000 </r>
      </set>
      <set comment="kpoint 6">
       <r>  -50.7404    1.0000 </r>
       <r>  -50.7396    1.0000 </r>
       <r>  -48.5331    1.0000 </r>
       <r>  -48.5208    1.0000 </r>
       <r>  -48.5133    1.0000 </r>
       <r>  -48.5009    1.0000 </r>
       <r>  -26.3109    1.0000 </r>
       <r>  -26.3013    1.0000 </r>
       <r>  -26.2831    1.0000 </r>
       <r>  -26.2449    1.0000 </r>
       <r>  -25.7968    1.0000 </r>
       <r>  -25.7166    1.0000 </r>
       <r>  -25.6734    1.0000 </r>
       <r>  -25.6438    1.0000 </r>
       <r>  -25.5209    1.0000 </r>
       <r>  -25.5090    1.0000 </r>
       <r>  -25.4661    1.0000 </r>
       <r>  -25.4451    1.0000 </r>
       <r>  -24.2332    1.0000 </r>
       <r>  -24.2295    1.0000 </r>
       <r>  -24.2193    1.0000 </r>
       <r>  -24.2141    1.0000 </r>
       <r>  -24.1416    1.0000 </r>
       <r>  -24.1239    1.0000 </r>
       <r>    1.0537    1.0000 </r>
       <r>    2.0944    1.0000 </r>
       <r>    2.3248    1.0000 </r>
       <r>    2.6875    1.0000 </r>
       <r>    4.0863    1.0000 </r>
       <r>    4.9400    1.0000 </r>
       <r>    5.1158    1.0000 </r>
       <r>    5.3496    1.0000 </r>
       <r>    5.4425    1.0000 </r>
       <r>    5.7527    1.0000 </r>
       <r>    5.8961    1.0000 </r>
       <r>    6.1302    1.0000 </r>
       <r>    6.2274    1.0000 </r>
       <r>    6.6826    1.0000 </r>
       <r>    6.9085    1.0000 </r>
       <r>    7.0784    1.0000 </r>
       <r>    7.2537    1.0000 </r>
       <r>    7.3814    1.0000 </r>
       <r>    7.6855    1.0000 </r>
       <r>    8.0705    1.0000 </r>
       <r>    8.1555    1.0000 </r>
       <r>    8.5165    1.0000 </r>
       <r>    8.6701    1.0000 </r>
       <r>    8.8060    1.0000 </r>
       <r>    9.3820    1.0000 </r>
       <r>   10.0011    1.0000 </r>
       <r>   10.3588    1.0000 </r>
       <r>   10.4375    1.0000 </r>
       <r>   10.8253    1.0000 </r>
       <r>   10.9573    1.0000 </r>
       <r>   11.3977    1.0000 </r>
       <r>   11.6100    1.0000 </r>
       <r>   12.0077    0.0000 </r>
       <r>   12.0975    0.0000 </r>
       <r>   12.9910    0.0000 </r>
       <r>   13.3518    0.0000 </r>
       <r>   13.7654    0.0000 </r>
       <r>   14.1174    0.0000 </r>
       <r>   14.2688    0.0000 </r>
       <r>   15.2097    0.0000 </r>
       <r>   15.3409    0.0000 </r>
       <r>   15.7899    0.0000 </r>
       <r>   16.3068    0.0000 </r>
       <r>   16.7392    0.0000 </r>
       <r>   17.0454    0.0000 </r>
       <r>   17.1710    0.0000 </r>
       <r>   18.3856    0.0000 </r>
       <r>   19.2422    0.0000 </r>
      </set>
      <set comment="kpoint 7">
       <r>  -50.7401    1.0000 </r>
       <r>  -50.7398    1.0000 </r>
       <r>  -48.5293    1.0000 </r>
       <r>  -48.5245    1.0000 </r>
       <r>  -48.5094    1.0000 </r>
       <r>  -48.5051    1.0000 </r>
       <r>  -26.3040    1.0000 </r>
       <r>  -26.2975    1.0000 </r>
       <r>  -26.2661    1.0000 </r>
       <r>  -26.2599    1.0000 </r>
       <r>  -25.7553    1.0000 </r>
       <r>  -25.7334    1.0000 </r>
       <r>  -25.6173    1.0000 </r>
       <r>  -25.6062    1.0000 </r>
       <r>  -25.5738    1.0000 </r>
       <r>  -25.5580    1.0000 </r>
       <r>  -25.4603    1.0000 </r>
       <r>  -25.4529    1.0000 </r>
       <r>  -24.2399    1.0000 </r>
       <r>  -24.2370    1.0000 </r>
       <r>  -24.2255    1.0000 </r>
       <r>  -24.2235    1.0000 </r>
       <r>  -24.1370    1.0000 </r>
       <r>  -24.1359    1.0000 </r>
       <r>    1.6249    1.0000 </r>
       <r>    1.7093    1.0000 </r>
       <r>    2.2626    1.0000 </r>
       <r>    2.5425    1.0000 </r>
       <r>    4.4970    1.0000 </r>
       <r>    4.6659    1.0000 </r>
       <r>    5.3021    1.0000 </r>
       <r>    5.3164    1.0000 </r>
       <r>    5.8259    1.0000 </r>
       <r>    5.8963    1.0000 </r>
       <r>    6.1267    1.0000 </r>
       <r>    6.2965    1.0000 </r>
       <r>    6.4599    1.0000 </r>
       <r>    6.7265    1.0000 </r>
       <r>    6.8637    1.0000 </r>
       <r>    6.9125    1.0000 </r>
       <r>    7.0120    1.0000 </r>
       <r>    7.1610    1.0000 </r>
       <r>    7.4460    1.0000 </r>
       <r>    7.5157    1.0000 </r>
       <r>    7.9030    1.0000 </r>
       <r>    8.2710    1.0000 </r>
       <r>    8.6452    1.0000 </r>
       <r>    8.7448    1.0000 </r>
       <r>    9.5478    1.0000 </r>
       <r>    9.7523    1.0000 </r>
       <r>   10.2604    1.0000 </r>
       <r>   10.5543    1.0000 </r>
       <r>   10.8763    1.0000 </r>
       <r>   11.0643    1.0000 </r>
       <r>   11.4244    1.0000 </r>
       <r>   11.5408    1.0000 </r>
       <r>   11.7721    0.1332 </r>
       <r>   11.8383    0.0000 </r>
       <r>   13.1189    0.0000 </r>
       <r>   13.6506    0.0000 </r>
       <r>   13.7992    0.0000 </r>
       <r>   14.0243    0.0000 </r>
       <r>   14.5531    0.0000 </r>
       <r>   14.7968    0.0000 </r>
       <r>   15.3195    0.0000 </r>
       <r>   15.6274    0.0000 </r>
       <r>   16.4732    0.0000 </r>
       <r>   16.7537    0.0000 </r>
       <r>   17.0317    0.0000 </r>
       <r>   17.2300    0.0000 </r>
       <r>   19.2097    0.0000 </r>
       <r>   19.4594    0.0000 </r>
      </set>
      <set comment="kpoint 8">
       <r>  -50.7407    1.0000 </r>
       <r>  -50.7393    1.0000 </r>
       <r>  -48.5286    1.0000 </r>
       <r>  -48.5249    1.0000 </r>
       <r>  -48.5098    1.0000 </r>
       <r>  -48.5048    1.0000 </r>
       <r>  -26.3065    1.0000 </r>
       <r>  -26.3040    1.0000 </r>
       <r>  -26.2787    1.0000 </r>
       <r>  -26.2508    1.0000 </r>
       <r>  -25.7732    1.0000 </r>
       <r>  -25.7336    1.0000 </r>
       <r>  -25.6341    1.0000 </r>
       <r>  -25.6067    1.0000 </r>
       <r>  -25.5624    1.0000 </r>
       <r>  -25.5525    1.0000 </r>
       <r>  -25.4605    1.0000 </r>
       <r>  -25.4518    1.0000 </r>
       <r>  -24.2350    1.0000 </r>
       <r>  -24.2334    1.0000 </r>
       <r>  -24.2139    1.0000 </r>
       <r>  -24.2117    1.0000 </r>
       <r>  -24.1411    1.0000 </r>
       <r>  -24.1252    1.0000 </r>
       <r>    1.0130    1.0000 </r>
       <r>    1.8950    1.0000 </r>
       <r>    2.4762    1.0000 </r>
       <r>    3.0355    1.0000 </r>
       <r>    4.2133    1.0000 </r>
       <r>    4.7804    1.0000 </r>
       <r>    4.9503    1.0000 </r>
       <r>    5.3319    1.0000 </r>
       <r>    5.5487    1.0000 </r>
       <r>    5.9897    1.0000 </r>
       <r>    6.0718    1.0000 </r>
       <r>    6.3568    1.0000 </r>
       <r>    6.4576    1.0000 </r>
       <r>    6.5713    1.0000 </r>
       <r>    6.7493    1.0000 </r>
       <r>    6.8953    1.0000 </r>
       <r>    7.0259    1.0000 </r>
       <r>    7.1973    1.0000 </r>
       <r>    7.3393    1.0000 </r>
       <r>    7.5855    1.0000 </r>
       <r>    7.9225    1.0000 </r>
       <r>    8.4038    1.0000 </r>
       <r>    8.7424    1.0000 </r>
       <r>    9.1864    1.0000 </r>
       <r>    9.4802    1.0000 </r>
       <r>    9.8630    1.0000 </r>
       <r>   10.2578    1.0000 </r>
       <r>   10.7351    1.0000 </r>
       <r>   10.8760    1.0000 </r>
       <r>   11.0897    1.0000 </r>
       <r>   11.2945    1.0000 </r>
       <r>   11.7041    0.9999 </r>
       <r>   11.9829    0.0000 </r>
       <r>   12.0956    0.0000 </r>
       <r>   13.2674    0.0000 </r>
       <r>   13.4480    0.0000 </r>
       <r>   13.6329    0.0000 </r>
       <r>   14.0895    0.0000 </r>
       <r>   14.5041    0.0000 </r>
       <r>   14.9856    0.0000 </r>
       <r>   15.3123    0.0000 </r>
       <r>   15.5747    0.0000 </r>
       <r>   16.4202    0.0000 </r>
       <r>   16.8598    0.0000 </r>
       <r>   16.9698    0.0000 </r>
       <r>   17.1156    0.0000 </r>
       <r>   18.4038    0.0000 </r>
       <r>   19.5075    0.0000 </r>
      </set>
      <set comment="kpoint 9">
       <r>  -50.7412    1.0000 </r>
       <r>  -50.7390    1.0000 </r>
       <r>  -48.5324    1.0000 </r>
       <r>  -48.5209    1.0000 </r>
       <r>  -48.5136    1.0000 </r>
       <r>  -48.5006    1.0000 </r>
       <r>  -26.3184    1.0000 </r>
       <r>  -26.3128    1.0000 </r>
       <r>  -26.2969    1.0000 </r>
       <r>  -26.2408    1.0000 </r>
       <r>  -25.8221    1.0000 </r>
       <r>  -25.7280    1.0000 </r>
       <r>  -25.6892    1.0000 </r>
       <r>  -25.6421    1.0000 </r>
       <r>  -25.5139    1.0000 </r>
       <r>  -25.5048    1.0000 </r>
       <r>  -25.4666    1.0000 </r>
       <r>  -25.4428    1.0000 </r>
       <r>  -24.2185    1.0000 </r>
       <r>  -24.2182    1.0000 </r>
       <r>  -24.1984    1.0000 </r>
       <r>  -24.1942    1.0000 </r>
       <r>  -24.1387    1.0000 </r>
       <r>  -24.1078    1.0000 </r>
       <r>    0.5607    1.0000 </r>
       <r>    1.6346    1.0000 </r>
       <r>    3.2446    1.0000 </r>
       <r>    3.4679    1.0000 </r>
       <r>    3.8226    1.0000 </r>
       <r>    4.3196    1.0000 </r>
       <r>    5.0620    1.0000 </r>
       <r>    5.2179    1.0000 </r>
       <r>    5.4380    1.0000 </r>
       <r>    5.5804    1.0000 </r>
       <r>    5.7629    1.0000 </r>
       <r>    5.9704    1.0000 </r>
       <r>    6.1708    1.0000 </r>
       <r>    6.3726    1.0000 </r>
       <r>    6.6378    1.0000 </r>
       <r>    6.9436    1.0000 </r>
       <r>    7.1167    1.0000 </r>
       <r>    7.6313    1.0000 </r>
       <r>    7.7143    1.0000 </r>
       <r>    8.1756    1.0000 </r>
       <r>    8.3360    1.0000 </r>
       <r>    8.4075    1.0000 </r>
       <r>    8.7359    1.0000 </r>
       <r>    9.2671    1.0000 </r>
       <r>   10.0884    1.0000 </r>
       <r>   10.1663    1.0000 </r>
       <r>   10.4256    1.0000 </r>
       <r>   10.8800    1.0000 </r>
       <r>   10.9465    1.0000 </r>
       <r>   11.0449    1.0000 </r>
       <r>   11.4719    1.0000 </r>
       <r>   11.7188    0.9961 </r>
       <r>   12.3348    0.0000 </r>
       <r>   12.5060    0.0000 </r>
       <r>   13.3070    0.0000 </r>
       <r>   13.3450    0.0000 </r>
       <r>   13.3799    0.0000 </r>
       <r>   14.0780    0.0000 </r>
       <r>   14.3481    0.0000 </r>
       <r>   14.9883    0.0000 </r>
       <r>   15.2077    0.0000 </r>
       <r>   15.7667    0.0000 </r>
       <r>   16.2653    0.0000 </r>
       <r>   16.7750    0.0000 </r>
       <r>   16.8409    0.0000 </r>
       <r>   17.2285    0.0000 </r>
       <r>   17.5163    0.0000 </r>
       <r>   19.0058    0.0000 </r>
      </set>
      <set comment="kpoint 10">
       <r>  -50.7415    1.0000 </r>
       <r>  -50.7389    1.0000 </r>
       <r>  -48.5350    1.0000 </r>
       <r>  -48.5193    1.0000 </r>
       <r>  -48.5151    1.0000 </r>
       <r>  -48.4977    1.0000 </r>
       <r>  -26.3286    1.0000 </r>
       <r>  -26.3170    1.0000 </r>
       <r>  -26.3110    1.0000 </r>
       <r>  -26.2359    1.0000 </r>
       <r>  -25.8572    1.0000 </r>
       <r>  -25.7270    1.0000 </r>
       <r>  -25.7256    1.0000 </r>
       <r>  -25.6637    1.0000 </r>
       <r>  -25.4833    1.0000 </r>
       <r>  -25.4763    1.0000 </r>
       <r>  -25.4676    1.0000 </r>
       <r>  -25.4345    1.0000 </r>
       <r>  -24.2034    1.0000 </r>
       <r>  -24.2013    1.0000 </r>
       <r>  -24.1921    1.0000 </r>
       <r>  -24.1873    1.0000 </r>
       <r>  -24.1320    1.0000 </r>
       <r>  -24.0934    1.0000 </r>
       <r>    0.3213    1.0000 </r>
       <r>    1.5150    1.0000 </r>
       <r>    3.5185    1.0000 </r>
       <r>    3.6902    1.0000 </r>
       <r>    3.7827    1.0000 </r>
       <r>    4.0436    1.0000 </r>
       <r>    5.0446    1.0000 </r>
       <r>    5.2698    1.0000 </r>
       <r>    5.2791    1.0000 </r>
       <r>    5.3320    1.0000 </r>
       <r>    5.6069    1.0000 </r>
       <r>    5.7915    1.0000 </r>
       <r>    5.8105    1.0000 </r>
       <r>    6.1376    1.0000 </r>
       <r>    6.7523    1.0000 </r>
       <r>    6.8009    1.0000 </r>
       <r>    7.3234    1.0000 </r>
       <r>    7.7351    1.0000 </r>
       <r>    8.0467    1.0000 </r>
       <r>    8.2619    1.0000 </r>
       <r>    8.7202    1.0000 </r>
       <r>    8.7485    1.0000 </r>
       <r>    9.0140    1.0000 </r>
       <r>    9.4572    1.0000 </r>
       <r>   10.1687    1.0000 </r>
       <r>   10.3790    1.0000 </r>
       <r>   10.6847    1.0000 </r>
       <r>   10.7863    1.0000 </r>
       <r>   11.0776    1.0000 </r>
       <r>   11.3004    1.0000 </r>
       <r>   11.7138    0.9987 </r>
       <r>   11.8225    0.0000 </r>
       <r>   12.4280    0.0000 </r>
       <r>   12.7300    0.0000 </r>
       <r>   13.2090    0.0000 </r>
       <r>   13.2438    0.0000 </r>
       <r>   13.4186    0.0000 </r>
       <r>   14.0844    0.0000 </r>
       <r>   14.1221    0.0000 </r>
       <r>   14.7928    0.0000 </r>
       <r>   15.0224    0.0000 </r>
       <r>   15.8905    0.0000 </r>
       <r>   16.0750    0.0000 </r>
       <r>   16.3665    0.0000 </r>
       <r>   16.8473    0.0000 </r>
       <r>   17.3864    0.0000 </r>
       <r>   17.4190    0.0000 </r>
       <r>   18.4507    0.0000 </r>
      </set>
      <set comment="kpoint 11">
       <r>  -50.7400    1.0000 </r>
       <r>  -50.7398    1.0000 </r>
       <r>  -48.5307    1.0000 </r>
       <r>  -48.5195    1.0000 </r>
       <r>  -48.5143    1.0000 </r>
       <r>  -48.5039    1.0000 </r>
       <r>  -26.3041    1.0000 </r>
       <r>  -26.2883    1.0000 </r>
       <r>  -26.2768    1.0000 </r>
       <r>  -26.2542    1.0000 </r>
       <r>  -25.7571    1.0000 </r>
       <r>  -25.6841    1.0000 </r>
       <r>  -25.6715    1.0000 </r>
       <r>  -25.6272    1.0000 </r>
       <r>  -25.5460    1.0000 </r>
       <r>  -25.5238    1.0000 </r>
       <r>  -25.4837    1.0000 </r>
       <r>  -25.4618    1.0000 </r>
       <r>  -24.2360    1.0000 </r>
       <r>  -24.2314    1.0000 </r>
       <r>  -24.2296    1.0000 </r>
       <r>  -24.2267    1.0000 </r>
       <r>  -24.1445    1.0000 </r>
       <r>  -24.1391    1.0000 </r>
       <r>    1.5948    1.0000 </r>
       <r>    1.8006    1.0000 </r>
       <r>    2.3123    1.0000 </r>
       <r>    2.5087    1.0000 </r>
       <r>    4.4412    1.0000 </r>
       <r>    5.0414    1.0000 </r>
       <r>    5.1320    1.0000 </r>
       <r>    5.4522    1.0000 </r>
       <r>    5.6446    1.0000 </r>
       <r>    5.8172    1.0000 </r>
       <r>    6.0014    1.0000 </r>
       <r>    6.1513    1.0000 </r>
       <r>    6.2259    1.0000 </r>
       <r>    6.6434    1.0000 </r>
       <r>    6.9191    1.0000 </r>
       <r>    7.0655    1.0000 </r>
       <r>    7.1671    1.0000 </r>
       <r>    7.3274    1.0000 </r>
       <r>    7.6354    1.0000 </r>
       <r>    7.7800    1.0000 </r>
       <r>    7.8316    1.0000 </r>
       <r>    8.3125    1.0000 </r>
       <r>    8.4714    1.0000 </r>
       <r>    8.6093    1.0000 </r>
[...]
       <r>   13.4348    0.0000 </r>
       <r>   13.6026    0.0000 </r>
       <r>   14.4301    0.0000 </r>
       <r>   14.5064    0.0000 </r>
       <r>   15.0262    0.0000 </r>
       <r>   15.1420    0.0000 </r>
       <r>   15.3157    0.0000 </r>
       <r>   15.9518    0.0000 </r>
       <r>   16.0852    0.0000 </r>
       <r>   16.1152    0.0000 </r>
       <r>   16.4982    0.0000 </r>
       <r>   17.1943    0.0000 </r>
       <r>   17.4861    0.0000 </r>
       <r>   18.5695    0.0000 </r>
      </set>
      <set comment="kpoint 116">
       <r>  -50.7404    1.0000 </r>
       <r>  -50.7389    1.0000 </r>
       <r>  -48.5393    1.0000 </r>
       <r>  -48.5187    1.0000 </r>
       <r>  -48.5145    1.0000 </r>
       <r>  -48.4967    1.0000 </r>
       <r>  -26.2912    1.0000 </r>
       <r>  -26.2657    1.0000 </r>
       <r>  -26.2593    1.0000 </r>
       <r>  -26.2333    1.0000 </r>
       <r>  -25.7743    1.0000 </r>
       <r>  -25.6815    1.0000 </r>
       <r>  -25.6803    1.0000 </r>
       <r>  -25.6758    1.0000 </r>
       <r>  -25.4784    1.0000 </r>
       <r>  -25.4719    1.0000 </r>
       <r>  -25.4619    1.0000 </r>
       <r>  -25.4412    1.0000 </r>
       <r>  -24.2650    1.0000 </r>
       <r>  -24.2611    1.0000 </r>
       <r>  -24.2540    1.0000 </r>
       <r>  -24.2509    1.0000 </r>
       <r>  -24.1948    1.0000 </r>
       <r>  -24.1842    1.0000 </r>
       <r>    1.9474    1.0000 </r>
       <r>    2.0101    1.0000 </r>
       <r>    2.5852    1.0000 </r>
       <r>    3.6068    1.0000 </r>
       <r>    4.3402    1.0000 </r>
       <r>    4.3437    1.0000 </r>
       <r>    5.2288    1.0000 </r>
       <r>    5.2585    1.0000 </r>
       <r>    5.4085    1.0000 </r>
       <r>    5.4384    1.0000 </r>
       <r>    5.6745    1.0000 </r>
       <r>    5.6756    1.0000 </r>
       <r>    5.9384    1.0000 </r>
       <r>    6.3323    1.0000 </r>
       <r>    6.5268    1.0000 </r>
       <r>    6.9728    1.0000 </r>
       <r>    7.4673    1.0000 </r>
       <r>    7.7161    1.0000 </r>
       <r>    8.0019    1.0000 </r>
       <r>    8.0178    1.0000 </r>
       <r>    8.6752    1.0000 </r>
       <r>    8.6842    1.0000 </r>
       <r>    8.9694    1.0000 </r>
       <r>    9.0586    1.0000 </r>
       <r>    9.3239    1.0000 </r>
       <r>    9.5425    1.0000 </r>
       <r>    9.6301    1.0000 </r>
       <r>   10.0346    1.0000 </r>
       <r>   10.1479    1.0000 </r>
       <r>   10.2614    1.0000 </r>
       <r>   10.5019    1.0000 </r>
       <r>   10.9789    1.0000 </r>
       <r>   12.2533    0.0000 </r>
       <r>   12.2811    0.0000 </r>
       <r>   13.6451    0.0000 </r>
       <r>   13.7955    0.0000 </r>
       <r>   14.7637    0.0000 </r>
       <r>   14.8748    0.0000 </r>
       <r>   14.8806    0.0000 </r>
       <r>   15.0334    0.0000 </r>
       <r>   15.0452    0.0000 </r>
       <r>   15.8051    0.0000 </r>
       <r>   15.8603    0.0000 </r>
       <r>   16.0093    0.0000 </r>
       <r>   16.5067    0.0000 </r>
       <r>   17.2702    0.0000 </r>
       <r>   17.3571    0.0000 </r>
       <r>   19.2760    0.0000 </r>
      </set>
     </set>
    </set>
   </array>
  </eigenvalues>
  <separator name="orbital magnetization" >
   <v name="MAGDIPOLOUT">      0.00000000      0.00000000      0.00000000</v>
  </separator>
  <dos>
   <i name="efermi">     11.75634990 </i>
   <total>
    <array>
     <dimension dim="1">gridpoints</dimension>
     <dimension dim="2">spin</dimension>
     <field>energy</field>
     <field>total</field>
     <field>integrated</field>
     <set>
      <set comment="spin 1">
       <r>   -54.3090     0.0000     0.0000 </r>
       <r>   -54.0474     0.0000     0.0000 </r>
       <r>   -53.7858     0.0000     0.0000 </r>
       <r>   -53.5242     0.0000     0.0000 </r>
       <r>   -53.2626     0.0000     0.0000 </r>
       <r>   -53.0010     0.0000     0.0000 </r>
       <r>   -52.7394     0.0000     0.0000 </r>
       <r>   -52.4778     0.0000     0.0000 </r>
       <r>   -52.2162     0.0000     0.0000 </r>
       <r>   -51.9545     0.0000     0.0000 </r>
       <r>   -51.6929     0.0000     0.0000 </r>
       <r>   -51.4313     0.0000     0.0000 </r>
       <r>   -51.1697     0.0000     0.0000 </r>
       <r>   -50.9081     0.0000     0.0000 </r>
       <r>   -50.6465    15.2902     4.0000 </r>
       <r>   -50.3849     0.0000     4.0000 </r>
       <r>   -50.1233     0.0000     4.0000 </r>
       <r>   -49.8617     0.0000     4.0000 </r>
       <r>   -49.6001     0.0000     4.0000 </r>
       <r>   -49.3385     0.0000     4.0000 </r>
       <r>   -49.0769     0.0000     4.0000 </r>
       <r>   -48.8153     0.0000     4.0000 </r>
       <r>   -48.5537     0.5854     4.1531 </r>
       <r>   -48.2921     0.0000    12.0000 </r>
       <r>   -48.0305     0.0000    12.0000 </r>
       <r>   -47.7689     0.0000    12.0000 </r>
       <r>   -47.5072     0.0000    12.0000 </r>
       <r>   -47.2456     0.0000    12.0000 </r>
       <r>   -46.9840     0.0000    12.0000 </r>
       <r>   -46.7224     0.0000    12.0000 </r>
       <r>   -46.4608     0.0000    12.0000 </r>
       <r>   -46.1992     0.0000    12.0000 </r>
       <r>   -45.9376     0.0000    12.0000 </r>
       <r>   -45.6760     0.0000    12.0000 </r>
       <r>   -45.4144     0.0000    12.0000 </r>
       <r>   -45.1528     0.0000    12.0000 </r>
       <r>   -44.8912     0.0000    12.0000 </r>
       <r>   -44.6296     0.0000    12.0000 </r>
       <r>   -44.3680     0.0000    12.0000 </r>
       <r>   -44.1064     0.0000    12.0000 </r>
       <r>   -43.8448     0.0000    12.0000 </r>
       <r>   -43.5832     0.0000    12.0000 </r>
       <r>   -43.3216     0.0000    12.0000 </r>
       <r>   -43.0599     0.0000    12.0000 </r>
       <r>   -42.7983     0.0000    12.0000 </r>
       <r>   -42.5367     0.0000    12.0000 </r>
       <r>   -42.2751     0.0000    12.0000 </r>
       <r>   -42.0135     0.0000    12.0000 </r>
       <r>   -41.7519     0.0000    12.0000 </r>
       <r>   -41.4903     0.0000    12.0000 </r>
       <r>   -41.2287     0.0000    12.0000 </r>
       <r>   -40.9671     0.0000    12.0000 </r>
       <r>   -40.7055     0.0000    12.0000 </r>
       <r>   -40.4439     0.0000    12.0000 </r>
       <r>   -40.1823     0.0000    12.0000 </r>
       <r>   -39.9207     0.0000    12.0000 </r>
       <r>   -39.6591     0.0000    12.0000 </r>
       <r>   -39.3975     0.0000    12.0000 </r>
       <r>   -39.1359     0.0000    12.0000 </r>
       <r>   -38.8743     0.0000    12.0000 </r>
       <r>   -38.6126     0.0000    12.0000 </r>
       <r>   -38.3510     0.0000    12.0000 </r>
       <r>   -38.0894     0.0000    12.0000 </r>
       <r>   -37.8278     0.0000    12.0000 </r>
       <r>   -37.5662     0.0000    12.0000 </r>
       <r>   -37.3046     0.0000    12.0000 </r>
       <r>   -37.0430     0.0000    12.0000 </r>
       <r>   -36.7814     0.0000    12.0000 </r>
       <r>   -36.5198     0.0000    12.0000 </r>
       <r>   -36.2582     0.0000    12.0000 </r>
       <r>   -35.9966     0.0000    12.0000 </r>
       <r>   -35.7350     0.0000    12.0000 </r>
       <r>   -35.4734     0.0000    12.0000 </r>
       <r>   -35.2118     0.0000    12.0000 </r>
       <r>   -34.9502     0.0000    12.0000 </r>
       <r>   -34.6886     0.0000    12.0000 </r>
       <r>   -34.4270     0.0000    12.0000 </r>
       <r>   -34.1653     0.0000    12.0000 </r>
       <r>   -33.9037     0.0000    12.0000 </r>
       <r>   -33.6421     0.0000    12.0000 </r>
       <r>   -33.3805     0.0000    12.0000 </r>
       <r>   -33.1189     0.0000    12.0000 </r>
       <r>   -32.8573     0.0000    12.0000 </r>
       <r>   -32.5957     0.0000    12.0000 </r>
       <r>   -32.3341     0.0000    12.0000 </r>
       <r>   -32.0725     0.0000    12.0000 </r>
       <r>   -31.8109     0.0000    12.0000 </r>
       <r>   -31.5493     0.0000    12.0000 </r>
       <r>   -31.2877     0.0000    12.0000 </r>
       <r>   -31.0261     0.0000    12.0000 </r>
       <r>   -30.7645     0.0000    12.0000 </r>
       <r>   -30.5029     0.0000    12.0000 </r>
       <r>   -30.2413     0.0000    12.0000 </r>
       <r>   -29.9797     0.0000    12.0000 </r>
       <r>   -29.7180     0.0000    12.0000 </r>
       <r>   -29.4564     0.0000    12.0000 </r>
       <r>   -29.1948     0.0000    12.0000 </r>
       <r>   -28.9332     0.0000    12.0000 </r>
       <r>   -28.6716     0.0000    12.0000 </r>
       <r>   -28.4100     0.0000    12.0000 </r>
       <r>   -28.1484     0.0000    12.0000 </r>
       <r>   -27.8868     0.0000    12.0000 </r>
       <r>   -27.6252     0.0000    12.0000 </r>
       <r>   -27.3636     0.0000    12.0000 </r>
       <r>   -27.1020     0.0000    12.0000 </r>
       <r>   -26.8404     0.0000    12.0000 </r>
       <r>   -26.5788     0.0000    12.0000 </r>
       <r>   -26.3172     3.4845    12.9116 </r>
       <r>   -26.0556     0.0000    20.0000 </r>
       <r>   -25.7940     2.1167    20.5537 </r>
       <r>   -25.5324    24.0437    30.2288 </r>
       <r>   -25.2707     0.0195    36.0000 </r>
       <r>   -25.0091     0.0000    36.0000 </r>
       <r>   -24.7475     0.0000    36.0000 </r>
       <r>   -24.4859     0.0000    36.0000 </r>
       <r>   -24.2243    16.5266    40.3235 </r>
       <r>   -23.9627     1.9308    48.0000 </r>
       <r>   -23.7011     0.0000    48.0000 </r>
       <r>   -23.4395     0.0000    48.0000 </r>
       <r>   -23.1779     0.0000    48.0000 </r>
       <r>   -22.9163     0.0000    48.0000 </r>
       <r>   -22.6547     0.0000    48.0000 </r>
       <r>   -22.3931     0.0000    48.0000 </r>
       <r>   -22.1315     0.0000    48.0000 </r>
       <r>   -21.8699     0.0000    48.0000 </r>
       <r>   -21.6083     0.0000    48.0000 </r>
       <r>   -21.3467     0.0000    48.0000 </r>
       <r>   -21.0851     0.0000    48.0000 </r>
       <r>   -20.8234     0.0000    48.0000 </r>
       <r>   -20.5618     0.0000    48.0000 </r>
       <r>   -20.3002     0.0000    48.0000 </r>
       <r>   -20.0386     0.0000    48.0000 </r>
       <r>   -19.7770     0.0000    48.0000 </r>
       <r>   -19.5154     0.0000    48.0000 </r>
       <r>   -19.2538     0.0000    48.0000 </r>
       <r>   -18.9922     0.0000    48.0000 </r>
       <r>   -18.7306     0.0000    48.0000 </r>
       <r>   -18.4690     0.0000    48.0000 </r>
       <r>   -18.2074     0.0000    48.0000 </r>
       <r>   -17.9458     0.0000    48.0000 </r>
       <r>   -17.6842     0.0000    48.0000 </r>
       <r>   -17.4226     0.0000    48.0000 </r>
       <r>   -17.1610     0.0000    48.0000 </r>
       <r>   -16.8994     0.0000    48.0000 </r>
       <r>   -16.6378     0.0000    48.0000 </r>
       <r>   -16.3761     0.0000    48.0000 </r>
       <r>   -16.1145     0.0000    48.0000 </r>
       <r>   -15.8529     0.0000    48.0000 </r>
       <r>   -15.5913     0.0000    48.0000 </r>
       <r>   -15.3297     0.0000    48.0000 </r>
       <r>   -15.0681     0.0000    48.0000 </r>
       <r>   -14.8065     0.0000    48.0000 </r>
       <r>   -14.5449     0.0000    48.0000 </r>
       <r>   -14.2833     0.0000    48.0000 </r>
       <r>   -14.0217     0.0000    48.0000 </r>
       <r>   -13.7601     0.0000    48.0000 </r>
       <r>   -13.4985     0.0000    48.0000 </r>
       <r>   -13.2369     0.0000    48.0000 </r>
       <r>   -12.9753     0.0000    48.0000 </r>
       <r>   -12.7137     0.0000    48.0000 </r>
       <r>   -12.4521     0.0000    48.0000 </r>
       <r>   -12.1905     0.0000    48.0000 </r>
       <r>   -11.9288     0.0000    48.0000 </r>
       <r>   -11.6672     0.0000    48.0000 </r>
       <r>   -11.4056     0.0000    48.0000 </r>
       <r>   -11.1440     0.0000    48.0000 </r>
       <r>   -10.8824     0.0000    48.0000 </r>
       <r>   -10.6208     0.0000    48.0000 </r>
       <r>   -10.3592     0.0000    48.0000 </r>
       <r>   -10.0976     0.0000    48.0000 </r>
       <r>    -9.8360     0.0000    48.0000 </r>
       <r>    -9.5744     0.0000    48.0000 </r>
       <r>    -9.3128     0.0000    48.0000 </r>
       <r>    -9.0512     0.0000    48.0000 </r>
       <r>    -8.7896     0.0000    48.0000 </r>
       <r>    -8.5280     0.0000    48.0000 </r>
       <r>    -8.2664     0.0000    48.0000 </r>
       <r>    -8.0048     0.0000    48.0000 </r>
       <r>    -7.7431     0.0000    48.0000 </r>
       <r>    -7.4815     0.0000    48.0000 </r>
       <r>    -7.2199     0.0000    48.0000 </r>
       <r>    -6.9583     0.0000    48.0000 </r>
       <r>    -6.6967     0.0000    48.0000 </r>
       <r>    -6.4351     0.0000    48.0000 </r>
       <r>    -6.1735     0.0000    48.0000 </r>
       <r>    -5.9119     0.0000    48.0000 </r>
       <r>    -5.6503     0.0000    48.0000 </r>
       <r>    -5.3887     0.0000    48.0000 </r>
       <r>    -5.1271     0.0000    48.0000 </r>
       <r>    -4.8655     0.0000    48.0000 </r>
       <r>    -4.6039     0.0000    48.0000 </r>
       <r>    -4.3423     0.0000    48.0000 </r>
       <r>    -4.0807     0.0000    48.0000 </r>
       <r>    -3.8191     0.0000    48.0000 </r>
       <r>    -3.5575     0.0000    48.0000 </r>
       <r>    -3.2958     0.0000    48.0000 </r>
       <r>    -3.0342     0.0000    48.0000 </r>
       <r>    -2.7726     0.0000    48.0000 </r>
       <r>    -2.5110     0.0000    48.0000 </r>
       <r>    -2.2494     0.0000    48.0000 </r>
       <r>    -1.9878     0.0000    48.0000 </r>
       <r>    -1.7262     0.0000    48.0000 </r>
       <r>    -1.4646     0.0000    48.0000 </r>
       <r>    -1.2030     0.0000    48.0000 </r>
       <r>    -0.9414     0.0000    48.0000 </r>
       <r>    -0.6798     0.0000    48.0000 </r>
       <r>    -0.4182     0.0000    48.0000 </r>
       <r>    -0.1566     0.0000    48.0000 </r>
       <r>     0.1050     0.0000    48.0000 </r>
       <r>     0.3666     0.2339    48.0663 </r>
       <r>     0.6282     0.5356    48.2370 </r>
       <r>     0.8898     0.9410    48.5472 </r>
       <r>     1.1515     1.1265    48.9682 </r>
       <r>     1.4131     1.0918    49.4183 </r>
       <r>     1.6747     1.7507    50.0447 </r>
       <r>     1.9363     2.8264    51.1833 </r>
       <r>     2.1979     1.9129    52.2249 </r>
       <r>     2.4595     1.4548    52.9418 </r>
       <r>     2.7211     1.5726    53.7481 </r>
       <r>     2.9827     1.5310    54.3495 </r>
       <r>     3.2443     0.7818    54.8984 </r>
       <r>     3.5059     2.4643    55.6141 </r>
       <r>     3.7675     1.4922    56.1455 </r>
       <r>     4.0291     0.8197    56.5359 </r>
       <r>     4.2907     1.8792    57.3692 </r>
       <r>     4.5523     3.0718    58.5995 </r>
       <r>     4.8139     1.9134    59.4291 </r>
       <r>     5.0755     3.0025    60.6477 </r>
       <r>     5.3371     7.4588    63.2625 </r>
       <r>     5.5988     5.7876    66.1518 </r>
       <r>     5.8604     5.6259    68.3493 </r>
       <r>     6.1220     5.4288    70.9661 </r>
       <r>     6.3836     5.5562    73.2699 </r>
       <r>     6.6452     5.7686    75.6366 </r>
       <r>     6.9068     7.2788    78.5623 </r>
       <r>     7.1684     7.3516    81.7294 </r>
       <r>     7.4300     5.4545    84.0494 </r>
       <r>     7.6916     4.0059    85.8184 </r>
       <r>     7.9532     4.4655    87.8723 </r>
       <r>     8.2148     3.9291    89.6350 </r>
       <r>     8.4764     4.1503    91.5194 </r>
       <r>     8.7380     5.1699    93.5565 </r>
       <r>     8.9996     3.0115    95.2725 </r>
       <r>     9.2612     2.1826    96.2495 </r>
       <r>     9.5228     2.6785    97.4609 </r>
       <r>     9.7844     3.3329    98.7852 </r>
       <r>    10.0461     2.8509    99.9652 </r>
       <r>    10.3077     4.2789   101.7725 </r>
       <r>    10.5693     4.2074   103.5241 </r>
       <r>    10.8309     4.1094   105.0036 </r>
       <r>    11.0925     5.5218   107.2660 </r>
       <r>    11.3541     4.0492   109.0695 </r>
       <r>    11.6157     4.0218   110.7613 </r>
       <r>    11.8773     5.6030   112.9045 </r>
       <r>    12.1389     3.3397   114.4400 </r>
       <r>    12.4005     2.2727   115.4109 </r>
       <r>    12.6621     0.8743   115.8920 </r>
       <r>    12.9237     1.6100   116.4416 </r>
       <r>    13.1853     1.7553   117.3469 </r>
       <r>    13.4469     3.0478   118.7259 </r>
       <r>    13.7085     2.4724   119.6978 </r>
       <r>    13.9701     3.4647   121.3197 </r>
       <r>    14.2317     3.6503   122.7866 </r>
       <r>    14.4934     3.0723   124.2374 </r>
       <r>    14.7550     2.6595   125.6294 </r>
       <r>    15.0166     3.9758   127.2748 </r>
       <r>    15.2782     3.0771   128.5346 </r>
       <r>    15.5398     2.8737   129.9508 </r>
       <r>    15.8014     2.9667   131.2149 </r>
       <r>    16.0630     2.6077   132.4628 </r>
       <r>    16.3246     3.6009   133.9879 </r>
       <r>    16.5862     2.8086   135.3980 </r>
       <r>    16.8478     2.4405   136.5619 </r>
       <r>    17.1094     4.2288   138.1165 </r>
       <r>    17.3710     2.5371   139.2556 </r>
       <r>    17.6326     1.4603   139.9177 </r>
       <r>    17.8942     0.7740   140.3658 </r>
       <r>    18.1558     0.5561   140.6557 </r>
       <r>    18.4174     1.0024   141.0275 </r>
       <r>    18.6790     0.7801   141.3571 </r>
       <r>    18.9407     1.6512   141.9728 </r>
       <r>    19.2023     0.8060   142.3435 </r>
       <r>    19.4639     0.8698   142.8143 </r>
       <r>    19.7255     0.7845   143.2409 </r>
       <r>    19.9871     0.7054   143.5468 </r>
       <r>    20.2487     0.6479   143.8277 </r>
       <r>    20.5103     0.2873   143.9884 </r>
       <r>    20.7719     0.0000   144.0000 </r>
       <r>    21.0335     0.0000   144.0000 </r>
       <r>    21.2951     0.0000   144.0000 </r>
       <r>    21.5567     0.0000   144.0000 </r>
       <r>    21.8183     0.0000   144.0000 </r>
       <r>    22.0799     0.0000   144.0000 </r>
       <r>    22.3415     0.0000   144.0000 </r>
       <r>    22.6031     0.0000   144.0000 </r>
       <r>    22.8647     0.0000   144.0000 </r>
       <r>    23.1263     0.0000   144.0000 </r>
       <r>    23.3880     0.0000   144.0000 </r>
       <r>    23.6496     0.0000   144.0000 </r>
       <r>    23.9112     0.0000   144.0000 </r>
       <r>    24.1728     0.0000   144.0000 </r>
      </set>
     </set>
    </array>
   </total>
  </dos>
 </calculation>
 <structure name="finalpos" >
  <crystal>
   <varray name="basis" >
    <v>       5.15197158       0.00000000      -2.61713714 </v>
    <v>      -1.94006142       4.77273222      -2.61713714 </v>
    <v>       0.00000000       0.00000000       5.77860000 </v>
   </varray>
   <i name="volume">    142.08988427 </i>
   <varray name="rec_basis" >
    <v>       0.19410045       0.07889963       0.00000000 </v>
    <v>       0.00000000       0.20952359       0.00000000 </v>
    <v>       0.08790840       0.13062734       0.17305230 </v>
   </varray>
  </crystal>
  <varray name="positions" >
   <v>       0.50000000       0.50000000       0.50000000 </v>
   <v>       0.50000000       0.00000000       0.00000000 </v>
   <v>       0.00000000       0.00000000       0.50000000 </v>
   <v>       0.00000000       0.50000000       0.00000000 </v>
   <v>       0.21390000       0.71390000       0.92781000 </v>
   <v>       0.25000000       0.25000000       0.00000000 </v>
   <v>       0.78610000       0.28610000       0.07219000 </v>
   <v>       0.75000000       0.75000000       0.00000000 </v>
   <v>       0.71390000       0.78610000       0.50000000 </v>
   <v>       0.28610000       0.21390000       0.50000000 </v>
   <v>       0.18807000       0.31193000       0.50000000 </v>
   <v>       0.81193000       0.68807000       0.50000000 </v>
   <v>       0.31193000       0.81193000       0.12385000 </v>
   <v>       0.68807000       0.18807000       0.87615000 </v>
  </varray>
 </structure>
</modeling>
