<?xml version="1.0" encoding="ISO-8859-1"?>
<modeling>
 <generator>
  <i name="program" type="string">vasp </i>
  <i name="version" type="string">6.2.0  </i>
  <i name="subversion" type="string">18Jan21 (build Jan 05 2022 15:41:44) complex                          parallel </i>
  <i name="platform" type="string">LinuxIFC </i>
  <i name="date" type="string">2025 05 07 </i>
  <i name="time" type="string">16:43:30 </i>
 </generator>
 <incar>
  <i type="string" name="SYSTEM">routine with relax: pwdword</i>
  <i type="string" name="PREC">Acc</i>
  <i type="int" name="IALGO">    38</i>
  <i type="string" name="ALGO">A</i>
  <i type="logical" name="ADDGRID"> T  </i>
  <i type="int" name="ICHARG">     2</i>
  <i type="int" name="NELM">   100</i>
  <i type="int" name="NELMIN">     6</i>
  <i name="EDIFF">      0.00000000</i>
  <i type="int" name="NSW">     0</i>
  <i type="int" name="ISIF">    -1</i>
  <i name="SYMPREC">      0.00010000</i>
  <i name="ENCUT">    600.00000000</i>
  <i type="logical" name="LREAL"> F  </i>
  <i type="int" name="ISMEAR">     0</i>
  <i name="SIGMA">      0.02000000</i>
  <i type="logical" name="LASPH"> T  </i>
  <i type="string" name="METAGGA">R2SCAN</i>
  <i type="logical" name="LMIXTAU"> F  </i>
 </incar>
 <primitive_cell>
  <structure name="primitive_cell" >
   <crystal>
    <varray name="basis" >
     <v>       5.96001336       0.00000000      -2.36912689 </v>
     <v>      -2.74467384       5.29041821      -2.36912689 </v>
     <v>       0.00000000       0.00000000       6.41362000 </v>
    </varray>
    <i name="volume">    202.22761627 </i>
    <varray name="rec_basis" >
     <v>       0.16778486       0.08704694       0.00000000 </v>
     <v>       0.00000000       0.18902097       0.00000000 </v>
     <v>       0.06197804       0.10197672       0.15591819 </v>
    </varray>
   </crystal>
   <varray name="positions" >
    <v>       0.31324000       0.51339000       0.82663000 </v>
    <v>       0.68676000       0.48661000       0.17337000 </v>
    <v>       0.51339000       0.68676000       0.20015000 </v>
    <v>       0.48661000       0.31324000       0.79985000 </v>
    <v>       0.18676000       0.01339000       0.20015000 </v>
    <v>       0.81324000       0.98661000       0.79985000 </v>
    <v>       0.98661000       0.18676000       0.17337000 </v>
    <v>       0.01339000       0.81324000       0.82663000 </v>
    <v>       0.25000000       0.25000000       0.00000000 </v>
    <v>       1.00000000       0.50000000       0.50000000 </v>
    <v>       0.75000000       0.75000000       0.00000000 </v>
    <v>       0.50000000       0.00000000       0.50000000 </v>
    <v>       0.24803000       0.25197000       0.50000000 </v>
    <v>       0.75197000       0.74803000       0.50000000 </v>
    <v>       0.25197000       0.75197000       0.00393000 </v>
    <v>       0.74803000       0.24803000       0.99607000 </v>
   </varray>
  </structure>
  <varray name="primitive_index" >
   <v type="int" >        1 </v>
   <v type="int" >        2 </v>
   <v type="int" >        3 </v>
   <v type="int" >        4 </v>
   <v type="int" >        5 </v>
   <v type="int" >        6 </v>
   <v type="int" >        7 </v>
   <v type="int" >        8 </v>
   <v type="int" >        9 </v>
   <v type="int" >       10 </v>
   <v type="int" >       11 </v>
   <v type="int" >       12 </v>
   <v type="int" >       13 </v>
   <v type="int" >       14 </v>
   <v type="int" >       15 </v>
   <v type="int" >       16 </v>
  </varray>
 </primitive_cell>
 <kpoints>
  <generation param="Gamma">
   <v type="int" name="divisions">       7        7        7 </v>
   <v name="usershift">      0.00000000       0.00000000       0.00000000 </v>
   <v name="genvec1">      0.14285714       0.00000000       0.00000000 </v>
   <v name="genvec2">      0.00000000       0.14285714       0.00000000 </v>
   <v name="genvec3">     -0.00000000      -0.00000000       0.14285714 </v>
   <v name="shift">      0.00000000       0.00000000       0.00000000 </v>
  </generation>
  <varray name="kpointlist" >
   <v>       0.00000000       0.00000000       0.00000000 </v>
   <v>       0.14285714      -0.00000000       0.00000000 </v>
   <v>       0.28571429      -0.00000000       0.00000000 </v>
   <v>       0.42857143      -0.00000000       0.00000000 </v>
   <v>       0.14285714       0.14285714       0.00000000 </v>
   <v>       0.28571429       0.14285714       0.00000000 </v>
   <v>       0.42857143       0.14285714       0.00000000 </v>
   <v>      -0.42857143       0.14285714       0.00000000 </v>
   <v>      -0.28571429       0.14285714       0.00000000 </v>
   <v>      -0.14285714       0.14285714       0.00000000 </v>
   <v>       0.28571429       0.28571429       0.00000000 </v>
   <v>       0.42857143       0.28571429       0.00000000 </v>
   <v>      -0.42857143       0.28571429       0.00000000 </v>
   <v>      -0.28571429       0.28571429       0.00000000 </v>
   <v>       0.42857143       0.42857143       0.00000000 </v>
   <v>      -0.42857143       0.42857143       0.00000000 </v>
   <v>       0.14285714       0.14285714       0.14285714 </v>
   <v>       0.28571429       0.14285714       0.14285714 </v>
   <v>      -0.14285714       0.14285714       0.14285714 </v>
   <v>       0.28571429       0.28571429       0.14285714 </v>
   <v>       0.42857143       0.28571429       0.14285714 </v>
   <v>      -0.28571429       0.28571429       0.14285714 </v>
   <v>      -0.14285714       0.28571429       0.14285714 </v>
   <v>      -0.42857143       0.42857143       0.14285714 </v>
   <v>      -0.28571429       0.42857143       0.14285714 </v>
   <v>      -0.14285714       0.42857143       0.14285714 </v>
   <v>      -0.42857143      -0.42857143       0.14285714 </v>
   <v>      -0.28571429      -0.42857143       0.14285714 </v>
   <v>      -0.14285714      -0.42857143       0.14285714 </v>
   <v>      -0.28571429      -0.28571429       0.14285714 </v>
   <v>      -0.14285714      -0.28571429       0.14285714 </v>
   <v>      -0.14285714      -0.14285714       0.14285714 </v>
   <v>      -0.28571429       0.28571429       0.28571429 </v>
   <v>      -0.42857143       0.42857143       0.28571429 </v>
   <v>      -0.28571429       0.42857143       0.28571429 </v>
   <v>      -0.42857143      -0.42857143       0.28571429 </v>
   <v>      -0.28571429      -0.42857143       0.28571429 </v>
   <v>      -0.28571429      -0.28571429       0.28571429 </v>
   <v>      -0.42857143       0.42857143       0.42857143 </v>
   <v>      -0.42857143      -0.42857143       0.42857143 </v>
  </varray>
  <varray name="weights" >
   <v>       0.00291545 </v>
   <v>       0.02332362 </v>
   <v>       0.02332362 </v>
   <v>       0.02332362 </v>
   <v>       0.02332362 </v>
   <v>       0.04664723 </v>
   <v>       0.04664723 </v>
   <v>       0.04664723 </v>
   <v>       0.04664723 </v>
   <v>       0.01166181 </v>
   <v>       0.02332362 </v>
   <v>       0.04664723 </v>
   <v>       0.04664723 </v>
   <v>       0.01166181 </v>
   <v>       0.02332362 </v>
   <v>       0.01166181 </v>
   <v>       0.02332362 </v>
   <v>       0.04664723 </v>
   <v>       0.01166181 </v>
   <v>       0.02332362 </v>
   <v>       0.02332362 </v>
   <v>       0.02332362 </v>
   <v>       0.02332362 </v>
   <v>       0.02332362 </v>
   <v>       0.04664723 </v>
   <v>       0.02332362 </v>
   <v>       0.02332362 </v>
   <v>       0.04664723 </v>
   <v>       0.02332362 </v>
   <v>       0.02332362 </v>
   <v>       0.02332362 </v>
   <v>       0.00583090 </v>
   <v>       0.01166181 </v>
   <v>       0.02332362 </v>
   <v>       0.02332362 </v>
   <v>       0.02332362 </v>
   <v>       0.02332362 </v>
   <v>       0.00583090 </v>
   <v>       0.01166181 </v>
   <v>       0.00583090 </v>
  </varray>
 </kpoints>
 <parameters>
  <separator name="general" >
   <i type="string" name="SYSTEM">routine with relax: pwdword</i>
   <i type="logical" name="LCOMPAT"> F  </i>
  </separator>
  <separator name="electronic" >
   <i type="string" name="PREC">acc</i>
   <i name="ENMAX">    600.00000000</i>
   <i name="ENAUG">    535.51400000</i>
   <i name="EDIFF">      0.00000000</i>
   <i type="int" name="IALGO">    58</i>
   <i type="int" name="IWAVPR">    10</i>
   <i type="int" name="NBANDS">    60</i>
   <i type="int" name="NBANDSLOW">    -1</i>
   <i type="int" name="NBANDSHIGH">    -1</i>
   <i name="NELECT">     96.00000000</i>
   <i type="int" name="TURBO">     0</i>
   <i type="int" name="IRESTART">     0</i>
   <i type="int" name="NREBOOT">     0</i>
   <i type="int" name="NMIN">     0</i>
   <i name="EREF">      0.00000000</i>
   <separator name="electronic smearing" >
    <i type="int" name="ISMEAR">     0</i>
    <i name="SIGMA">      0.02000000</i>
    <i name="KSPACING">      0.50000000</i>
    <i type="logical" name="KGAMMA"> T  </i>
    <i type="logical" name="KBLOWUP"> T  </i>
   </separator>
   <separator name="electronic projectors" >
    <i type="logical" name="LREAL"> F  </i>
    <v name="ROPT">      0.00000000      0.00000000      0.00000000</v>
    <i type="int" name="LMAXPAW">  -100</i>
    <i type="int" name="LMAXMIX">     2</i>
    <i type="logical" name="NLSPLINE"> F  </i>
   </separator>
   <separator name="electronic startup" >
    <i type="int" name="ISTART">     0</i>
    <i type="int" name="ICHARG">     2</i>
    <i type="int" name="INIWAV">     1</i>
   </separator>
   <separator name="electronic spin" >
    <i type="int" name="ISPIN">     1</i>
    <i type="logical" name="LNONCOLLINEAR"> F  </i>
    <v name="MAGMOM">      1.00000000      1.00000000      1.00000000      1.00000000      1.00000000      1.00000000      1.00000000      1.00000000      1.00000000      1.00000000      1.00000000      1.00000000      1.00000000      1.00000000      1.00000000      1.00000000</v>
    <i name="NUPDOWN">     -1.00000000</i>
    <i type="logical" name="LSORBIT"> F  </i>
    <v name="SAXIS">      0.00000000      0.00000000      1.00000000</v>
    <i type="logical" name="LSPIRAL"> F  </i>
    <v name="QSPIRAL">      0.00000000      0.00000000      0.00000000</v>
    <i type="logical" name="LZEROZ"> F  </i>
   </separator>
   <separator name="electronic exchange-correlation" >
    <i type="logical" name="LASPH"> T  </i>
    <i type="logical" name="LMETAGGA"> F  </i>
   </separator>
   <separator name="electronic convergence" >
    <i type="int" name="NELM">   100</i>
    <i type="int" name="NELMDL">    -5</i>
    <i type="int" name="NELMIN">     6</i>
    <i name="ENINI">    600.00000000</i>
    <separator name="electronic convergence detail" >
     <i type="logical" name="LDIAG"> T  </i>
     <i type="logical" name="LSUBROT"> F  </i>
     <i name="WEIMIN">      0.00000000</i>
     <i name="EBREAK">      0.00000000</i>
     <i name="DEPER">      0.30000000</i>
     <i type="int" name="NRMM">     4</i>
     <i name="TIME">      0.40000000</i>
    </separator>
   </separator>
   <separator name="electronic mixer" >
    <i name="AMIX">      0.40000000</i>
    <i name="BMIX">      1.00000000</i>
    <i name="AMIN">      0.10000000</i>
    <i name="AMIX_MAG">      1.60000000</i>
    <i name="BMIX_MAG">      1.00000000</i>
    <separator name="electronic mixer details" >
     <i type="int" name="IMIX">     4</i>
     <i type="logical" name="MIXFIRST"> F  </i>
     <i type="int" name="MAXMIX">   -45</i>
     <i name="WC">    100.00000000</i>
     <i type="int" name="INIMIX">     1</i>
     <i type="int" name="MIXPRE">     1</i>
     <i type="int" name="MREMOVE">     5</i>
    </separator>
   </separator>
   <separator name="electronic dipolcorrection" >
    <i type="logical" name="LDIPOL"> F  </i>
    <i type="logical" name="LMONO"> F  </i>
    <i type="int" name="IDIPOL">     0</i>
    <i name="EPSILON">      1.00000000</i>
    <v name="DIPOL">   -100.00000000   -100.00000000   -100.00000000</v>
    <i name="EFIELD">      0.00000000</i>
   </separator>
  </separator>
  <separator name="grids" >
   <i type="int" name="NGX">    54</i>
   <i type="int" name="NGY">    54</i>
   <i type="int" name="NGZ">    54</i>
   <i type="int" name="NGXF">   108</i>
   <i type="int" name="NGYF">   108</i>
   <i type="int" name="NGZF">   108</i>
   <i type="logical" name="ADDGRID"> T  </i>
  </separator>
  <separator name="ionic" >
   <i type="int" name="NSW">     0</i>
   <i type="int" name="IBRION">    -1</i>
   <i type="int" name="MDALGO">     0</i>
   <i type="int" name="ISIF">    -1</i>
   <i name="PSTRESS">      0.00000000</i>
   <i name="EDIFFG">      0.00000001</i>
   <i type="int" name="NFREE">     0</i>
   <i name="POTIM">      0.50000000</i>
   <i name="SMASS">     -3.00000000</i>
   <i name="SCALEE">      1.00000000</i>
  </separator>
  <separator name="ionic md" >
   <i name="TEBEG">      0.00010000</i>
   <i name="TEEND">      0.00010000</i>
   <i type="int" name="NBLOCK">     1</i>
   <i type="int" name="KBLOCK">     1</i>
   <i type="int" name="NPACO">   256</i>
   <i name="APACO">     16.00000000</i>
  </separator>
  <separator name="symmetry" >
   <i type="int" name="ISYM">     2</i>
   <i name="SYMPREC">      0.00010000</i>
  </separator>
  <separator name="dos" >
   <i type="int" name="LORBIT">     0</i>
   <v name="RWIGS">     -1.00000000     -1.00000000     -1.00000000</v>
   <i type="int" name="NEDOS">   301</i>
   <i name="EMIN">     10.00000000</i>
   <i name="EMAX">    -10.00000000</i>
   <i name="EFERMI">      0.00000000</i>
  </separator>
  <separator name="writing" >
   <i type="int" name="NWRITE">     2</i>
   <i type="logical" name="LWAVE"> T  </i>
   <i type="logical" name="LDOWNSAMPLE"> F  </i>
   <i type="logical" name="LCHARG"> T  </i>
   <i type="logical" name="LPARD"> F  </i>
   <i type="logical" name="LVTOT"> F  </i>
   <i type="logical" name="LVHAR"> F  </i>
   <i type="logical" name="LELF"> F  </i>
   <i type="logical" name="LOPTICS"> F  </i>
   <v name="STM">      0.00000000      0.00000000      0.00000000      0.00000000      0.00000000      0.00000000      0.00000000</v>
  </separator>
  <separator name="performance" >
   <i type="int" name="NPAR">     6</i>
   <i type="int" name="NSIM">     4</i>
   <i type="int" name="NBLK">    -1</i>
   <i type="logical" name="LPLANE"> T  </i>
   <i type="logical" name="LSCALAPACK"> T  </i>
   <i type="logical" name="LSCAAWARE"> F  </i>
   <i type="logical" name="LSCALU"> F  </i>
   <i type="logical" name="LASYNC"> F  </i>
   <i type="logical" name="LORBITALREAL"> F  </i>
  </separator>
  <separator name="miscellaneous" >
   <i type="int" name="IDIOT">     3</i>
   <i type="int" name="PHON_NSTRUCT">    -1</i>
   <i type="logical" name="LMUSIC"> F  </i>
   <v name="POMASS">     10.81100000     95.94000000     28.08500000</v>
   <v name="DARWINR">      0.00000000      0.00000000      0.00000000</v>
   <v name="DARWINV">      1.00000000      1.00000000      1.00000000</v>
   <i type="logical" name="LCORR"> T  </i>
  </separator>
  <i type="logical" name="GGA_COMPAT"> T  </i>
  <i type="logical" name="LBERRY"> F  </i>
  <i type="int" name="ICORELEVEL">     0</i>
  <i type="logical" name="LDAU"> F  </i>
  <i type="int" name="I_CONSTRAINED_M">     0</i>
  <separator name="electronic exchange-correlation" >
   <i type="string" name="GGA">--</i>
   <i type="int" name="VOSKOWN">     0</i>
   <i type="logical" name="LHFCALC"> F  </i>
   <i type="string" name="PRECFOCK"></i>
   <i type="logical" name="LSYMGRAD"> F  </i>
   <i type="logical" name="LHFONE"> F  </i>
   <i type="logical" name="LRHFCALC"> F  </i>
   <i type="logical" name="LTHOMAS"> F  </i>
   <i type="logical" name="LMODELHF"> F  </i>
   <i type="logical" name="LFOCKACE"> F  </i>
   <i name="ENCUT4O">     -1.00000000</i>
   <i type="int" name="EXXOEP">     0</i>
   <i type="int" name="FOURORBIT">     0</i>
   <i name="AEXX">      0.00000000</i>
   <i name="HFALPHA">      0.00000000</i>
   <i name="MCALPHA">      0.00000000</i>
   <i name="ALDAX">      1.00000000</i>
   <i name="AGGAX">      1.00000000</i>
   <i name="ALDAC">      1.00000000</i>
   <i name="AGGAC">      1.00000000</i>
   <i type="int" name="NKREDX">     1</i>
   <i type="int" name="NKREDY">     1</i>
   <i type="int" name="NKREDZ">     1</i>
   <i type="logical" name="SHIFTRED"> F  </i>
   <i type="logical" name="ODDONLY"> F  </i>
   <i type="logical" name="EVENONLY"> F  </i>
   <i type="int" name="LMAXFOCK">     0</i>
   <i type="int" name="NMAXFOCKAE">     0</i>
   <i type="logical" name="LFOCKAEDFT"> F  </i>
   <i name="HFSCREEN">      0.00000000</i>
   <i name="HFSCREENC">      0.00000000</i>
   <i type="int" name="NBANDSGWLOW">     0</i>
  </separator>
  <separator name="vdW DFT" >
   <i type="logical" name="LUSE_VDW"> F  </i>
   <i name="Zab_VDW">     -0.84910000</i>
   <i name="PARAM1">      0.12340000</i>
   <i name="PARAM2">      1.00000000</i>
   <i name="PARAM3">      0.00000000</i>
  </separator>
  <separator name="model GW" >
   <i type="int" name="MODEL_GW">     0</i>
   <i name="MODEL_EPS0">      7.58353561</i>
   <i name="MODEL_ALPHA">      1.00000000</i>
  </separator>
  <separator name="linear response parameters" >
   <i type="logical" name="LEPSILON"> F  </i>
   <i type="logical" name="LRPA"> F  </i>
   <i type="logical" name="LNABLA"> F  </i>
   <i type="logical" name="LVEL"> F  </i>
   <i type="int" name="KINTER">     0</i>
   <i name="CSHIFT">      0.10000000</i>
   <i name="OMEGAMAX">     -1.00000000</i>
   <i name="DEG_THRESHOLD">      0.00200000</i>
   <i name="RTIME">     -0.10000000</i>
   <i name="WPLASMAI">      0.00000000</i>
   <v name="DFIELD">      0.00000000      0.00000000      0.00000000</v>
   <v name="WPLASMA">      0.00000000      0.00000000      0.00000000      0.00000000      0.00000000      0.00000000      0.00000000      0.00000000      0.00000000</v>
  </separator>
  <separator name="orbital magnetization" >
   <i type="logical" name="NUCIND"> F  </i>
   <v name="MAGPOS">      0.00000000      0.00000000      0.00000000</v>
   <i type="logical" name="LNICSALL"> T  </i>
   <i type="logical" name="ORBITALMAG"> F  </i>
   <i type="logical" name="LMAGBLOCH"> F  </i>
   <i type="logical" name="LCHIMAG"> F  </i>
   <i type="logical" name="LGAUGE"> T  </i>
   <i type="int" name="MAGATOM">     0</i>
   <v name="MAGDIPOL">      0.00000000      0.00000000      0.00000000</v>
   <v name="AVECCONST">      0.00000000      0.00000000      0.00000000</v>
  </separator>
  <separator name="response functions" >
   <i type="logical" name="LFINITE_TEMPERATURE"> F  </i>
   <i type="logical" name="LADDER"> F  </i>
   <i type="logical" name="LRPAFORCE"> F  </i>
   <i type="logical" name="LFXC"> F  </i>
   <i type="logical" name="LHARTREE"> T  </i>
   <i type="int" name="IBSE">     0</i>
   <v type="int" name="KPOINT">    -1     0     0     0</v>
   <i type="logical" name="LTCTC"> F  </i>
   <i type="logical" name="LTCTE"> F  </i>
   <i type="logical" name="LTETE"> F  </i>
   <i type="logical" name="LTRIPLET"> F  </i>
   <i type="logical" name="LFXCEPS"> F  </i>
   <i type="logical" name="LFXHEG"> F  </i>
   <i type="int" name="NATURALO">     2</i>
   <i type="logical" name="LHOLEGF"> F  </i>
   <i type="logical" name="L2ORDER"> F  </i>
   <i type="logical" name="LDMP1"> F  </i>
   <i type="logical" name="LMP2LT"> F  </i>
   <i type="logical" name="LSMP2LT"> F  </i>
   <i type="logical" name="LGWLF"> F  </i>
   <i name="ENCUTGW">     -2.00000000</i>
   <i name="ENCUTGWSOFT">     -2.00000000</i>
   <i name="ENCUTLF">     -1.00000000</i>
   <i type="logical" name="LESF_SPLINES"> F  </i>
   <i type="int" name="LMAXMP2">    -1</i>
   <i name="SCISSOR">      0.00000000</i>
   <i type="int" name="NOMEGA">     0</i>
   <i type="int" name="NOMEGAR">     0</i>
   <i type="int" name="NBANDSGW">    -1</i>
   <i type="int" name="NBANDSO">    -1</i>
   <i type="int" name="NBANDSV">    -1</i>
   <i type="int" name="NELM">   100</i>
   <i type="int" name="NELMHF">     1</i>
   <i type="int" name="DIM">     3</i>
   <i type="int" name="IESPILON">     4</i>
   <i type="int" name="ANTIRES">     0</i>
   <i name="OMEGAMAX">    -30.00000000</i>
   <i name="OMEGAMIN">    -30.00000000</i>
   <i name="OMEGATL">   -200.00000000</i>
   <i type="int" name="OMEGAGRID">     0</i>
   <i name="CSHIFT">     -0.10000000</i>
   <i type="logical" name="LSELFENERGY"> F  </i>
   <i type="logical" name="LSPECTRAL"> F  </i>
   <i type="logical" name="LSPECTRALGW"> F  </i>
   <i type="logical" name="LSINGLES"> F  </i>
   <i type="logical" name="LFERMIGW"> F  </i>
   <i type="logical" name="ODDONLYGW"> F  </i>
   <i type="logical" name="EVENONLYGW"> F  </i>
   <i type="int" name="NKREDLFX">     1</i>
   <i type="int" name="NKREDLFY">     1</i>
   <i type="int" name="NKREDLFZ">     1</i>
   <i type="int" name="MAXMEM">  2800</i>
   <i type="int" name="TELESCOPE">     0</i>
   <i type="int" name="NTAUPAR">    -1</i>
   <i type="int" name="NOMEGAPAR">    -1</i>
   <i name="DAMP_NEWTON">      0.80000001</i>
   <i name="LAMBDA">      1.00000000</i>
  </separator>
  <separator name="External order field" >
   <i name="OFIELD_KAPPA">      0.00000000</i>
   <v name="OFIELD_K">      0.00000000      0.00000000      0.00000000</v>
   <i name="OFIELD_Q6_NEAR">      0.00000000</i>
   <i name="OFIELD_Q6_FAR">      0.00000000</i>
   <i name="OFIELD_A">      0.00000000</i>
  </separator>
 </parameters>
 <atominfo>
  <atoms>      16 </atoms>
  <types>       3 </types>
  <array name="atoms" >
   <dimension dim="1">ion</dimension>
   <field type="string">element</field>
   <field type="int">atomtype</field>
   <set>
    <rc><c>B </c><c>   1</c></rc>
    <rc><c>B </c><c>   1</c></rc>
    <rc><c>B </c><c>   1</c></rc>
    <rc><c>B </c><c>   1</c></rc>
    <rc><c>B </c><c>   1</c></rc>
    <rc><c>B </c><c>   1</c></rc>
    <rc><c>B </c><c>   1</c></rc>
    <rc><c>B </c><c>   1</c></rc>
    <rc><c>Mo</c><c>   2</c></rc>
    <rc><c>Mo</c><c>   2</c></rc>
    <rc><c>Mo</c><c>   2</c></rc>
    <rc><c>Mo</c><c>   2</c></rc>
    <rc><c>Si</c><c>   3</c></rc>
    <rc><c>Si</c><c>   3</c></rc>
    <rc><c>Si</c><c>   3</c></rc>
    <rc><c>Si</c><c>   3</c></rc>
   </set>
  </array>
  <array name="atomtypes" >
   <dimension dim="1">type</dimension>
   <field type="int">atomspertype</field>
   <field type="string">element</field>
   <field>mass</field>
   <field>valence</field>
   <field type="string">pseudopotential</field>
   <set>
    <rc><c>   8</c><c>B </c><c>     10.81100000</c><c>      3.00000000</c><c>  PAW_PBE B 06Sep2000                   </c></rc>
    <rc><c>   4</c><c>Mo</c><c>     95.94000000</c><c>     14.00000000</c><c>  PAW_PBE Mo_sv 02Feb2006               </c></rc>
    <rc><c>   4</c><c>Si</c><c>     28.08500000</c><c>      4.00000000</c><c>  PAW_PBE Si 05Jan2001                  </c></rc>
   </set>
  </array>
 </atominfo>
 <structure name="initialpos" >
  <crystal>
   <varray name="basis" >
    <v>       5.96001336       0.00000000      -2.36912689 </v>
    <v>      -2.74467384       5.29041821      -2.36912689 </v>
    <v>       0.00000000       0.00000000       6.41362000 </v>
   </varray>
   <i name="volume">    202.22761627 </i>
   <varray name="rec_basis" >
    <v>       0.16778486       0.08704694       0.00000000 </v>
    <v>       0.00000000       0.18902097       0.00000000 </v>
    <v>       0.06197804       0.10197672       0.15591819 </v>
   </varray>
  </crystal>
  <varray name="positions" >
   <v>       0.31324000       0.51339000       0.82663000 </v>
   <v>       0.68676000       0.48661000       0.17337000 </v>
   <v>       0.51339000       0.68676000       0.20015000 </v>
   <v>       0.48661000       0.31324000       0.79985000 </v>
   <v>       0.18676000       0.01339000       0.20015000 </v>
   <v>       0.81324000       0.98661000       0.79985000 </v>
   <v>       0.98661000       0.18676000       0.17337000 </v>
   <v>       0.01339000       0.81324000       0.82663000 </v>
   <v>       0.25000000       0.25000000       0.00000000 </v>
   <v>       0.00000000       0.50000000       0.50000000 </v>
   <v>       0.75000000       0.75000000       0.00000000 </v>
   <v>       0.50000000       0.00000000       0.50000000 </v>
   <v>       0.24803000       0.25197000       0.50000000 </v>
   <v>       0.75197000       0.74803000       0.50000000 </v>
   <v>       0.25197000       0.75197000       0.00393000 </v>
   <v>       0.74803000       0.24803000       0.99607000 </v>
  </varray>
 </structure>
 <calculation>
  <scstep>
   <time name="total">   10.95   11.07</time>
   <energy>
    <i name="alphaZ">    353.01986457 </i>
    <i name="ewald">  -6303.22294986 </i>
    <i name="hartreedc">  -2167.98166724 </i>
    <i name="XCdc">    358.54745773 </i>
    <i name="pawpsdc">   6611.66570361 </i>
    <i name="pawaedc">  -6558.23787492 </i>
    <i name="eentropy">     -0.00117320 </i>
    <i name="bandstr">     27.64069231 </i>
    <i name="atom">   8430.75312730 </i>
    <i name="e_fr_energy">    752.18318029 </i>
    <i name="e_wo_entrp">    752.18435349 </i>
    <i name="e_0_energy">    752.18376689 </i>
   </energy>
  </scstep>
  <scstep>
   <time name="total">   11.18   11.30</time>
   <energy>
    <i name="e_fr_energy">   -183.52714020 </i>
    <i name="e_wo_entrp">   -183.52608899 </i>
    <i name="e_0_energy">   -183.52661460 </i>
   </energy>
  </scstep>
  <scstep>
   <time name="total">   11.86   11.99</time>
   <energy>
    <i name="e_fr_energy">   -229.95740543 </i>
    <i name="e_wo_entrp">   -229.95660931 </i>
    <i name="e_0_energy">   -229.95700737 </i>
   </energy>
  </scstep>
  <scstep>
   <time name="total">   12.08   12.21</time>
   <energy>
    <i name="e_fr_energy">   -231.14946181 </i>
    <i name="e_wo_entrp">   -231.14788990 </i>
    <i name="e_0_energy">   -231.14867586 </i>
   </energy>
  </scstep>
  <scstep>
   <time name="total">   12.62   12.75</time>
   <energy>
    <i name="e_fr_energy">   -231.17561787 </i>
    <i name="e_wo_entrp">   -231.17407726 </i>
    <i name="e_0_energy">   -231.17484756 </i>
   </energy>
  </scstep>
  <scstep>
   <time name="total">   14.30   14.46</time>
   <energy>
    <i name="e_fr_energy">   -103.55941596 </i>
    <i name="e_wo_entrp">   -103.55662797 </i>
    <i name="e_0_energy">   -103.55802196 </i>
   </energy>
  </scstep>
  <scstep>
   <time name="total">   15.46   15.61</time>
   <energy>
    <i name="e_fr_energy">   -167.15596797 </i>
    <i name="e_wo_entrp">   -167.15353438 </i>
    <i name="e_0_energy">   -167.15475117 </i>
   </energy>
  </scstep>
  <scstep>
   <time name="total">   15.12   15.30</time>
   <energy>
    <i name="e_fr_energy">   -177.18353396 </i>
    <i name="e_wo_entrp">   -177.18169994 </i>
    <i name="e_0_energy">   -177.18261695 </i>
   </energy>
  </scstep>
  <scstep>
   <time name="total">   13.86   14.00</time>
   <energy>
    <i name="e_fr_energy">   -179.93738899 </i>
    <i name="e_wo_entrp">   -179.93548970 </i>
    <i name="e_0_energy">   -179.93643934 </i>
   </energy>
  </scstep>
  <scstep>
   <time name="total">   13.87   14.07</time>
   <energy>
    <i name="e_fr_energy">   -181.03963731 </i>
    <i name="e_wo_entrp">   -181.03761703 </i>
    <i name="e_0_energy">   -181.03862717 </i>
   </energy>
  </scstep>
  <scstep>
   <time name="total">   14.20   14.35</time>
   <energy>
    <i name="e_fr_energy">   -181.34985073 </i>
    <i name="e_wo_entrp">   -181.34790193 </i>
    <i name="e_0_energy">   -181.34887633 </i>
   </energy>
  </scstep>
  <scstep>
   <time name="total">   14.75   14.89</time>
   <energy>
    <i name="e_fr_energy">   -181.47376824 </i>
    <i name="e_wo_entrp">   -181.47196239 </i>
    <i name="e_0_energy">   -181.47286532 </i>
   </energy>
  </scstep>
  <scstep>
   <time name="total">   15.28   15.43</time>
   <energy>
    <i name="e_fr_energy">   -181.52871294 </i>
    <i name="e_wo_entrp">   -181.52692065 </i>
    <i name="e_0_energy">   -181.52781680 </i>
   </energy>
  </scstep>
  <scstep>
   <time name="total">   16.00   16.15</time>
   <energy>
    <i name="e_fr_energy">   -181.55655990 </i>
    <i name="e_wo_entrp">   -181.55461154 </i>
    <i name="e_0_energy">   -181.55558572 </i>
   </energy>
  </scstep>
  <scstep>
   <time name="total">   15.28   15.43</time>
   <energy>
    <i name="e_fr_energy">   -181.57230465 </i>
    <i name="e_wo_entrp">   -181.57003214 </i>
    <i name="e_0_energy">   -181.57116840 </i>
   </energy>
  </scstep>
  <scstep>
   <time name="total">   15.56   15.71</time>
   <energy>
    <i name="e_fr_energy">   -181.58083263 </i>
    <i name="e_wo_entrp">   -181.57837608 </i>
    <i name="e_0_energy">   -181.57960436 </i>
   </energy>
  </scstep>
  <scstep>
   <time name="total">   16.02   16.18</time>
   <energy>
    <i name="e_fr_energy">   -181.58398714 </i>
    <i name="e_wo_entrp">   -181.58141592 </i>
    <i name="e_0_energy">   -181.58270153 </i>
   </energy>
  </scstep>
  <scstep>
   <time name="total">   15.41   15.56</time>
   <energy>
    <i name="e_fr_energy">   -181.58547935 </i>
    <i name="e_wo_entrp">   -181.58291786 </i>
    <i name="e_0_energy">   -181.58419860 </i>
   </energy>
  </scstep>
  <scstep>
   <time name="total">   15.08   15.24</time>
   <energy>
    <i name="e_fr_energy">   -181.58614242 </i>
    <i name="e_wo_entrp">   -181.58358713 </i>
    <i name="e_0_energy">   -181.58486477 </i>
   </energy>
  </scstep>
  <scstep>
   <time name="total">   14.78   14.92</time>
   <energy>
    <i name="e_fr_energy">   -181.58643722 </i>
    <i name="e_wo_entrp">   -181.58392134 </i>
    <i name="e_0_energy">   -181.58517928 </i>
   </energy>
  </scstep>
  <scstep>
   <time name="total">   14.88   15.03</time>
   <energy>
    <i name="e_fr_energy">   -181.58659482 </i>
    <i name="e_wo_entrp">   -181.58410360 </i>
    <i name="e_0_energy">   -181.58534921 </i>
   </energy>
  </scstep>
  <scstep>
   <time name="total">   14.46   14.60</time>
   <energy>
    <i name="e_fr_energy">   -181.58668282 </i>
    <i name="e_wo_entrp">   -181.58421640 </i>
    <i name="e_0_energy">   -181.58544961 </i>
   </energy>
  </scstep>
  <scstep>
   <time name="total">   14.68   14.83</time>
   <energy>
    <i name="e_fr_energy">   -181.58671979 </i>
    <i name="e_wo_entrp">   -181.58426396 </i>
    <i name="e_0_energy">   -181.58549188 </i>
   </energy>
  </scstep>
  <scstep>
   <time name="total">   14.78   14.93</time>
   <energy>
    <i name="e_fr_energy">   -181.58674015 </i>
    <i name="e_wo_entrp">   -181.58429489 </i>
    <i name="e_0_energy">   -181.58551752 </i>
   </energy>
  </scstep>
  <scstep>
   <time name="total">   15.44   15.59</time>
   <energy>
    <i name="e_fr_energy">   -181.58674928 </i>
    <i name="e_wo_entrp">   -181.58430672 </i>
    <i name="e_0_energy">   -181.58552800 </i>
   </energy>
  </scstep>
  <scstep>
   <time name="total">   15.48   15.64</time>
   <energy>
    <i name="e_fr_energy">   -181.58675357 </i>
    <i name="e_wo_entrp">   -181.58431457 </i>
    <i name="e_0_energy">   -181.58553407 </i>
   </energy>
  </scstep>
  <scstep>
   <time name="total">   15.56   15.71</time>
   <energy>
    <i name="e_fr_energy">   -181.58675576 </i>
    <i name="e_wo_entrp">   -181.58431660 </i>
    <i name="e_0_energy">   -181.58553618 </i>
   </energy>
  </scstep>
  <scstep>
   <time name="total">   15.92   16.08</time>
   <energy>
    <i name="e_fr_energy">   -181.58675693 </i>
    <i name="e_wo_entrp">   -181.58431806 </i>
    <i name="e_0_energy">   -181.58553749 </i>
   </energy>
  </scstep>
  <scstep>
   <time name="total">   14.71   14.86</time>
   <energy>
    <i name="e_fr_energy">   -181.58675736 </i>
    <i name="e_wo_entrp">   -181.58431738 </i>
    <i name="e_0_energy">   -181.58553737 </i>
   </energy>
  </scstep>
  <scstep>
   <time name="total">   14.71   14.86</time>
   <energy>
    <i name="e_fr_energy">   -181.58675770 </i>
    <i name="e_wo_entrp">   -181.58431749 </i>
    <i name="e_0_energy">   -181.58553759 </i>
   </energy>
  </scstep>
  <scstep>
   <time name="total">   15.20   15.36</time>
   <energy>
    <i name="e_fr_energy">   -181.58675778 </i>
    <i name="e_wo_entrp">   -181.58431679 </i>
    <i name="e_0_energy">   -181.58553728 </i>
   </energy>
  </scstep>
  <scstep>
   <time name="total">   15.31   15.46</time>
   <energy>
    <i name="e_fr_energy">   -181.58675785 </i>
    <i name="e_wo_entrp">   -181.58431663 </i>
    <i name="e_0_energy">   -181.58553724 </i>
   </energy>
  </scstep>
  <scstep>
   <time name="total">   15.57   15.72</time>
   <energy>
    <i name="e_fr_energy">   -181.58675787 </i>
    <i name="e_wo_entrp">   -181.58431650 </i>
    <i name="e_0_energy">   -181.58553718 </i>
   </energy>
  </scstep>
  <scstep>
   <time name="total">   14.45   14.59</time>
   <energy>
    <i name="e_fr_energy">   -181.58675788 </i>
    <i name="e_wo_entrp">   -181.58431639 </i>
    <i name="e_0_energy">   -181.58553714 </i>
   </energy>
  </scstep>
  <scstep>
   <time name="total">   14.06   14.21</time>
   <energy>
    <i name="e_fr_energy">   -181.58675789 </i>
    <i name="e_wo_entrp">   -181.58431633 </i>
    <i name="e_0_energy">   -181.58553711 </i>
   </energy>
  </scstep>
  <scstep>
   <time name="total">   15.38   15.53</time>
   <energy>
    <i name="e_fr_energy">   -181.58675789 </i>
    <i name="e_wo_entrp">   -181.58431624 </i>
    <i name="e_0_energy">   -181.58553707 </i>
   </energy>
  </scstep>
  <scstep>
   <time name="total">   15.29   15.45</time>
   <energy>
    <i name="e_fr_energy">   -181.58675790 </i>
    <i name="e_wo_entrp">   -181.58431625 </i>
    <i name="e_0_energy">   -181.58553707 </i>
   </energy>
  </scstep>
  <scstep>
   <time name="total">   16.60   16.78</time>
   <energy>
    <i name="alphaZ">    353.01986457 </i>
    <i name="ewald">  -6303.22294986 </i>
    <i name="hartreedc">  -2122.80859037 </i>
    <i name="XCdc">    369.80729390 </i>
    <i name="pawpsdc">  14762.67382596 </i>
    <i name="pawaedc"> -14719.71207398 </i>
    <i name="eentropy">     -0.00244165 </i>
    <i name="bandstr">   -952.09481376 </i>
    <i name="atom">   8430.75312730 </i>
    <i name="e_fr_energy">   -181.58675790 </i>
    <i name="e_wo_entrp">   -181.58431625 </i>
    <i name="e_0_energy">   -181.58553707 </i>
   </energy>
  </scstep>
  <structure>
   <crystal>
    <varray name="basis" >
     <v>       5.96001336       0.00000000      -2.36912689 </v>
     <v>      -2.74467384       5.29041821      -2.36912689 </v>
     <v>       0.00000000       0.00000000       6.41362000 </v>
    </varray>
    <i name="volume">    202.22761627 </i>
    <varray name="rec_basis" >
     <v>       0.16778486       0.08704694       0.00000000 </v>
     <v>       0.00000000       0.18902097       0.00000000 </v>
     <v>       0.06197804       0.10197672       0.15591819 </v>
    </varray>
   </crystal>
   <varray name="positions" >
    <v>       0.31324000       0.51339000       0.82663000 </v>
    <v>       0.68676000       0.48661000       0.17337000 </v>
    <v>       0.51339000       0.68676000       0.20015000 </v>
    <v>       0.48661000       0.31324000       0.79985000 </v>
    <v>       0.18676000       0.01339000       0.20015000 </v>
    <v>       0.81324000       0.98661000       0.79985000 </v>
    <v>       0.98661000       0.18676000       0.17337000 </v>
    <v>       0.01339000       0.81324000       0.82663000 </v>
    <v>       0.25000000       0.25000000       0.00000000 </v>
    <v>       0.00000000       0.50000000       0.50000000 </v>
    <v>       0.75000000       0.75000000       0.00000000 </v>
    <v>       0.50000000       0.00000000       0.50000000 </v>
    <v>       0.24803000       0.25197000       0.50000000 </v>
    <v>       0.75197000       0.74803000       0.50000000 </v>
    <v>       0.25197000       0.75197000       0.00393000 </v>
    <v>       0.74803000       0.24803000       0.99607000 </v>
   </varray>
  </structure>
  <varray name="forces" >
   <v>       0.00000000       0.00000000       0.00000000 </v>
   <v>       0.00000000       0.00000000       0.00000000 </v>
   <v>       0.00000000       0.00000000       0.00000000 </v>
   <v>       0.00000000       0.00000000       0.00000000 </v>
   <v>       0.00000000       0.00000000       0.00000000 </v>
   <v>       0.00000000       0.00000000       0.00000000 </v>
   <v>       0.00000000       0.00000000       0.00000000 </v>
   <v>       0.00000000       0.00000000       0.00000000 </v>
   <v>       0.00000000       0.00000000       0.00000000 </v>
   <v>       0.00000000       0.00000000       0.00000000 </v>
   <v>       0.00000000       0.00000000       0.00000000 </v>
   <v>       0.00000000       0.00000000       0.00000000 </v>
   <v>       0.00000000       0.00000000       0.00000000 </v>
   <v>       0.00000000       0.00000000       0.00000000 </v>
   <v>       0.00000000       0.00000000       0.00000000 </v>
   <v>       0.00000000       0.00000000       0.00000000 </v>
  </varray>
  <varray name="stress" >
   <v>       0.00000000       0.00000000       0.00000000 </v>
   <v>       0.00000000       0.00000000       0.00000000 </v>
   <v>       0.00000000       0.00000000       0.00000000 </v>
  </varray>
  <energy>
   <i name="e_fr_energy">   -181.58675790 </i>
   <i name="e_wo_entrp">   -181.58431625 </i>
   <i name="e_0_energy">   -181.58553707 </i>
  </energy>
  <time name="totalsc">  558.77  564.50</time>
  <eigenvalues>
   <array>
    <dimension dim="1">band</dimension>
    <dimension dim="2">kpoint</dimension>
    <dimension dim="3">spin</dimension>
    <field>eigene</field>
    <field>occ</field>
    <set>
     <set comment="spin 1">
      <set comment="kpoint 1">
       <r>  -54.8071    1.0000 </r>
       <r>  -54.8054    1.0000 </r>
       <r>  -54.6462    1.0000 </r>
       <r>  -54.6443    1.0000 </r>
       <r>  -28.3547    1.0000 </r>
       <r>  -28.3532    1.0000 </r>
       <r>  -28.2944    1.0000 </r>
       <r>  -28.2932    1.0000 </r>
       <r>  -28.2930    1.0000 </r>
       <r>  -28.2338    1.0000 </r>
       <r>  -28.1653    1.0000 </r>
       <r>  -28.1429    1.0000 </r>
       <r>  -28.0094    1.0000 </r>
       <r>  -28.0093    1.0000 </r>
       <r>  -28.0063    1.0000 </r>
       <r>  -28.0062    1.0000 </r>
       <r>   -7.1374    1.0000 </r>
       <r>   -4.6032    1.0000 </r>
       <r>   -4.6032    1.0000 </r>
       <r>   -4.5471    1.0000 </r>
       <r>   -3.6865    1.0000 </r>
       <r>   -1.8426    1.0000 </r>
       <r>   -1.8425    1.0000 </r>
       <r>   -0.7655    1.0000 </r>
       <r>   -0.6798    1.0000 </r>
       <r>    0.8783    1.0000 </r>
       <r>    1.5306    1.0000 </r>
       <r>    2.7407    1.0000 </r>
       <r>    2.9004    1.0000 </r>
       <r>    2.9004    1.0000 </r>
       <r>    2.9278    1.0000 </r>
       <r>    3.1476    1.0000 </r>
       <r>    3.1795    1.0000 </r>
       <r>    3.1796    1.0000 </r>
       <r>    3.6437    1.0000 </r>
       <r>    4.1219    1.0000 </r>
       <r>    4.1219    1.0000 </r>
       <r>    5.2197    1.0000 </r>
       <r>    5.5719    1.0000 </r>
       <r>    5.5720    1.0000 </r>
       <r>    6.0380    1.0000 </r>
       <r>    6.8748    1.0000 </r>
       <r>    7.1166    1.0000 </r>
       <r>    7.1167    1.0000 </r>
       <r>    7.5554    1.0000 </r>
       <r>    7.7719    1.0000 </r>
       <r>    7.7719    1.0000 </r>
       <r>    7.7942    1.0000 </r>
       <r>    7.8740    1.0000 </r>
       <r>    8.7167    0.0000 </r>
       <r>    8.8312    0.0000 </r>
       <r>    8.9401    0.0000 </r>
       <r>    9.0345    0.0000 </r>
       <r>    9.0346    0.0000 </r>
       <r>    9.3785    0.0000 </r>
       <r>   10.7353    0.0000 </r>
       <r>   11.3473    0.0000 </r>
       <r>   11.8474    0.0000 </r>
       <r>   12.5400    0.0000 </r>
       <r>   12.6070    0.0000 </r>
      </set>
      <set comment="kpoint 2">
       <r>  -54.8071    1.0000 </r>
       <r>  -54.8054    1.0000 </r>
       <r>  -54.6461    1.0000 </r>
       <r>  -54.6444    1.0000 </r>
       <r>  -28.3548    1.0000 </r>
       <r>  -28.3533    1.0000 </r>
       <r>  -28.2960    1.0000 </r>
       <r>  -28.2936    1.0000 </r>
       <r>  -28.2878    1.0000 </r>
       <r>  -28.2367    1.0000 </r>
       <r>  -28.1643    1.0000 </r>
       <r>  -28.1441    1.0000 </r>
       <r>  -28.0094    1.0000 </r>
       <r>  -28.0092    1.0000 </r>
       <r>  -28.0064    1.0000 </r>
       <r>  -28.0063    1.0000 </r>
       <r>   -7.0533    1.0000 </r>
       <r>   -4.9760    1.0000 </r>
       <r>   -4.5716    1.0000 </r>
       <r>   -4.2595    1.0000 </r>
       <r>   -3.7602    1.0000 </r>
       <r>   -2.2016    1.0000 </r>
       <r>   -1.7100    1.0000 </r>
       <r>   -0.6350    1.0000 </r>
       <r>   -0.2788    1.0000 </r>
       <r>    0.7205    1.0000 </r>
       <r>    1.5275    1.0000 </r>
       <r>    2.3514    1.0000 </r>
       <r>    2.7507    1.0000 </r>
       <r>    2.9453    1.0000 </r>
       <r>    3.0915    1.0000 </r>
       <r>    3.0969    1.0000 </r>
       <r>    3.1710    1.0000 </r>
       <r>    3.4208    1.0000 </r>
       <r>    3.5005    1.0000 </r>
       <r>    4.1240    1.0000 </r>
       <r>    4.2302    1.0000 </r>
       <r>    5.2706    1.0000 </r>
       <r>    5.5304    1.0000 </r>
       <r>    5.7364    1.0000 </r>
       <r>    6.2346    1.0000 </r>
       <r>    6.8376    1.0000 </r>
       <r>    7.0149    1.0000 </r>
       <r>    7.3083    1.0000 </r>
       <r>    7.5463    1.0000 </r>
       <r>    7.6819    1.0000 </r>
       <r>    7.7234    1.0000 </r>
       <r>    7.8472    1.0000 </r>
       <r>    7.8823    1.0000 </r>
       <r>    8.1992    0.0191 </r>
       <r>    8.8700    0.0000 </r>
       <r>    8.9321    0.0000 </r>
       <r>    9.0270    0.0000 </r>
       <r>    9.2189    0.0000 </r>
       <r>    9.5740    0.0000 </r>
       <r>   10.9215    0.0000 </r>
       <r>   11.4631    0.0000 </r>
       <r>   11.8102    0.0000 </r>
       <r>   12.0006    0.0000 </r>
       <r>   12.1829    0.0000 </r>
      </set>
      <set comment="kpoint 3">
       <r>  -54.8070    1.0000 </r>
       <r>  -54.8055    1.0000 </r>
       <r>  -54.6458    1.0000 </r>
       <r>  -54.6447    1.0000 </r>
       <r>  -28.3549    1.0000 </r>
       <r>  -28.3534    1.0000 </r>
       <r>  -28.2962    1.0000 </r>
       <r>  -28.2937    1.0000 </r>
       <r>  -28.2791    1.0000 </r>
       <r>  -28.2446    1.0000 </r>
       <r>  -28.1614    1.0000 </r>
       <r>  -28.1474    1.0000 </r>
       <r>  -28.0092    1.0000 </r>
       <r>  -28.0088    1.0000 </r>
       <r>  -28.0068    1.0000 </r>
       <r>  -28.0067    1.0000 </r>
       <r>   -6.8094    1.0000 </r>
       <r>   -5.4538    1.0000 </r>
       <r>   -4.4786    1.0000 </r>
       <r>   -3.9859    1.0000 </r>
       <r>   -3.9326    1.0000 </r>
       <r>   -2.7683    1.0000 </r>
       <r>   -1.3575    1.0000 </r>
       <r>   -0.2804    1.0000 </r>
       <r>    0.2836    1.0000 </r>
       <r>    0.3597    1.0000 </r>
       <r>    1.4547    1.0000 </r>
       <r>    2.1654    1.0000 </r>
       <r>    2.3697    1.0000 </r>
       <r>    2.9395    1.0000 </r>
       <r>    3.0267    1.0000 </r>
       <r>    3.0644    1.0000 </r>
       <r>    3.1057    1.0000 </r>
       <r>    3.1410    1.0000 </r>
       <r>    4.0298    1.0000 </r>
       <r>    4.1313    1.0000 </r>
       <r>    4.4730    1.0000 </r>
       <r>    5.1598    1.0000 </r>
       <r>    5.5357    1.0000 </r>
       <r>    6.0671    1.0000 </r>
       <r>    6.5631    1.0000 </r>
       <r>    6.7084    1.0000 </r>
       <r>    7.0094    1.0000 </r>
       <r>    7.2911    1.0000 </r>
       <r>    7.6152    1.0000 </r>
       <r>    7.6690    1.0000 </r>
       <r>    7.8159    1.0000 </r>
       <r>    7.9199    1.0000 </r>
       <r>    7.9925    1.0000 </r>
       <r>    8.0974    1.0000 </r>
       <r>    8.6855    0.0000 </r>
       <r>    8.8707    0.0000 </r>
       <r>    8.8816    0.0000 </r>
       <r>    9.0819    0.0000 </r>
       <r>   10.1414    0.0000 </r>
       <r>   10.7132    0.0000 </r>
       <r>   11.0192    0.0000 </r>
       <r>   11.1405    0.0000 </r>
       <r>   11.3091    0.0000 </r>
       <r>   11.8300    0.0000 </r>
      </set>
      <set comment="kpoint 4">
       <r>  -54.8069    1.0000 </r>
       <r>  -54.8056    1.0000 </r>
       <r>  -54.6455    1.0000 </r>
       <r>  -54.6451    1.0000 </r>
       <r>  -28.3550    1.0000 </r>
       <r>  -28.3535    1.0000 </r>
       <r>  -28.2956    1.0000 </r>
       <r>  -28.2941    1.0000 </r>
       <r>  -28.2679    1.0000 </r>
       <r>  -28.2558    1.0000 </r>
       <r>  -28.1571    1.0000 </r>
       <r>  -28.1520    1.0000 </r>
       <r>  -28.0085    1.0000 </r>
       <r>  -28.0081    1.0000 </r>
       <r>  -28.0075    1.0000 </r>
       <r>  -28.0074    1.0000 </r>
       <r>   -6.4310    1.0000 </r>
       <r>   -5.9602    1.0000 </r>
       <r>   -4.3309    1.0000 </r>
       <r>   -4.1422    1.0000 </r>
       <r>   -3.6700    1.0000 </r>
       <r>   -3.2712    1.0000 </r>
       <r>   -0.8599    1.0000 </r>
       <r>   -0.2832    1.0000 </r>
       <r>    0.2003    1.0000 </r>
       <r>    0.5944    1.0000 </r>
       <r>    1.4806    1.0000 </r>
       <r>    1.9065    1.0000 </r>
       <r>    2.2417    1.0000 </r>
       <r>    2.5297    1.0000 </r>
       <r>    2.9987    1.0000 </r>
       <r>    3.0318    1.0000 </r>
       <r>    3.3792    1.0000 </r>
       <r>    3.4596    1.0000 </r>
       <r>    3.7930    1.0000 </r>
       <r>    3.9893    1.0000 </r>
       <r>    4.7393    1.0000 </r>
       <r>    4.9058    1.0000 </r>
       <r>    5.9688    1.0000 </r>
       <r>    6.3386    1.0000 </r>
       <r>    6.4853    1.0000 </r>
       <r>    6.5852    1.0000 </r>
       <r>    7.1927    1.0000 </r>
       <r>    7.2327    1.0000 </r>
       <r>    7.6682    1.0000 </r>
       <r>    7.7149    1.0000 </r>
       <r>    7.9273    1.0000 </r>
       <r>    8.0399    1.0000 </r>
       <r>    8.1473    0.9451 </r>
       <r>    8.2705    0.0000 </r>
       <r>    8.5718    0.0000 </r>
       <r>    8.7259    0.0000 </r>
       <r>    8.7799    0.0000 </r>
       <r>    9.4918    0.0000 </r>
       <r>    9.6079    0.0000 </r>
       <r>   10.2698    0.0000 </r>
       <r>   10.5547    0.0000 </r>
       <r>   10.6654    0.0000 </r>
       <r>   11.1801    0.0000 </r>
       <r>   11.5222    0.0000 </r>
      </set>
      <set comment="kpoint 5">
       <r>  -54.8070    1.0000 </r>
       <r>  -54.8055    1.0000 </r>
       <r>  -54.6458    1.0000 </r>
       <r>  -54.6447    1.0000 </r>
       <r>  -28.3547    1.0000 </r>
       <r>  -28.3535    1.0000 </r>
       <r>  -28.2958    1.0000 </r>
       <r>  -28.2933    1.0000 </r>
       <r>  -28.2801    1.0000 </r>
       <r>  -28.2448    1.0000 </r>
       <r>  -28.1613    1.0000 </r>
       <r>  -28.1473    1.0000 </r>
       <r>  -28.0090    1.0000 </r>
       <r>  -28.0087    1.0000 </r>
       <r>  -28.0068    1.0000 </r>
       <r>  -28.0068    1.0000 </r>
       <r>   -6.9084    1.0000 </r>
       <r>   -5.1511    1.0000 </r>
       <r>   -4.7268    1.0000 </r>
       <r>   -4.0758    1.0000 </r>
       <r>   -3.8517    1.0000 </r>
       <r>   -2.1018    1.0000 </r>
       <r>   -1.9636    1.0000 </r>
       <r>   -0.5513    1.0000 </r>
       <r>    0.1238    1.0000 </r>
       <r>    0.5310    1.0000 </r>
       <r>    1.5776    1.0000 </r>
       <r>    2.3984    1.0000 </r>
       <r>    2.6103    1.0000 </r>
       <r>    2.7445    1.0000 </r>
       <r>    2.9292    1.0000 </r>
       <r>    2.9649    1.0000 </r>
       <r>    3.0287    1.0000 </r>
       <r>    3.3683    1.0000 </r>
       <r>    3.9002    1.0000 </r>
       <r>    4.1818    1.0000 </r>
       <r>    4.4353    1.0000 </r>
       <r>    5.4256    1.0000 </r>
       <r>    5.7241    1.0000 </r>
       <r>    5.8292    1.0000 </r>
       <r>    6.4976    1.0000 </r>
       <r>    6.7820    1.0000 </r>
       <r>    7.0242    1.0000 </r>
       <r>    7.2674    1.0000 </r>
       <r>    7.2809    1.0000 </r>
       <r>    7.6222    1.0000 </r>
       <r>    7.7522    1.0000 </r>
       <r>    7.8620    1.0000 </r>
       <r>    7.8991    1.0000 </r>
       <r>    8.1010    1.0000 </r>
       <r>    8.8092    0.0000 </r>
       <r>    8.8725    0.0000 </r>
       <r>    8.9199    0.0000 </r>
       <r>    9.0852    0.0000 </r>
       <r>   10.0693    0.0000 </r>
       <r>   11.0059    0.0000 </r>
       <r>   11.1653    0.0000 </r>
       <r>   11.4557    0.0000 </r>
       <r>   11.4671    0.0000 </r>
       <r>   11.8332    0.0000 </r>
      </set>
      <set comment="kpoint 6">
       <r>  -54.8069    1.0000 </r>
       <r>  -54.8056    1.0000 </r>
       <r>  -54.6455    1.0000 </r>
       <r>  -54.6450    1.0000 </r>
       <r>  -28.3548    1.0000 </r>
       <r>  -28.3536    1.0000 </r>
       <r>  -28.2955    1.0000 </r>
       <r>  -28.2937    1.0000 </r>
       <r>  -28.2682    1.0000 </r>
       <r>  -28.2561    1.0000 </r>
       <r>  -28.1571    1.0000 </r>
       <r>  -28.1519    1.0000 </r>
       <r>  -28.0083    1.0000 </r>
       <r>  -28.0080    1.0000 </r>
       <r>  -28.0075    1.0000 </r>
       <r>  -28.0075    1.0000 </r>
       <r>   -6.6206    1.0000 </r>
       <r>   -5.5901    1.0000 </r>
       <r>   -4.7295    1.0000 </r>
       <r>   -4.0875    1.0000 </r>
       <r>   -3.7757    1.0000 </r>
       <r>   -2.5293    1.0000 </r>
       <r>   -1.6142    1.0000 </r>
       <r>   -0.2441    1.0000 </r>
       <r>    0.0964    1.0000 </r>
       <r>    0.7567    1.0000 </r>
       <r>    1.5837    1.0000 </r>
       <r>    2.2622    1.0000 </r>
       <r>    2.4350    1.0000 </r>
       <r>    2.4844    1.0000 </r>
       <r>    2.5652    1.0000 </r>
       <r>    2.8880    1.0000 </r>
       <r>    3.1187    1.0000 </r>
       <r>    3.4846    1.0000 </r>
       <r>    4.0287    1.0000 </r>
       <r>    4.3214    1.0000 </r>
       <r>    4.7494    1.0000 </r>
       <r>    5.3354    1.0000 </r>
       <r>    5.8042    1.0000 </r>
       <r>    6.0404    1.0000 </r>
       <r>    6.3689    1.0000 </r>
       <r>    6.7239    1.0000 </r>
       <r>    7.0385    1.0000 </r>
       <r>    7.1340    1.0000 </r>
       <r>    7.5356    1.0000 </r>
       <r>    7.6535    1.0000 </r>
       <r>    7.8866    1.0000 </r>
       <r>    7.9810    1.0000 </r>
       <r>    8.0037    1.0000 </r>
       <r>    8.4489    0.0000 </r>
       <r>    8.4941    0.0000 </r>
       <r>    8.6605    0.0000 </r>
       <r>    8.8576    0.0000 </r>
       <r>    9.2147    0.0000 </r>
       <r>   10.0737    0.0000 </r>
       <r>   10.4470    0.0000 </r>
       <r>   10.5325    0.0000 </r>
       <r>   10.9610    0.0000 </r>
       <r>   11.2183    0.0000 </r>
       <r>   11.4042    0.0000 </r>
      </set>
      <set comment="kpoint 7">
       <r>  -54.8069    1.0000 </r>
       <r>  -54.8056    1.0000 </r>
       <r>  -54.6455    1.0000 </r>
       <r>  -54.6451    1.0000 </r>
       <r>  -28.3551    1.0000 </r>
       <r>  -28.3535    1.0000 </r>
       <r>  -28.2954    1.0000 </r>
       <r>  -28.2945    1.0000 </r>
       <r>  -28.2676    1.0000 </r>
       <r>  -28.2555    1.0000 </r>
       <r>  -28.1572    1.0000 </r>
       <r>  -28.1521    1.0000 </r>
       <r>  -28.0086    1.0000 </r>
       <r>  -28.0083    1.0000 </r>
       <r>  -28.0075    1.0000 </r>
       <r>  -28.0072    1.0000 </r>
       <r>   -6.2258    1.0000 </r>
       <r>   -6.0880    1.0000 </r>
       <r>   -4.6018    1.0000 </r>
       <r>   -4.3417    1.0000 </r>
       <r>   -3.4329    1.0000 </r>
       <r>   -2.9833    1.0000 </r>
       <r>   -1.0540    1.0000 </r>
       <r>   -0.4886    1.0000 </r>
       <r>    0.2594    1.0000 </r>
       <r>    0.8748    1.0000 </r>
       <r>    1.7496    1.0000 </r>
       <r>    1.8580    1.0000 </r>
       <r>    2.0402    1.0000 </r>
       <r>    2.6802    1.0000 </r>
       <r>    2.7056    1.0000 </r>
       <r>    2.7959    1.0000 </r>
       <r>    3.4176    1.0000 </r>
       <r>    3.6610    1.0000 </r>
       <r>    3.6937    1.0000 </r>
       <r>    4.1357    1.0000 </r>
       <r>    4.9493    1.0000 </r>
       <r>    4.9891    1.0000 </r>
       <r>    6.1190    1.0000 </r>
       <r>    6.1457    1.0000 </r>
       <r>    6.2517    1.0000 </r>
       <r>    6.3897    1.0000 </r>
       <r>    7.0355    1.0000 </r>
       <r>    7.3582    1.0000 </r>
       <r>    7.6644    1.0000 </r>
       <r>    7.6952    1.0000 </r>
       <r>    8.0497    1.0000 </r>
       <r>    8.0978    1.0000 </r>
       <r>    8.1656    0.6194 </r>
       <r>    8.3213    0.0000 </r>
       <r>    8.6513    0.0000 </r>
       <r>    8.7287    0.0000 </r>
       <r>    9.0173    0.0000 </r>
       <r>    9.1853    0.0000 </r>
       <r>    9.8440    0.0000 </r>
       <r>    9.9873    0.0000 </r>
       <r>   10.2799    0.0000 </r>
       <r>   10.6740    0.0000 </r>
       <r>   11.3862    0.0000 </r>
       <r>   11.7141    0.0000 </r>
      </set>
      <set comment="kpoint 8">
       <r>  -54.8070    1.0000 </r>
       <r>  -54.8055    1.0000 </r>
       <r>  -54.6458    1.0000 </r>
       <r>  -54.6447    1.0000 </r>
       <r>  -28.3554    1.0000 </r>
       <r>  -28.3533    1.0000 </r>
       <r>  -28.2972    1.0000 </r>
       <r>  -28.2943    1.0000 </r>
       <r>  -28.2772    1.0000 </r>
       <r>  -28.2442    1.0000 </r>
       <r>  -28.1616    1.0000 </r>
       <r>  -28.1476    1.0000 </r>
       <r>  -28.0095    1.0000 </r>
       <r>  -28.0090    1.0000 </r>
       <r>  -28.0066    1.0000 </r>
       <r>  -28.0064    1.0000 </r>
       <r>   -6.5292    1.0000 </r>
       <r>   -5.7747    1.0000 </r>
       <r>   -4.5534    1.0000 </r>
       <r>   -4.3942    1.0000 </r>
       <r>   -3.3641    1.0000 </r>
       <r>   -3.0243    1.0000 </r>
       <r>   -1.0562    1.0000 </r>
       <r>   -0.4332    1.0000 </r>
       <r>    0.4113    1.0000 </r>
       <r>    0.7383    1.0000 </r>
       <r>    1.4347    1.0000 </r>
       <r>    1.8303    1.0000 </r>
       <r>    2.1824    1.0000 </r>
       <r>    2.6640    1.0000 </r>
       <r>    2.8816    1.0000 </r>
       <r>    3.0471    1.0000 </r>
       <r>    3.3230    1.0000 </r>
       <r>    3.6991    1.0000 </r>
       <r>    3.7307    1.0000 </r>
       <r>    4.1126    1.0000 </r>
       <r>    4.6498    1.0000 </r>
       <r>    4.9941    1.0000 </r>
       <r>    5.6334    1.0000 </r>
       <r>    5.9142    1.0000 </r>
       <r>    6.3738    1.0000 </r>
       <r>    6.7402    1.0000 </r>
       <r>    7.0161    1.0000 </r>
       <r>    7.2042    1.0000 </r>
       <r>    7.5707    1.0000 </r>
       <r>    7.7551    1.0000 </r>
       <r>    8.0609    1.0000 </r>
       <r>    8.1173    0.9999 </r>
       <r>    8.2336    0.0000 </r>
       <r>    8.3352    0.0000 </r>
       <r>    8.5879    0.0000 </r>
       <r>    8.8471    0.0000 </r>
       <r>    8.9469    0.0000 </r>
       <r>    9.2467    0.0000 </r>
       <r>    9.8744    0.0000 </r>
       <r>   10.3140    0.0000 </r>
       <r>   10.7708    0.0000 </r>
       <r>   10.7937    0.0000 </r>
       <r>   11.3766    0.0000 </r>
       <r>   11.6311    0.0000 </r>
      </set>
      <set comment="kpoint 9">
       <r>  -54.8071    1.0000 </r>
       <r>  -54.8055    1.0000 </r>
       <r>  -54.6461    1.0000 </r>
       <r>  -54.6444    1.0000 </r>
       <r>  -28.3553    1.0000 </r>
       <r>  -28.3532    1.0000 </r>
       <r>  -28.2987    1.0000 </r>
       <r>  -28.2942    1.0000 </r>
       <r>  -28.2839    1.0000 </r>
       <r>  -28.2364    1.0000 </r>
       <r>  -28.1645    1.0000 </r>
       <r>  -28.1443    1.0000 </r>
       <r>  -28.0099    1.0000 </r>
       <r>  -28.0094    1.0000 </r>
       <r>  -28.0062    1.0000 </r>
       <r>  -28.0060    1.0000 </r>
       <r>   -6.8566    1.0000 </r>
       <r>   -5.3296    1.0000 </r>
       <r>   -4.6990    1.0000 </r>
       <r>   -4.1391    1.0000 </r>
       <r>   -3.6908    1.0000 </r>
       <r>   -2.5447    1.0000 </r>
       <r>   -1.5688    1.0000 </r>
       <r>   -0.1089    1.0000 </r>
       <r>    0.1783    1.0000 </r>
       <r>    0.5866    1.0000 </r>
       <r>    1.4304    1.0000 </r>
       <r>    1.8537    1.0000 </r>
       <r>    2.4216    1.0000 </r>
       <r>    2.7202    1.0000 </r>
       <r>    2.9522    1.0000 </r>
       <r>    3.0602    1.0000 </r>
       <r>    3.4057    1.0000 </r>
       <r>    3.5222    1.0000 </r>
       <r>    3.9396    1.0000 </r>
       <r>    4.2730    1.0000 </r>
       <r>    4.3629    1.0000 </r>
       <r>    5.0186    1.0000 </r>
       <r>    5.2588    1.0000 </r>
       <r>    5.6624    1.0000 </r>
       <r>    6.3113    1.0000 </r>
       <r>    6.8119    1.0000 </r>
       <r>    7.1798    1.0000 </r>
       <r>    7.3051    1.0000 </r>
       <r>    7.4916    1.0000 </r>
       <r>    7.7454    1.0000 </r>
       <r>    7.8873    1.0000 </r>
       <r>    7.9480    1.0000 </r>
       <r>    7.9804    1.0000 </r>
       <r>    8.3211    0.0000 </r>
       <r>    8.6214    0.0000 </r>
       <r>    8.9779    0.0000 </r>
       <r>    8.9933    0.0000 </r>
       <r>    9.2383    0.0000 </r>
       <r>    9.8801    0.0000 </r>
       <r>   10.9197    0.0000 </r>
       <r>   11.3320    0.0000 </r>
       <r>   11.3929    0.0000 </r>
       <r>   11.6733    0.0000 </r>
       <r>   12.1124    0.0000 </r>
      </set>
      <set comment="kpoint 10">
       <r>  -54.8071    1.0000 </r>
       <r>  -54.8054    1.0000 </r>
       <r>  -54.6462    1.0000 </r>
       <r>  -54.6443    1.0000 </r>
       <r>  -28.3550    1.0000 </r>
       <r>  -28.3532    1.0000 </r>
       <r>  -28.2979    1.0000 </r>
       <r>  -28.2944    1.0000 </r>
       <r>  -28.2878    1.0000 </r>
       <r>  -28.2337    1.0000 </r>
       <r>  -28.1654    1.0000 </r>
       <r>  -28.1430    1.0000 </r>
       <r>  -28.0097    1.0000 </r>
       <r>  -28.0096    1.0000 </r>
       <r>  -28.0061    1.0000 </r>
       <r>  -28.0060    1.0000 </r>
       <r>   -7.0365    1.0000 </r>
       <r>   -5.0014    1.0000 </r>
       <r>   -4.7238    1.0000 </r>
       <r>   -4.0060    1.0000 </r>
       <r>   -3.8914    1.0000 </r>
       <r>   -2.1204    1.0000 </r>
       <r>   -1.8841    1.0000 </r>
       <r>   -0.4711    1.0000 </r>
       <r>    0.0121    1.0000 </r>
       <r>    0.5884    1.0000 </r>
       <r>    1.5121    1.0000 </r>
       <r>    2.0938    1.0000 </r>
       <r>    2.7385    1.0000 </r>
       <r>    2.8346    1.0000 </r>
       <r>    2.9498    1.0000 </r>
       <r>    3.0301    1.0000 </r>
       <r>    3.3976    1.0000 </r>
       <r>    3.6029    1.0000 </r>
       <r>    3.7310    1.0000 </r>
       <r>    4.0647    1.0000 </r>
       <r>    4.1746    1.0000 </r>
       <r>    5.1950    1.0000 </r>
       <r>    5.4013    1.0000 </r>
       <r>    5.5724    1.0000 </r>
       <r>    6.1265    1.0000 </r>
       <r>    6.8723    1.0000 </r>
       <r>    7.2050    1.0000 </r>
       <r>    7.3040    1.0000 </r>
       <r>    7.4591    1.0000 </r>
       <r>    7.6080    1.0000 </r>
       <r>    7.7604    1.0000 </r>
       <r>    7.8748    1.0000 </r>
       <r>    7.9055    1.0000 </r>
       <r>    8.6018    0.0000 </r>
       <r>    8.8064    0.0000 </r>
       <r>    8.9515    0.0000 </r>
       <r>    9.0153    0.0000 </r>
       <r>    9.2561    0.0000 </r>
       <r>    9.4158    0.0000 </r>
       <r>   11.0446    0.0000 </r>
       <r>   11.5225    0.0000 </r>
       <r>   11.8105    0.0000 </r>
       <r>   11.8886    0.0000 </r>
       <r>   11.9376    0.0000 </r>
      </set>
      <set comment="kpoint 11">
       <r>  -54.8069    1.0000 </r>
       <r>  -54.8056    1.0000 </r>
       <r>  -54.6455    1.0000 </r>
       <r>  -54.6451    1.0000 </r>
       <r>  -28.3551    1.0000 </r>
       <r>  -28.3536    1.0000 </r>
       <r>  -28.2950    1.0000 </r>
       <r>  -28.2950    1.0000 </r>
       <r>  -28.2675    1.0000 </r>
       <r>  -28.2554    1.0000 </r>
       <r>  -28.1572    1.0000 </r>
       <r>  -28.1521    1.0000 </r>
       <r>  -28.0086    1.0000 </r>
       <r>  -28.0084    1.0000 </r>
       <r>  -28.0074    1.0000 </r>
       <r>  -28.0071    1.0000 </r>
       <r>   -6.3184    1.0000 </r>
       <r>   -5.8144    1.0000 </r>
       <r>   -4.9814    1.0000 </r>
       <r>   -4.3905    1.0000 </r>
       <r>   -3.3925    1.0000 </r>
       <r>   -2.2136    1.0000 </r>
       <r>   -1.8535    1.0000 </r>
       <r>   -0.3523    1.0000 </r>
       <r>    0.0184    1.0000 </r>
       <r>    1.4438    1.0000 </r>
       <r>    1.7483    1.0000 </r>
       <r>    1.9651    1.0000 </r>
       <r>    2.0295    1.0000 </r>
       <r>    2.3283    1.0000 </r>
       <r>    2.6119    1.0000 </r>
       <r>    2.8339    1.0000 </r>
       <r>    3.1389    1.0000 </r>
       <r>    3.7427    1.0000 </r>
       <r>    3.7820    1.0000 </r>
       <r>    4.5046    1.0000 </r>
       <r>    5.1006    1.0000 </r>
       <r>    5.4026    1.0000 </r>
       <r>    5.6490    1.0000 </r>
       <r>    5.9504    1.0000 </r>
       <r>    6.1636    1.0000 </r>
       <r>    6.3604    1.0000 </r>
       <r>    6.8404    1.0000 </r>
       <r>    7.4831    1.0000 </r>
       <r>    7.5116    1.0000 </r>
       <r>    7.8037    1.0000 </r>
       <r>    7.9903    1.0000 </r>
       <r>    7.9983    1.0000 </r>
       <r>    8.3505    0.0000 </r>
       <r>    8.3506    0.0000 </r>
       <r>    8.5724    0.0000 </r>
       <r>    8.8051    0.0000 </r>
       <r>    8.9093    0.0000 </r>
       <r>    9.5710    0.0000 </r>
       <r>    9.6015    0.0000 </r>
       <r>   10.0813    0.0000 </r>
       <r>   10.1044    0.0000 </r>
       <r>   10.8356    0.0000 </r>
       <r>   10.9566    0.0000 </r>
       <r>   11.5198    0.0000 </r>
      </set>
      <set comment="kpoint 12">
       <r>  -54.8070    1.0000 </r>
       <r>  -54.8056    1.0000 </r>
       <r>  -54.6458    1.0000 </r>
       <r>  -54.6447    1.0000 </r>
       <r>  -28.3557    1.0000 </r>
       <r>  -28.3534    1.0000 </r>
       <r>  -28.2979    1.0000 </r>
       <r>  -28.2945    1.0000 </r>
       <r>  -28.2759    1.0000 </r>
       <r>  -28.2439    1.0000 </r>
       <r>  -28.1617    1.0000 </r>
       <r>  -28.1477    1.0000 </r>
       <r>  -28.0097    1.0000 </r>
       <r>  -28.0092    1.0000 </r>
       <r>  -28.0065    1.0000 </r>
       <r>  -28.0063    1.0000 </r>
       <r>   -6.1643    1.0000 </r>
       <r>   -5.9465    1.0000 </r>
       <r>   -4.9769    1.0000 </r>
       <r>   -4.6730    1.0000 </r>
       <r>   -2.9744    1.0000 </r>
       <r>   -2.5604    1.0000 </r>
       <r>   -1.3274    1.0000 </r>
       <r>   -0.9076    1.0000 </r>
       <r>    0.4630    1.0000 </r>
       <r>    1.2750    1.0000 </r>
       <r>    1.6360    1.0000 </r>
       <r>    1.9643    1.0000 </r>
       <r>    2.0561    1.0000 </r>
       <r>    2.3550    1.0000 </r>
       <r>    2.5645    1.0000 </r>
       <r>    3.1563    1.0000 </r>
       <r>    3.3829    1.0000 </r>
       <r>    3.4683    1.0000 </r>
       <r>    3.9308    1.0000 </r>
       <r>    4.3147    1.0000 </r>
       <r>    4.9204    1.0000 </r>
       <r>    5.1953    1.0000 </r>
       <r>    5.5142    1.0000 </r>
       <r>    5.8492    1.0000 </r>
       <r>    6.0622    1.0000 </r>
       <r>    6.4858    1.0000 </r>
       <r>    6.6881    1.0000 </r>
       <r>    7.0811    1.0000 </r>
       <r>    7.6607    1.0000 </r>
       <r>    7.9254    1.0000 </r>
       <r>    8.1231    0.9995 </r>
       <r>    8.1552    0.8492 </r>
       <r>    8.4845    0.0000 </r>
       <r>    8.5139    0.0000 </r>
       <r>    8.8630    0.0000 </r>
       <r>    8.9636    0.0000 </r>
       <r>    9.1141    0.0000 </r>
       <r>    9.2799    0.0000 </r>
       <r>    9.4364    0.0000 </r>
       <r>   10.0758    0.0000 </r>
       <r>   10.3828    0.0000 </r>
       <r>   10.4613    0.0000 </r>
       <r>   11.1359    0.0000 </r>
       <r>   11.4756    0.0000 </r>
      </set>
      <set comment="kpoint 13">
       <r>  -54.8070    1.0000 </r>
       <r>  -54.8055    1.0000 </r>
       <r>  -54.6461    1.0000 </r>
       <r>  -54.6444    1.0000 </r>
       <r>  -28.3560    1.0000 </r>
       <r>  -28.3532    1.0000 </r>
       <r>  -28.3009    1.0000 </r>
       <r>  -28.2942    1.0000 </r>
       <r>  -28.2807    1.0000 </r>
       <r>  -28.2360    1.0000 </r>
       <r>  -28.1648    1.0000 </r>
       <r>  -28.1445    1.0000 </r>
       <r>  -28.0104    1.0000 </r>
       <r>  -28.0097    1.0000 </r>
       <r>  -28.0059    1.0000 </r>
       <r>  -28.0057    1.0000 </r>
       <r>   -6.5087    1.0000 </r>
       <r>   -5.5605    1.0000 </r>
       <r>   -4.8888    1.0000 </r>
       <r>   -4.7841    1.0000 </r>
       <r>   -2.9428    1.0000 </r>
       <r>   -2.5269    1.0000 </r>
       <r>   -1.4906    1.0000 </r>
       <r>   -0.7193    1.0000 </r>
       <r>    0.7347    1.0000 </r>
       <r>    1.0367    1.0000 </r>
       <r>    1.5057    1.0000 </r>
       <r>    1.6674    1.0000 </r>
       <r>    1.9260    1.0000 </r>
       <r>    2.5139    1.0000 </r>
       <r>    2.9729    1.0000 </r>
       <r>    3.2071    1.0000 </r>
       <r>    3.4092    1.0000 </r>
       <r>    3.7177    1.0000 </r>
       <r>    4.0203    1.0000 </r>
       <r>    4.2905    1.0000 </r>
       <r>    4.5359    1.0000 </r>
       <r>    5.0483    1.0000 </r>
       <r>    5.1754    1.0000 </r>
       <r>    5.4703    1.0000 </r>
       <r>    6.0773    1.0000 </r>
       <r>    6.6454    1.0000 </r>
       <r>    6.9067    1.0000 </r>
       <r>    7.0256    1.0000 </r>
       <r>    7.5881    1.0000 </r>
       <r>    8.0192    1.0000 </r>
       <r>    8.1433    0.9698 </r>
       <r>    8.1844    0.1512 </r>
       <r>    8.4331    0.0000 </r>
       <r>    8.4719    0.0000 </r>
       <r>    8.5335    0.0000 </r>
       <r>    8.8586    0.0000 </r>
       <r>    9.2260    0.0000 </r>
       <r>    9.2542    0.0000 </r>
       <r>   10.1211    0.0000 </r>
       <r>   10.2817    0.0000 </r>
       <r>   10.6893    0.0000 </r>
       <r>   11.0623    0.0000 </r>
       <r>   11.1495    0.0000 </r>
       <r>   11.2621    0.0000 </r>
      </set>
      <set comment="kpoint 14">
       <r>  -54.8071    1.0000 </r>
       <r>  -54.8054    1.0000 </r>
       <r>  -54.6462    1.0000 </r>
       <r>  -54.6444    1.0000 </r>
       <r>  -28.3558    1.0000 </r>
       <r>  -28.3531    1.0000 </r>
       <r>  -28.3013    1.0000 </r>
       <r>  -28.2942    1.0000 </r>
       <r>  -28.2834    1.0000 </r>
       <r>  -28.2333    1.0000 </r>
       <r>  -28.1658    1.0000 </r>
       <r>  -28.1433    1.0000 </r>
       <r>  -28.0104    1.0000 </r>
       <r>  -28.0098    1.0000 </r>
       <r>  -28.0058    1.0000 </r>
       <r>  -28.0057    1.0000 </r>
       <r>   -6.7526    1.0000 </r>
       <r>   -5.2825    1.0000 </r>
       <r>   -4.9580    1.0000 </r>
       <r>   -4.4804    1.0000 </r>
       <r>   -3.3106    1.0000 </r>
       <r>   -2.1257    1.0000 </r>
       <r>   -1.9727    1.0000 </r>
       <r>   -0.1910    1.0000 </r>
       <r>    0.2552    1.0000 </r>
       <r>    1.1526    1.0000 </r>
       <r>    1.4890    1.0000 </r>
       <r>    1.5953    1.0000 </r>
       <r>    1.8658    1.0000 </r>
       <r>    2.7257    1.0000 </r>
       <r>    2.9811    1.0000 </r>
       <r>    3.0719    1.0000 </r>
       <r>    3.5242    1.0000 </r>
       <r>    3.8251    1.0000 </r>
       <r>    3.9336    1.0000 </r>
       <r>    4.3003    1.0000 </r>
       <r>    4.7588    1.0000 </r>
       <r>    4.9133    1.0000 </r>
       <r>    5.0411    1.0000 </r>
       <r>    5.1189    1.0000 </r>
       <r>    6.2192    1.0000 </r>
       <r>    6.6127    1.0000 </r>
       <r>    7.1576    1.0000 </r>
       <r>    7.3138    1.0000 </r>
       <r>    7.6548    1.0000 </r>
       <r>    7.8272    1.0000 </r>
       <r>    7.9063    1.0000 </r>
       <r>    7.9611    1.0000 </r>
       <r>    8.2157    0.0006 </r>
       <r>    8.3998    0.0000 </r>
       <r>    8.4842    0.0000 </r>
       <r>    8.8799    0.0000 </r>
       <r>    9.2057    0.0000 </r>
       <r>    9.4763    0.0000 </r>
       <r>    9.9665    0.0000 </r>
       <r>   10.8935    0.0000 </r>
       <r>   10.9076    0.0000 </r>
       <r>   10.9892    0.0000 </r>
       <r>   11.2161    0.0000 </r>
       <r>   11.6730    0.0000 </r>
      </set>
      <set comment="kpoint 15">
       <r>  -54.8070    1.0000 </r>
       <r>  -54.8055    1.0000 </r>
       <r>  -54.6461    1.0000 </r>
       <r>  -54.6444    1.0000 </r>
       <r>  -28.3563    1.0000 </r>
       <r>  -28.3532    1.0000 </r>
       <r>  -28.3016    1.0000 </r>
       <r>  -28.2941    1.0000 </r>
       <r>  -28.2796    1.0000 </r>
       <r>  -28.2359    1.0000 </r>
       <r>  -28.1650    1.0000 </r>
       <r>  -28.1447    1.0000 </r>
       <r>  -28.0107    1.0000 </r>
       <r>  -28.0098    1.0000 </r>
       <r>  -28.0058    1.0000 </r>
       <r>  -28.0056    1.0000 </r>
       <r>   -6.2518    1.0000 </r>
       <r>   -5.6400    1.0000 </r>
       <r>   -5.1680    1.0000 </r>
       <r>   -4.9649    1.0000 </r>
       <r>   -2.4823    1.0000 </r>
       <r>   -2.3963    1.0000 </r>
       <r>   -1.4161    1.0000 </r>
       <r>   -1.3378    1.0000 </r>
       <r>    0.7970    1.0000 </r>
       <r>    1.3808    1.0000 </r>
       <r>    1.3869    1.0000 </r>
       <r>    1.7528    1.0000 </r>
       <r>    1.9437    1.0000 </r>
       <r>    2.3704    1.0000 </r>
       <r>    3.0742    1.0000 </r>
       <r>    3.3181    1.0000 </r>
       <r>    3.4069    1.0000 </r>
       <r>    3.6127    1.0000 </r>
       <r>    4.0639    1.0000 </r>
       <r>    4.2919    1.0000 </r>
       <r>    4.6578    1.0000 </r>
       <r>    4.8062    1.0000 </r>
       <r>    5.0937    1.0000 </r>
       <r>    5.6638    1.0000 </r>
       <r>    6.1409    1.0000 </r>
       <r>    6.5140    1.0000 </r>
       <r>    6.6416    1.0000 </r>
       <r>    6.8067    1.0000 </r>
       <r>    7.5476    1.0000 </r>
       <r>    8.0239    1.0000 </r>
       <r>    8.2499    0.0000 </r>
       <r>    8.2703    0.0000 </r>
       <r>    8.6456    0.0000 </r>
       <r>    8.6697    0.0000 </r>
       <r>    8.7210    0.0000 </r>
       <r>    9.1164    0.0000 </r>
       <r>    9.2971    0.0000 </r>
       <r>    9.3113    0.0000 </r>
       <r>    9.8319    0.0000 </r>
       <r>    9.9791    0.0000 </r>
       <r>   10.1707    0.0000 </r>
       <r>   10.9149    0.0000 </r>
       <r>   11.0097    0.0000 </r>
       <r>   11.0914    0.0000 </r>
      </set>
      <set comment="kpoint 16">
       <r>  -54.8071    1.0000 </r>
       <r>  -54.8055    1.0000 </r>
       <r>  -54.6462    1.0000 </r>
       <r>  -54.6444    1.0000 </r>
       <r>  -28.3565    1.0000 </r>
       <r>  -28.3531    1.0000 </r>
       <r>  -28.3030    1.0000 </r>
       <r>  -28.2940    1.0000 </r>
       <r>  -28.2809    1.0000 </r>
       <r>  -28.2331    1.0000 </r>
       <r>  -28.1661    1.0000 </r>
       <r>  -28.1435    1.0000 </r>
       <r>  -28.0109    1.0000 </r>
       <r>  -28.0100    1.0000 </r>
       <r>  -28.0056    1.0000 </r>
       <r>  -28.0055    1.0000 </r>
       <r>   -6.3918    1.0000 </r>
       <r>   -5.4222    1.0000 </r>
       <r>   -5.1199    1.0000 </r>
       <r>   -5.0806    1.0000 </r>
       <r>   -2.5914    1.0000 </r>
       <r>   -2.0392    1.0000 </r>
       <r>   -1.9132    1.0000 </r>
       <r>   -1.0480    1.0000 </r>
       <r>    1.0826    1.0000 </r>
       <r>    1.1910    1.0000 </r>
       <r>    1.3403    1.0000 </r>
       <r>    1.4770    1.0000 </r>
       <r>    1.9976    1.0000 </r>
       <r>    2.3663    1.0000 </r>
       <r>    3.1848    1.0000 </r>
       <r>    3.4062    1.0000 </r>
       <r>    3.4730    1.0000 </r>
       <r>    3.8262    1.0000 </r>
       <r>    4.1920    1.0000 </r>
       <r>    4.3207    1.0000 </r>
       <r>    4.4239    1.0000 </r>
       <r>    4.4616    1.0000 </r>
       <r>    5.0330    1.0000 </r>
       <r>    5.7406    1.0000 </r>
       <r>    5.7643    1.0000 </r>
       <r>    6.5593    1.0000 </r>
       <r>    6.8353    1.0000 </r>
       <r>    6.9307    1.0000 </r>
       <r>    7.5314    1.0000 </r>
       <r>    7.9686    1.0000 </r>
       <r>    8.3067    0.0000 </r>
       <r>    8.3263    0.0000 </r>
       <r>    8.3864    0.0000 </r>
       <r>    8.6663    0.0000 </r>
       <r>    8.6830    0.0000 </r>
       <r>    8.8346    0.0000 </r>
       <r>    9.3331    0.0000 </r>
       <r>    9.5324    0.0000 </r>
       <r>   10.2027    0.0000 </r>
       <r>   10.3120    0.0000 </r>
       <r>   10.3603    0.0000 </r>
       <r>   10.6197    0.0000 </r>
       <r>   10.8237    0.0000 </r>
       <r>   11.5332    0.0000 </r>
      </set>
      <set comment="kpoint 17">
       <r>  -54.8070    1.0000 </r>
       <r>  -54.8055    1.0000 </r>
       <r>  -54.6458    1.0000 </r>
       <r>  -54.6447    1.0000 </r>
       <r>  -28.3547    1.0000 </r>
       <r>  -28.3540    1.0000 </r>
       <r>  -28.2980    1.0000 </r>
       <r>  -28.2933    1.0000 </r>
       <r>  -28.2772    1.0000 </r>
       <r>  -28.2442    1.0000 </r>
       <r>  -28.1616    1.0000 </r>
       <r>  -28.1475    1.0000 </r>
       <r>  -28.0095    1.0000 </r>
       <r>  -28.0089    1.0000 </r>
       <r>  -28.0066    1.0000 </r>
       <r>  -28.0066    1.0000 </r>
       <r>   -6.6240    1.0000 </r>
       <r>   -5.4537    1.0000 </r>
       <r>   -4.9648    1.0000 </r>
       <r>   -4.4544    1.0000 </r>
       <r>   -3.3415    1.0000 </r>
       <r>   -2.0497    1.0000 </r>
       <r>   -2.0446    1.0000 </r>
       <r>   -0.2518    1.0000 </r>
       <r>    0.1775    1.0000 </r>
       <r>    1.2267    1.0000 </r>
       <r>    1.5635    1.0000 </r>
       <r>    1.9021    1.0000 </r>
       <r>    1.9793    1.0000 </r>
       <r>    2.6796    1.0000 </r>
       <r>    2.7404    1.0000 </r>
       <r>    3.0361    1.0000 </r>
       <r>    3.0609    1.0000 </r>
       <r>    3.7444    1.0000 </r>
       <r>    3.8108    1.0000 </r>
       <r>    4.5132    1.0000 </r>
       <r>    4.6627    1.0000 </r>
       <r>    5.1785    1.0000 </r>
       <r>    5.4134    1.0000 </r>
       <r>    5.4340    1.0000 </r>
       <r>    6.2191    1.0000 </r>
       <r>    6.8250    1.0000 </r>
       <r>    6.9449    1.0000 </r>
       <r>    7.0741    1.0000 </r>
       <r>    7.7136    1.0000 </r>
       <r>    7.8158    1.0000 </r>
       <r>    7.9211    1.0000 </r>
       <r>    8.0114    1.0000 </r>
       <r>    8.2795    0.0000 </r>
       <r>    8.4450    0.0000 </r>
       <r>    8.4914    0.0000 </r>
       <r>    8.8113    0.0000 </r>
       <r>    9.0580    0.0000 </r>
       <r>    9.0856    0.0000 </r>
       <r>   10.1013    0.0000 </r>
       <r>   10.7458    0.0000 </r>
       <r>   10.7664    0.0000 </r>
       <r>   10.9469    0.0000 </r>
       <r>   11.3858    0.0000 </r>
       <r>   11.6185    0.0000 </r>
      </set>
      <set comment="kpoint 18">
       <r>  -54.8069    1.0000 </r>
       <r>  -54.8056    1.0000 </r>
       <r>  -54.6455    1.0000 </r>
       <r>  -54.6451    1.0000 </r>
       <r>  -28.3550    1.0000 </r>
       <r>  -28.3539    1.0000 </r>
       <r>  -28.2964    1.0000 </r>
       <r>  -28.2940    1.0000 </r>
       <r>  -28.2669    1.0000 </r>
       <r>  -28.2551    1.0000 </r>
       <r>  -28.1573    1.0000 </r>
       <r>  -28.1522    1.0000 </r>
       <r>  -28.0087    1.0000 </r>
       <r>  -28.0081    1.0000 </r>
       <r>  -28.0075    1.0000 </r>
       <r>  -28.0073    1.0000 </r>
       <r>   -6.2665    1.0000 </r>
       <r>   -5.8359    1.0000 </r>
       <r>   -4.9367    1.0000 </r>
       <r>   -4.7411    1.0000 </r>
       <r>   -2.9547    1.0000 </r>
       <r>   -2.5245    1.0000 </r>
       <r>   -1.4503    1.0000 </r>
       <r>   -0.8269    1.0000 </r>
       <r>    0.6059    1.0000 </r>
       <r>    1.1353    1.0000 </r>
       <r>    1.8463    1.0000 </r>
       <r>    1.9814    1.0000 </r>
       <r>    2.2355    1.0000 </r>
       <r>    2.4114    1.0000 </r>
       <r>    2.5968    1.0000 </r>
       <r>    2.6289    1.0000 </r>
       <r>    3.2265    1.0000 </r>
       <r>    3.5366    1.0000 </r>
       <r>    3.9153    1.0000 </r>
       <r>    4.2425    1.0000 </r>
       <r>    5.0331    1.0000 </r>
       <r>    5.2615    1.0000 </r>
       <r>    5.5532    1.0000 </r>
       <r>    5.8106    1.0000 </r>
       <r>    5.8670    1.0000 </r>
       <r>    6.3088    1.0000 </r>
       <r>    7.1007    1.0000 </r>
       <r>    7.2988    1.0000 </r>
       <r>    7.5604    1.0000 </r>
       <r>    7.9898    1.0000 </r>
       <r>    8.1144    1.0000 </r>
       <r>    8.1237    0.9995 </r>
       <r>    8.2821    0.0000 </r>
       <r>    8.3111    0.0000 </r>
       <r>    8.7088    0.0000 </r>
       <r>    8.8367    0.0000 </r>
       <r>    8.9447    0.0000 </r>
       <r>    9.5210    0.0000 </r>
       <r>    9.6603    0.0000 </r>
       <r>   10.2573    0.0000 </r>
       <r>   10.2937    0.0000 </r>
       <r>   10.6316    0.0000 </r>
       <r>   11.1951    0.0000 </r>
       <r>   11.4902    0.0000 </r>
      </set>
      <set comment="kpoint 19">
       <r>  -54.8071    1.0000 </r>
       <r>  -54.8054    1.0000 </r>
       <r>  -54.6462    1.0000 </r>
       <r>  -54.6443    1.0000 </r>
       <r>  -28.3550    1.0000 </r>
       <r>  -28.3533    1.0000 </r>
       <r>  -28.2997    1.0000 </r>
       <r>  -28.2936    1.0000 </r>
       <r>  -28.2866    1.0000 </r>
       <r>  -28.2335    1.0000 </r>
       <r>  -28.1655    1.0000 </r>
       <r>  -28.1431    1.0000 </r>
       <r>  -28.0100    1.0000 </r>
       <r>  -28.0095    1.0000 </r>
       <r>  -28.0061    1.0000 </r>
       <r>  -28.0058    1.0000 </r>
       <r>   -6.9371    1.0000 </r>
       <r>   -5.3202    1.0000 </r>
       <r>   -4.4752    1.0000 </r>
       <r>   -3.9695    1.0000 </r>
       <r>   -3.8964    1.0000 </r>
       <r>   -2.7762    1.0000 </r>
       <r>   -1.3103    1.0000 </r>
       <r>   -0.2013    1.0000 </r>
       <r>    0.2542    1.0000 </r>
       <r>    0.3353    1.0000 </r>
       <r>    1.3713    1.0000 </r>
       <r>    1.8217    1.0000 </r>
       <r>    2.5990    1.0000 </r>
       <r>    3.0467    1.0000 </r>
       <r>    3.0677    1.0000 </r>
       <r>    3.0766    1.0000 </r>
       <r>    3.1288    1.0000 </r>
       <r>    3.5649    1.0000 </r>
       <r>    3.9098    1.0000 </r>
       <r>    4.0974    1.0000 </r>
       <r>    4.3299    1.0000 </r>
       <r>    4.9271    1.0000 </r>
       <r>    5.1977    1.0000 </r>
       <r>    5.8625    1.0000 </r>
       <r>    6.2072    1.0000 </r>
       <r>    6.8416    1.0000 </r>
       <r>    7.1607    1.0000 </r>
       <r>    7.3517    1.0000 </r>
       <r>    7.6884    1.0000 </r>
       <r>    7.7036    1.0000 </r>
       <r>    7.7491    1.0000 </r>
       <r>    7.8785    1.0000 </r>
       <r>    7.9290    1.0000 </r>
       <r>    8.6468    0.0000 </r>
       <r>    8.6844    0.0000 </r>
       <r>    8.8650    0.0000 </r>
       <r>    8.9416    0.0000 </r>
       <r>    9.3875    0.0000 </r>
       <r>    9.5290    0.0000 </r>
       <r>   11.0646    0.0000 </r>
       <r>   11.1774    0.0000 </r>
       <r>   11.6042    0.0000 </r>
       <r>   11.9709    0.0000 </r>
       <r>   12.1070    0.0000 </r>
      </set>
      <set comment="kpoint 20">
       <r>  -54.8069    1.0000 </r>
       <r>  -54.8056    1.0000 </r>
       <r>  -54.6455    1.0000 </r>
       <r>  -54.6451    1.0000 </r>
       <r>  -28.3554    1.0000 </r>
       <r>  -28.3536    1.0000 </r>
       <r>  -28.2956    1.0000 </r>
       <r>  -28.2952    1.0000 </r>
       <r>  -28.2662    1.0000 </r>
       <r>  -28.2548    1.0000 </r>
       <r>  -28.1574    1.0000 </r>
       <r>  -28.1523    1.0000 </r>
       <r>  -28.0088    1.0000 </r>
       <r>  -28.0083    1.0000 </r>
       <r>  -28.0076    1.0000 </r>
       <r>  -28.0072    1.0000 </r>
[...]
       <r>    5.5294    1.0000 </r>
       <r>    6.0228    1.0000 </r>
       <r>    6.4811    1.0000 </r>
       <r>    6.4902    1.0000 </r>
       <r>    6.6410    1.0000 </r>
       <r>    6.7704    1.0000 </r>
       <r>    7.1175    1.0000 </r>
       <r>    7.8418    1.0000 </r>
       <r>    7.8644    1.0000 </r>
       <r>    7.9670    1.0000 </r>
       <r>    8.0710    1.0000 </r>
       <r>    8.2561    0.0000 </r>
       <r>    8.3106    0.0000 </r>
       <r>    8.4970    0.0000 </r>
       <r>    8.6278    0.0000 </r>
       <r>    8.8638    0.0000 </r>
       <r>    8.8759    0.0000 </r>
       <r>    8.9826    0.0000 </r>
       <r>    9.0092    0.0000 </r>
       <r>    9.7687    0.0000 </r>
       <r>   10.8471    0.0000 </r>
       <r>   11.4004    0.0000 </r>
       <r>   12.2062    0.0000 </r>
      </set>
      <set comment="kpoint 40">
       <r>  -54.8070    1.0000 </r>
       <r>  -54.8055    1.0000 </r>
       <r>  -54.6461    1.0000 </r>
       <r>  -54.6445    1.0000 </r>
       <r>  -28.3551    1.0000 </r>
       <r>  -28.3536    1.0000 </r>
       <r>  -28.2945    1.0000 </r>
       <r>  -28.2933    1.0000 </r>
       <r>  -28.2906    1.0000 </r>
       <r>  -28.2359    1.0000 </r>
       <r>  -28.1643    1.0000 </r>
       <r>  -28.1446    1.0000 </r>
       <r>  -28.0097    1.0000 </r>
       <r>  -28.0096    1.0000 </r>
       <r>  -28.0058    1.0000 </r>
       <r>  -28.0057    1.0000 </r>
       <r>   -6.4225    1.0000 </r>
       <r>   -5.5372    1.0000 </r>
       <r>   -4.6091    1.0000 </r>
       <r>   -4.6090    1.0000 </r>
       <r>   -3.3712    1.0000 </r>
       <r>   -2.2229    1.0000 </r>
       <r>   -2.2228    1.0000 </r>
       <r>   -1.1433    1.0000 </r>
       <r>    0.4911    1.0000 </r>
       <r>    0.5780    1.0000 </r>
       <r>    0.9588    1.0000 </r>
       <r>    1.8620    1.0000 </r>
       <r>    2.0476    1.0000 </r>
       <r>    3.0601    1.0000 </r>
       <r>    3.1983    1.0000 </r>
       <r>    3.1984    1.0000 </r>
       <r>    3.3968    1.0000 </r>
       <r>    3.3968    1.0000 </r>
       <r>    4.9574    1.0000 </r>
       <r>    4.9575    1.0000 </r>
       <r>    5.0539    1.0000 </r>
       <r>    5.3100    1.0000 </r>
       <r>    6.4075    1.0000 </r>
       <r>    6.5638    1.0000 </r>
       <r>    6.5945    1.0000 </r>
       <r>    6.5947    1.0000 </r>
       <r>    6.8395    1.0000 </r>
       <r>    7.3017    1.0000 </r>
       <r>    7.5987    1.0000 </r>
       <r>    7.5987    1.0000 </r>
       <r>    8.0634    1.0000 </r>
       <r>    8.1203    0.9998 </r>
       <r>    8.1204    0.9998 </r>
       <r>    8.1520    0.8972 </r>
       <r>    8.1522    0.8940 </r>
       <r>    8.3069    0.0000 </r>
       <r>    8.8345    0.0000 </r>
       <r>    8.9116    0.0000 </r>
       <r>    9.3600    0.0000 </r>
       <r>    9.3601    0.0000 </r>
       <r>    9.7692    0.0000 </r>
       <r>   10.9265    0.0000 </r>
       <r>   11.1209    0.0000 </r>
       <r>   11.7730    0.0000 </r>
      </set>
     </set>
    </set>
   </array>
  </eigenvalues>
  <separator name="orbital magnetization" >
   <v name="MAGDIPOLOUT">      0.00000000      0.00000000      0.00000000</v>
  </separator>
  <dos>
   <i name="efermi">      8.16985707 </i>
   <total>
    <array>
     <dimension dim="1">gridpoints</dimension>
     <dimension dim="2">spin</dimension>
     <field>energy</field>
     <field>total</field>
     <field>integrated</field>
     <set>
      <set comment="spin 1">
       <r>   -58.1778     0.0000     0.0000 </r>
       <r>   -57.9306     0.0000     0.0000 </r>
       <r>   -57.6835     0.0000     0.0000 </r>
       <r>   -57.4363     0.0000     0.0000 </r>
       <r>   -57.1891     0.0000     0.0000 </r>
       <r>   -56.9419     0.0000     0.0000 </r>
       <r>   -56.6947     0.0000     0.0000 </r>
       <r>   -56.4475     0.0000     0.0000 </r>
       <r>   -56.2003     0.0000     0.0000 </r>
       <r>   -55.9532     0.0000     0.0000 </r>
       <r>   -55.7060     0.0000     0.0000 </r>
       <r>   -55.4588     0.0000     0.0000 </r>
       <r>   -55.2116     0.0000     0.0000 </r>
       <r>   -54.9644     0.0000     0.0000 </r>
       <r>   -54.7172    16.1822     4.0000 </r>
       <r>   -54.4700     0.0000     8.0000 </r>
       <r>   -54.2229     0.0000     8.0000 </r>
       <r>   -53.9757     0.0000     8.0000 </r>
       <r>   -53.7285     0.0000     8.0000 </r>
       <r>   -53.4813     0.0000     8.0000 </r>
       <r>   -53.2341     0.0000     8.0000 </r>
       <r>   -52.9869     0.0000     8.0000 </r>
       <r>   -52.7397     0.0000     8.0000 </r>
       <r>   -52.4926     0.0000     8.0000 </r>
       <r>   -52.2454     0.0000     8.0000 </r>
       <r>   -51.9982     0.0000     8.0000 </r>
       <r>   -51.7510     0.0000     8.0000 </r>
       <r>   -51.5038     0.0000     8.0000 </r>
       <r>   -51.2566     0.0000     8.0000 </r>
       <r>   -51.0095     0.0000     8.0000 </r>
       <r>   -50.7623     0.0000     8.0000 </r>
       <r>   -50.5151     0.0000     8.0000 </r>
       <r>   -50.2679     0.0000     8.0000 </r>
       <r>   -50.0207     0.0000     8.0000 </r>
       <r>   -49.7735     0.0000     8.0000 </r>
       <r>   -49.5263     0.0000     8.0000 </r>
       <r>   -49.2792     0.0000     8.0000 </r>
       <r>   -49.0320     0.0000     8.0000 </r>
       <r>   -48.7848     0.0000     8.0000 </r>
       <r>   -48.5376     0.0000     8.0000 </r>
       <r>   -48.2904     0.0000     8.0000 </r>
       <r>   -48.0432     0.0000     8.0000 </r>
       <r>   -47.7960     0.0000     8.0000 </r>
       <r>   -47.5489     0.0000     8.0000 </r>
       <r>   -47.3017     0.0000     8.0000 </r>
       <r>   -47.0545     0.0000     8.0000 </r>
       <r>   -46.8073     0.0000     8.0000 </r>
       <r>   -46.5601     0.0000     8.0000 </r>
       <r>   -46.3129     0.0000     8.0000 </r>
       <r>   -46.0657     0.0000     8.0000 </r>
       <r>   -45.8186     0.0000     8.0000 </r>
       <r>   -45.5714     0.0000     8.0000 </r>
       <r>   -45.3242     0.0000     8.0000 </r>
       <r>   -45.0770     0.0000     8.0000 </r>
       <r>   -44.8298     0.0000     8.0000 </r>
       <r>   -44.5826     0.0000     8.0000 </r>
       <r>   -44.3354     0.0000     8.0000 </r>
       <r>   -44.0883     0.0000     8.0000 </r>
       <r>   -43.8411     0.0000     8.0000 </r>
       <r>   -43.5939     0.0000     8.0000 </r>
       <r>   -43.3467     0.0000     8.0000 </r>
       <r>   -43.0995     0.0000     8.0000 </r>
       <r>   -42.8523     0.0000     8.0000 </r>
       <r>   -42.6052     0.0000     8.0000 </r>
       <r>   -42.3580     0.0000     8.0000 </r>
       <r>   -42.1108     0.0000     8.0000 </r>
       <r>   -41.8636     0.0000     8.0000 </r>
       <r>   -41.6164     0.0000     8.0000 </r>
       <r>   -41.3692     0.0000     8.0000 </r>
       <r>   -41.1220     0.0000     8.0000 </r>
       <r>   -40.8749     0.0000     8.0000 </r>
       <r>   -40.6277     0.0000     8.0000 </r>
       <r>   -40.3805     0.0000     8.0000 </r>
       <r>   -40.1333     0.0000     8.0000 </r>
       <r>   -39.8861     0.0000     8.0000 </r>
       <r>   -39.6389     0.0000     8.0000 </r>
       <r>   -39.3917     0.0000     8.0000 </r>
       <r>   -39.1446     0.0000     8.0000 </r>
       <r>   -38.8974     0.0000     8.0000 </r>
       <r>   -38.6502     0.0000     8.0000 </r>
       <r>   -38.4030     0.0000     8.0000 </r>
       <r>   -38.1558     0.0000     8.0000 </r>
       <r>   -37.9086     0.0000     8.0000 </r>
       <r>   -37.6614     0.0000     8.0000 </r>
       <r>   -37.4143     0.0000     8.0000 </r>
       <r>   -37.1671     0.0000     8.0000 </r>
       <r>   -36.9199     0.0000     8.0000 </r>
       <r>   -36.6727     0.0000     8.0000 </r>
       <r>   -36.4255     0.0000     8.0000 </r>
       <r>   -36.1783     0.0000     8.0000 </r>
       <r>   -35.9312     0.0000     8.0000 </r>
       <r>   -35.6840     0.0000     8.0000 </r>
       <r>   -35.4368     0.0000     8.0000 </r>
       <r>   -35.1896     0.0000     8.0000 </r>
       <r>   -34.9424     0.0000     8.0000 </r>
       <r>   -34.6952     0.0000     8.0000 </r>
       <r>   -34.4480     0.0000     8.0000 </r>
       <r>   -34.2009     0.0000     8.0000 </r>
       <r>   -33.9537     0.0000     8.0000 </r>
       <r>   -33.7065     0.0000     8.0000 </r>
       <r>   -33.4593     0.0000     8.0000 </r>
       <r>   -33.2121     0.0000     8.0000 </r>
       <r>   -32.9649     0.0000     8.0000 </r>
       <r>   -32.7177     0.0000     8.0000 </r>
       <r>   -32.4706     0.0000     8.0000 </r>
       <r>   -32.2234     0.0000     8.0000 </r>
       <r>   -31.9762     0.0000     8.0000 </r>
       <r>   -31.7290     0.0000     8.0000 </r>
       <r>   -31.4818     0.0000     8.0000 </r>
       <r>   -31.2346     0.0000     8.0000 </r>
       <r>   -30.9874     0.0000     8.0000 </r>
       <r>   -30.7403     0.0000     8.0000 </r>
       <r>   -30.4931     0.0000     8.0000 </r>
       <r>   -30.2459     0.0000     8.0000 </r>
       <r>   -29.9987     0.0000     8.0000 </r>
       <r>   -29.7515     0.0000     8.0000 </r>
       <r>   -29.5043     0.0000     8.0000 </r>
       <r>   -29.2572     0.0000     8.0000 </r>
       <r>   -29.0100     0.0000     8.0000 </r>
       <r>   -28.7628     0.0000     8.0000 </r>
       <r>   -28.5156     0.0000     8.0000 </r>
       <r>   -28.2684    38.3038    17.4681 </r>
       <r>   -28.0212    21.8108    25.3913 </r>
       <r>   -27.7740     0.0000    32.0000 </r>
       <r>   -27.5269     0.0000    32.0000 </r>
       <r>   -27.2797     0.0000    32.0000 </r>
       <r>   -27.0325     0.0000    32.0000 </r>
       <r>   -26.7853     0.0000    32.0000 </r>
       <r>   -26.5381     0.0000    32.0000 </r>
       <r>   -26.2909     0.0000    32.0000 </r>
       <r>   -26.0437     0.0000    32.0000 </r>
       <r>   -25.7966     0.0000    32.0000 </r>
       <r>   -25.5494     0.0000    32.0000 </r>
       <r>   -25.3022     0.0000    32.0000 </r>
       <r>   -25.0550     0.0000    32.0000 </r>
       <r>   -24.8078     0.0000    32.0000 </r>
       <r>   -24.5606     0.0000    32.0000 </r>
       <r>   -24.3134     0.0000    32.0000 </r>
       <r>   -24.0663     0.0000    32.0000 </r>
       <r>   -23.8191     0.0000    32.0000 </r>
       <r>   -23.5719     0.0000    32.0000 </r>
       <r>   -23.3247     0.0000    32.0000 </r>
       <r>   -23.0775     0.0000    32.0000 </r>
       <r>   -22.8303     0.0000    32.0000 </r>
       <r>   -22.5831     0.0000    32.0000 </r>
       <r>   -22.3360     0.0000    32.0000 </r>
       <r>   -22.0888     0.0000    32.0000 </r>
       <r>   -21.8416     0.0000    32.0000 </r>
       <r>   -21.5944     0.0000    32.0000 </r>
       <r>   -21.3472     0.0000    32.0000 </r>
       <r>   -21.1000     0.0000    32.0000 </r>
       <r>   -20.8529     0.0000    32.0000 </r>
       <r>   -20.6057     0.0000    32.0000 </r>
       <r>   -20.3585     0.0000    32.0000 </r>
       <r>   -20.1113     0.0000    32.0000 </r>
       <r>   -19.8641     0.0000    32.0000 </r>
       <r>   -19.6169     0.0000    32.0000 </r>
       <r>   -19.3697     0.0000    32.0000 </r>
       <r>   -19.1226     0.0000    32.0000 </r>
       <r>   -18.8754     0.0000    32.0000 </r>
       <r>   -18.6282     0.0000    32.0000 </r>
       <r>   -18.3810     0.0000    32.0000 </r>
       <r>   -18.1338     0.0000    32.0000 </r>
       <r>   -17.8866     0.0000    32.0000 </r>
       <r>   -17.6394     0.0000    32.0000 </r>
       <r>   -17.3923     0.0000    32.0000 </r>
       <r>   -17.1451     0.0000    32.0000 </r>
       <r>   -16.8979     0.0000    32.0000 </r>
       <r>   -16.6507     0.0000    32.0000 </r>
       <r>   -16.4035     0.0000    32.0000 </r>
       <r>   -16.1563     0.0000    32.0000 </r>
       <r>   -15.9091     0.0000    32.0000 </r>
       <r>   -15.6620     0.0000    32.0000 </r>
       <r>   -15.4148     0.0000    32.0000 </r>
       <r>   -15.1676     0.0000    32.0000 </r>
       <r>   -14.9204     0.0000    32.0000 </r>
       <r>   -14.6732     0.0000    32.0000 </r>
       <r>   -14.4260     0.0000    32.0000 </r>
       <r>   -14.1789     0.0000    32.0000 </r>
       <r>   -13.9317     0.0000    32.0000 </r>
       <r>   -13.6845     0.0000    32.0000 </r>
       <r>   -13.4373     0.0000    32.0000 </r>
       <r>   -13.1901     0.0000    32.0000 </r>
       <r>   -12.9429     0.0000    32.0000 </r>
       <r>   -12.6957     0.0000    32.0000 </r>
       <r>   -12.4486     0.0000    32.0000 </r>
       <r>   -12.2014     0.0000    32.0000 </r>
       <r>   -11.9542     0.0000    32.0000 </r>
       <r>   -11.7070     0.0000    32.0000 </r>
       <r>   -11.4598     0.0000    32.0000 </r>
       <r>   -11.2126     0.0000    32.0000 </r>
       <r>   -10.9654     0.0000    32.0000 </r>
       <r>   -10.7183     0.0000    32.0000 </r>
       <r>   -10.4711     0.0000    32.0000 </r>
       <r>   -10.2239     0.0000    32.0000 </r>
       <r>    -9.9767     0.0000    32.0000 </r>
       <r>    -9.7295     0.0000    32.0000 </r>
       <r>    -9.4823     0.0000    32.0000 </r>
       <r>    -9.2351     0.0000    32.0000 </r>
       <r>    -8.9880     0.0000    32.0000 </r>
       <r>    -8.7408     0.0000    32.0000 </r>
       <r>    -8.4936     0.0000    32.0000 </r>
       <r>    -8.2464     0.0000    32.0000 </r>
       <r>    -7.9992     0.0000    32.0000 </r>
       <r>    -7.7520     0.0000    32.0000 </r>
       <r>    -7.5049     0.0000    32.0000 </r>
       <r>    -7.2577     0.0000    32.0000 </r>
       <r>    -7.0105     0.3246    32.0802 </r>
       <r>    -6.7633     0.9647    32.3493 </r>
       <r>    -6.5161     1.5986    32.7741 </r>
       <r>    -6.2689     1.9083    33.4571 </r>
       <r>    -6.0217     1.7310    34.1946 </r>
       <r>    -5.7746     1.6378    34.9413 </r>
       <r>    -5.5274     1.5474    35.5020 </r>
       <r>    -5.2802     0.6192    35.7974 </r>
       <r>    -5.0330     1.1636    36.1535 </r>
       <r>    -4.7858     0.9601    36.8496 </r>
       <r>    -4.5386     2.6855    38.1507 </r>
       <r>    -4.2914     2.3783    39.0952 </r>
       <r>    -4.0443     2.1885    39.7713 </r>
       <r>    -3.7971     1.5835    40.3914 </r>
       <r>    -3.5499     1.3343    40.9596 </r>
       <r>    -3.3027     1.7833    41.5429 </r>
       <r>    -3.0555     0.3327    41.6857 </r>
       <r>    -2.8083     1.1339    42.3269 </r>
       <r>    -2.5611     0.6949    42.6616 </r>
       <r>    -2.3140     0.6512    43.4671 </r>
       <r>    -2.0668     1.4871    43.9769 </r>
       <r>    -1.8196     1.1824    44.4614 </r>
       <r>    -1.5724     1.5221    44.8835 </r>
       <r>    -1.3252     1.4548    45.4733 </r>
       <r>    -1.0780     0.2794    45.6726 </r>
       <r>    -0.8308     1.5900    46.4397 </r>
       <r>    -0.5837     0.7874    46.7952 </r>
       <r>    -0.3365     2.1929    47.5216 </r>
       <r>    -0.0893     1.0435    48.0888 </r>
       <r>     0.1579     2.2107    48.6689 </r>
       <r>     0.4051     1.6626    49.3731 </r>
       <r>     0.6523     1.7884    50.2555 </r>
       <r>     0.8994     1.7765    50.9989 </r>
       <r>     1.1466     2.3103    51.6498 </r>
       <r>     1.3938     2.3582    52.5013 </r>
       <r>     1.6410     2.9618    53.7700 </r>
       <r>     1.8882     5.1896    55.3411 </r>
       <r>     2.1354     3.9160    56.8339 </r>
       <r>     2.3826     3.0328    57.8634 </r>
       <r>     2.6297     3.0489    59.0219 </r>
       <r>     2.8769     4.4943    60.7203 </r>
       <r>     3.1241     7.6404    63.2355 </r>
       <r>     3.3713     5.0552    65.4012 </r>
       <r>     3.6185     4.5860    67.4893 </r>
       <r>     3.8657     2.9850    68.7320 </r>
       <r>     4.1129     3.0967    69.9491 </r>
       <r>     4.3600     3.7541    71.3594 </r>
       <r>     4.6072     2.1157    72.1789 </r>
       <r>     4.8544     3.1539    73.2053 </r>
       <r>     5.1016     4.8443    74.8359 </r>
       <r>     5.3488     3.1507    76.0383 </r>
       <r>     5.5960     1.9760    76.9316 </r>
       <r>     5.8432     2.8697    78.0155 </r>
       <r>     6.0903     4.1234    79.5732 </r>
       <r>     6.3375     3.8160    81.0074 </r>
       <r>     6.5847     4.0505    82.5931 </r>
       <r>     6.8319     5.2308    84.4708 </r>
       <r>     7.0791     4.6857    86.1145 </r>
       <r>     7.3263     5.4696    88.0226 </r>
       <r>     7.5734     3.8407    89.5325 </r>
       <r>     7.8206     6.3185    91.5968 </r>
       <r>     8.0678     8.7843    94.5737 </r>
       <r>     8.3150     7.2120    97.5320 </r>
       <r>     8.5622     8.3589   100.2994 </r>
       <r>     8.8094     5.3070   102.4838 </r>
       <r>     9.0566     6.5306   105.7134 </r>
       <r>     9.3037     6.4596   107.9407 </r>
       <r>     9.5509     1.7993   108.7071 </r>
       <r>     9.7981     1.6725   109.4222 </r>
       <r>    10.0453     1.5994   110.2321 </r>
       <r>    10.2925     3.3434   111.9110 </r>
       <r>    10.5397     3.2042   112.9845 </r>
       <r>    10.7869     3.2414   114.1132 </r>
       <r>    11.0340     3.7336   115.3719 </r>
       <r>    11.2812     3.4512   116.8181 </r>
       <r>    11.5284     4.9801   118.4030 </r>
       <r>    11.7756     3.1500   119.3151 </r>
       <r>    12.0228     0.9325   119.7990 </r>
       <r>    12.2700     0.6605   119.9883 </r>
       <r>    12.5172     0.0013   119.9886 </r>
       <r>    12.7643     0.0236   120.0000 </r>
       <r>    13.0115     0.0000   120.0000 </r>
       <r>    13.2587     0.0000   120.0000 </r>
       <r>    13.5059     0.0000   120.0000 </r>
       <r>    13.7531     0.0000   120.0000 </r>
       <r>    14.0003     0.0000   120.0000 </r>
       <r>    14.2474     0.0000   120.0000 </r>
       <r>    14.4946     0.0000   120.0000 </r>
       <r>    14.7418     0.0000   120.0000 </r>
       <r>    14.9890     0.0000   120.0000 </r>
       <r>    15.2362     0.0000   120.0000 </r>
       <r>    15.4834     0.0000   120.0000 </r>
       <r>    15.7306     0.0000   120.0000 </r>
       <r>    15.9777     0.0000   120.0000 </r>
      </set>
     </set>
    </array>
   </total>
  </dos>
 </calculation>
 <structure name="finalpos" >
  <crystal>
   <varray name="basis" >
    <v>       5.96001336       0.00000000      -2.36912689 </v>
    <v>      -2.74467384       5.29041821      -2.36912689 </v>
    <v>       0.00000000       0.00000000       6.41362000 </v>
   </varray>
   <i name="volume">    202.22761627 </i>
   <varray name="rec_basis" >
    <v>       0.16778486       0.08704694       0.00000000 </v>
    <v>       0.00000000       0.18902097       0.00000000 </v>
    <v>       0.06197804       0.10197672       0.15591819 </v>
   </varray>
  </crystal>
  <varray name="positions" >
   <v>       0.31324000       0.51339000       0.82663000 </v>
   <v>       0.68676000       0.48661000       0.17337000 </v>
   <v>       0.51339000       0.68676000       0.20015000 </v>
   <v>       0.48661000       0.31324000       0.79985000 </v>
   <v>       0.18676000       0.01339000       0.20015000 </v>
   <v>       0.81324000       0.98661000       0.79985000 </v>
   <v>       0.98661000       0.18676000       0.17337000 </v>
   <v>       0.01339000       0.81324000       0.82663000 </v>
   <v>       0.25000000       0.25000000       0.00000000 </v>
   <v>       0.00000000       0.50000000       0.50000000 </v>
   <v>       0.75000000       0.75000000       0.00000000 </v>
   <v>       0.50000000       0.00000000       0.50000000 </v>
   <v>       0.24803000       0.25197000       0.50000000 </v>
   <v>       0.75197000       0.74803000       0.50000000 </v>
   <v>       0.25197000       0.75197000       0.00393000 </v>
   <v>       0.74803000       0.24803000       0.99607000 </v>
  </varray>
 </structure>
</modeling>
