 vasp.6.2.0 18Jan21 (build Jan 05 2022 15:41:44) complex                        
  
 executed on             LinuxIFC date 2025.05.07  19:46:29
 running on   24 total cores
 distrk:  each k-point on   12 cores,    2 groups
 distr:  one band on NCORE=   2 cores,    6 groups


--------------------------------------------------------------------------------------------------------


 INCAR:
   SYSTEM = routine with relax: pwdword
   ICHARG = 2
   NPAR = 6
   KPAR = 2
   NCORE = 2
   ADDGRID = T
   PREC = Acc
   ENCUT = 600
   METAGGA = R2SCAN
   LASPH = .TRUE.
   LMIXTAU = .FALSE.
   ALGO = A
   EDIFF = 1E-9
   NELM = 100
   NELMIN = 6
   IALGO = 38
   LREAL = F
   NSW = 0
   ISIF = -1
   ISMEAR = 0
   SIGMA = 0.02
   SYMPREC = 1E-4

 POTCAR:    PAW_PBE B 06Sep2000                   
 POTCAR:    PAW_PBE Mo_sv 02Feb2006               
 POTCAR:    PAW_PBE Si 05Jan2001                  
 -----------------------------------------------------------------------------
|                                                                             |
|           W    W    AA    RRRRR   N    N  II  N    N   GGGG   !!!           |
|           W    W   A  A   R    R  NN   N  II  NN   N  G    G  !!!           |
|           W    W  A    A  R    R  N N  N  II  N N  N  G       !!!           |
|           W WW W  AAAAAA  RRRRR   N  N N  II  N  N N  G  GGG   !            |
|           WW  WW  A    A  R   R   N   NN  II  N   NN  G    G                |
|           W    W  A    A  R    R  N    N  II  N    N   GGGG   !!!           |
|                                                                             |
|     For optimal performance we recommend to set                             |
|       NCORE = 2 up to number-of-cores-per-socket                            |
|     NCORE specifies how many cores store one orbital (NPAR=cpu/NCORE).      |
|     This setting can greatly improve the performance of VASP for DFT.       |
|     The default, NCORE=1 might be grossly inefficient on modern             |
|     multi-core architectures or massively parallel machines. Do your        |
|     own testing! More info at https://www.vasp.at/wiki/index.php/NCORE      |
|     Unfortunately you need to use the default for GW and RPA                |
|     calculations (for HF NCORE is supported but not extensively tested      |
|     yet).                                                                   |
|                                                                             |
 -----------------------------------------------------------------------------

 POTCAR:    PAW_PBE B 06Sep2000                   
   VRHFIN =B: s2p1                                                                                  
   LEXCH  = PE                                                                                      
   EATOM  =    71.1703 eV,    5.2309 Ry                                                             
                                                                                                    
   TITEL  = PAW_PBE B 06Sep2000                                                                     
   LULTRA =        F    use ultrasoft PP ?                                                          
   IUNSCR =        1    unscreen: 0-lin 1-nonlin 2-no                                               
   RPACOR =    1.200    partial core radius                                                         
   POMASS =   10.811; ZVAL   =    3.000    mass and valenz                                          
   RCORE  =    1.700    outmost cutoff radius                                                       
   RWIGS  =    1.710; RWIGS  =    0.905    wigner-seitz radius (au A)                               
   ENMAX  =  318.614; ENMIN  =  238.960 eV                                                          
   ICORE  =        2    local potential                                                             
   LCOR   =        T    correct aug charges                                                         
   LPAW   =        T    paw PP                                                                      
   EAUG   =  535.514                                                                                
   DEXC   =    0.000                                                                                
   RMAX   =    1.732    core radius for proj-oper                                                   
   RAUG   =    1.300    factor for augmentation sphere                                              
   RDEP   =    1.757    radius for radial grids                                                     
   RDEPT  =    1.436    core radius for aug-charge                                                  
                                                                                                    
   Atomic configuration                                                                             
    4 entries                                                                                       
     n  l   j            E        occ.                                                              
     1  0  0.50      -180.5896   2.0000                                                             
     2  0  0.50        -9.4431   2.0000                                                             
     2  1  0.50        -3.6068   1.0000                                                             
     3  2  1.50        -4.0817   0.0000                                                             
   Description                                                                                      
     l       E           TYP  RCUT    TYP  RCUT                                                     
     0     -9.4430752     23  1.500                                                                 
     0      0.8675899     23  1.500                                                                 
     1     -3.6067955     23  1.700                                                                 
     1      6.1086146     23  1.700                                                                 
     2     -4.0817478      7  1.700                                                                 
  local pseudopotential read in
  partial core-charges read in
  partial kinetic energy density read in
  atomic valenz-charges read in
  non local Contribution for L=           0  read in
    real space projection operators read in
  non local Contribution for L=           0  read in
    real space projection operators read in
  non local Contribution for L=           1  read in
    real space projection operators read in
  non local Contribution for L=           1  read in
    real space projection operators read in
    PAW grid and wavefunctions read in
 
   number of l-projection  operators is LMAX  =           4
   number of lm-projection operators is LMMAX =           8
 
 POTCAR:    PAW_PBE Mo_sv 02Feb2006               
   VRHFIN =Mo: 4p5s4d                                                                               
   LEXCH  = PE                                                                                      
   EATOM  =  1862.2866 eV,  136.8742 Ry                                                             
                                                                                                    
   TITEL  = PAW_PBE Mo_sv 02Feb2006                                                                 
   LULTRA =        F    use ultrasoft PP ?                                                          
   IUNSCR =        1    unscreen: 0-lin 1-nonlin 2-no                                               
   RPACOR =    2.200    partial core radius                                                         
   POMASS =   95.940; ZVAL   =   14.000    mass and valenz                                          
   RCORE  =    2.500    outmost cutoff radius                                                       
   RWIGS  =    2.750; RWIGS  =    1.455    wigner-seitz radius (au A)                               
   ENMAX  =  242.676; ENMIN  =  182.007 eV                                                          
   ICORE  =        3    local potential                                                             
   LCOR   =        T    correct aug charges                                                         
   LPAW   =        T    paw PP                                                                      
   EAUG   =  446.014                                                                                
   DEXC   =    0.000                                                                                
   RMAX   =    2.563    core radius for proj-oper                                                   
   RAUG   =    1.300    factor for augmentation sphere                                              
   RDEP   =    2.641    radius for radial grids                                                     
   RDEPT  =    2.031    core radius for aug-charge                                                  
                                                                                                    
   Atomic configuration                                                                             
   11 entries                                                                                       
     n  l   j            E        occ.                                                              
     1  0  0.50    -19819.0341   2.0000                                                             
     2  0  0.50     -2799.0127   2.0000                                                             
     2  1  1.50     -2502.0276   6.0000                                                             
     3  0  0.50      -476.4449   2.0000                                                             
     3  1  1.50      -379.1496   6.0000                                                             
     3  2  2.50      -220.9367  10.0000                                                             
     4  0  0.50       -64.3378   2.0000                                                             
     5  0  0.50        -4.0862   1.0000                                                             
     4  1  1.50       -38.4773   6.0000                                                             
     4  2  2.50        -3.7535   5.0000                                                             
     4  3  2.50        -1.3606   0.0000                                                             
   Description                                                                                      
     l       E           TYP  RCUT    TYP  RCUT                                                     
     0    -64.3377829     23  2.100                                                                 
     0     -4.0861640     23  2.400                                                                 
     1    -38.4772993     23  2.100                                                                 
     1     13.6058260     23  2.100                                                                 
     2     -3.7534941     23  2.400                                                                 
     2     -5.1140767     23  2.400                                                                 
     3     -4.0817478     23  2.500                                                                 
  local pseudopotential read in
  partial core-charges read in
  partial kinetic energy density read in
  atomic valenz-charges read in
  non local Contribution for L=           0  read in
    real space projection operators read in
  non local Contribution for L=           0  read in
    real space projection operators read in
  non local Contribution for L=           1  read in
    real space projection operators read in
  non local Contribution for L=           1  read in
    real space projection operators read in
  non local Contribution for L=           2  read in
    real space projection operators read in
  non local Contribution for L=           2  read in
    real space projection operators read in
    PAW grid and wavefunctions read in
 
   number of l-projection  operators is LMAX  =           6
   number of lm-projection operators is LMMAX =          18
 
 POTCAR:    PAW_PBE Si 05Jan2001                  
   VRHFIN =Si: s2p2                                                                                 
   LEXCH  = PE                                                                                      
   EATOM  =   103.0669 eV,    7.5752 Ry                                                             
                                                                                                    
   TITEL  = PAW_PBE Si 05Jan2001                                                                    
   LULTRA =        F    use ultrasoft PP ?                                                          
   IUNSCR =        1    unscreen: 0-lin 1-nonlin 2-no                                               
   RPACOR =    1.500    partial core radius                                                         
   POMASS =   28.085; ZVAL   =    4.000    mass and valenz                                          
   RCORE  =    1.900    outmost cutoff radius                                                       
   RWIGS  =    2.480; RWIGS  =    1.312    wigner-seitz radius (au A)                               
   ENMAX  =  245.345; ENMIN  =  184.009 eV                                                          
   ICORE  =        2    local potential                                                             
   LCOR   =        T    correct aug charges                                                         
   LPAW   =        T    paw PP                                                                      
   EAUG   =  322.069                                                                                
   DEXC   =    0.000                                                                                
   RMAX   =    1.950    core radius for proj-oper                                                   
   RAUG   =    1.300    factor for augmentation sphere                                              
   RDEP   =    1.993    radius for radial grids                                                     
   RDEPT  =    1.837    core radius for aug-charge                                                  
                                                                                                    
   Atomic configuration                                                                             
    6 entries                                                                                       
     n  l   j            E        occ.                                                              
     1  0  0.50     -1785.8828   2.0000                                                             
     2  0  0.50      -139.4969   2.0000                                                             
     2  1  1.50       -95.5546   6.0000                                                             
     3  0  0.50       -10.8127   2.0000                                                             
     3  1  0.50        -4.0811   2.0000                                                             
     3  2  1.50        -4.0817   0.0000                                                             
   Description                                                                                      
     l       E           TYP  RCUT    TYP  RCUT                                                     
     0    -10.8127223     23  1.900                                                                 
     0     -7.6451159     23  1.900                                                                 
     1     -4.0811372     23  1.900                                                                 
     1      2.4879257     23  1.900                                                                 
     2     -4.0817478      7  1.900                                                                 
  local pseudopotential read in
  partial core-charges read in
  partial kinetic energy density read in
  atomic valenz-charges read in
  non local Contribution for L=           0  read in
    real space projection operators read in
  non local Contribution for L=           0  read in
    real space projection operators read in
  non local Contribution for L=           1  read in
    real space projection operators read in
  non local Contribution for L=           1  read in
    real space projection operators read in
    PAW grid and wavefunctions read in
 
   number of l-projection  operators is LMAX  =           4
   number of lm-projection operators is LMMAX =           8
 
  PAW_PBE B 06Sep2000                   :
 energy of atom  1       EATOM=  -71.1703
 kinetic energy error for atom=    0.0007 (will be added to EATOM!!)
  PAW_PBE Mo_sv 02Feb2006               :
 energy of atom  2       EATOM=-1862.2866
 kinetic energy error for atom=    0.0041 (will be added to EATOM!!)
  PAW_PBE Si 05Jan2001                  :
 energy of atom  3       EATOM= -103.0669
 kinetic energy error for atom=    0.0003 (will be added to EATOM!!)
 
 
 POSCAR: EA196
  positions in direct lattice
  No initial velocities read in

 METAGGA = R2SCA    LMAXTAU =  6    LMIXTAU =  F

 exchange correlation table for  LEXCH =        8
   RHO(1)=    0.500       N(1)  =     2000
   RHO(2)=  100.500       N(2)  =     4000
 


--------------------------------------------------------------------------------------------------------


 ion  position               nearest neighbor table
   1  0.330  0.830  0.654-   4 1.06   8 1.06   5 1.50
   2  0.670  0.170  0.346-   3 1.06   7 1.06   6 1.50
   3  0.830  0.177  0.500-   2 1.06   6 1.06   7 1.50
   4  0.170  0.823  0.500-   1 1.06   5 1.06   8 1.50
   5  0.177  0.677  0.346-   4 1.06   8 1.06   1 1.50
   6  0.823  0.323  0.654-   3 1.06   7 1.06   2 1.50
   7  0.677  0.330  0.500-   2 1.06   6 1.06   3 1.50
   8  0.323  0.670  0.500-   1 1.06   5 1.06   4 1.50
   9  0.250  0.250  0.000-  10 2.53  12 2.53
  10  0.500  0.500  0.000-   9 2.53  11 2.53  16 2.53  15 2.53  13 2.53  14 2.53
  11  0.750  0.750  0.000-  10 2.53  12 2.53
  12  0.000  0.000  0.000-   9 2.53  11 2.53  15 2.53  16 2.53  13 2.53  14 2.53
  13  0.678  0.178  0.855-  10 2.53  12 2.53
  14  0.322  0.822  0.145-  10 2.53  12 2.53
  15  0.178  0.322  0.500-  10 2.53  12 2.53
  16  0.822  0.678  0.500-  12 2.53  10 2.53
 
 -----------------------------------------------------------------------------
|                                                                             |
|           W    W    AA    RRRRR   N    N  II  N    N   GGGG   !!!           |
|           W    W   A  A   R    R  NN   N  II  NN   N  G    G  !!!           |
|           W    W  A    A  R    R  N N  N  II  N N  N  G       !!!           |
|           W WW W  AAAAAA  RRRRR   N  N N  II  N  N N  G  GGG   !            |
|           WW  WW  A    A  R   R   N   NN  II  N   NN  G    G                |
|           W    W  A    A  R    R  N    N  II  N    N   GGGG   !!!           |
|                                                                             |
|     The distance between some ions is very small. Please check the          |
|     nearest-neighbor list in the OUTCAR file.                               |
|     I HOPE YOU KNOW WHAT YOU ARE DOING!                                     |
|                                                                             |
 -----------------------------------------------------------------------------

  LATTYP: Found a body centered tetragonal cell.
 ALAT       =     6.8873526688
 C/A-ratio  =     1.4668941312
  
  Lattice vectors:
  
 A1 = (   6.0008582866,   0.0000000000,  -3.6366829305)
 A2 = (  -1.9040188485,   5.6907831096,  -3.6366829305)
 A3 = (   0.0000000000,   0.0000000000,   7.0168200000)


Analysis of symmetry for initial positions (statically):
=====================================================================
 Subroutine PRICEL returns:
 Original cell was already a primitive cell.
 

 Routine SETGRP: Setting up the symmetry group for a 
 body centered tetragonal supercell.


 Subroutine GETGRP returns: Found 16 space group operations
 (whereof  8 operations were pure point group operations)
 out of a pool of 16 trial point group operations.


The static configuration has the point symmetry C_4h.
 The point group associated with its full space group is D_4h.


Analysis of symmetry for dynamics (positions and initial velocities):
=====================================================================
 Subroutine PRICEL returns:
 Original cell was already a primitive cell.
 

 Routine SETGRP: Setting up the symmetry group for a 
 body centered tetragonal supercell.


 Subroutine GETGRP returns: Found 16 space group operations
 (whereof  8 operations were pure point group operations)
 out of a pool of 16 trial point group operations.


The dynamic configuration has the point symmetry C_4h.
 The point group associated with its full space group is D_4h.


 Subroutine INISYM returns: Found 16 space group operations
 (whereof  8 operations are pure point group operations),
 and found     1 'primitive' translations


----------------------------------------------------------------------------------------

                                     Primitive cell                                     

  volume of cell :     239.6215

  direct lattice vectors                    reciprocal lattice vectors
     6.000858287  0.000000000 -3.636682930     0.166642829  0.055755259  0.000000000
    -1.904018849  5.690783110 -3.636682930     0.000000000  0.175722740  0.000000000
     0.000000000  0.000000000  7.016820000     0.086367775  0.119970597  0.142514700

  length of vectors
     7.016820000  7.016820000  7.016820000     0.175722740  0.175722740  0.205335766

  position of ions in fractional coordinates (direct lattice)
     0.330490000  0.830490000  0.653510000
     0.669510000  0.169510000  0.346490000
     0.830490000  0.176980000  0.500000000
     0.169510000  0.823020000  0.500000000
     0.176980000  0.676980000  0.346490000
     0.823020000  0.323020000  0.653510000
     0.676980000  0.330490000  0.500000000
     0.323020000  0.669510000  0.500000000
     0.250000000  0.250000000  1.000000000
     0.500000000  0.500000000  1.000000000
     0.750000000  0.750000000  1.000000000
     0.000000000  0.000000000  0.000000000
     0.677710000  0.177710000  0.855410000
     0.322290000  0.822290000  0.144590000
     0.177710000  0.322290000  0.500000000
     0.822290000  0.677710000  0.500000000

  ion indices of the primitive-cell ions
   primitive index   ion index
                 1           1
                 2           2
                 3           3
                 4           4
                 5           5
                 6           6
                 7           7
                 8           8
                 9           9
                10          10
                11          11
                12          12
                13          13
                14          14
                15          15
                16          16

----------------------------------------------------------------------------------------

 
 
 KPOINTS: EA                                      

Automatic generation of k-mesh.
 Grid dimensions read from file:
 generate k-points for:    6    6    7

 Generating k-lattice:

  Cartesian coordinates                     Fractional coordinates (reciprocal lattice)
     0.027773805  0.009292543  0.000000000     0.166666667  0.000000000  0.000000000
     0.000000000  0.029287123  0.000000000     0.000000000  0.166666667  0.000000000
     0.012338254  0.017138657  0.020359243    -0.000000000 -0.000000000  0.142857143

  Length of vectors
     0.029287123  0.029287123  0.029333681

  Shift w.r.t. Gamma in fractional coordinates (k-lattice)
     0.000000000  0.000000000  0.000000000

 -----------------------------------------------------------------------------
|                                                                             |
|           W    W    AA    RRRRR   N    N  II  N    N   GGGG   !!!           |
|           W    W   A  A   R    R  NN   N  II  NN   N  G    G  !!!           |
|           W    W  A    A  R    R  N N  N  II  N N  N  G       !!!           |
|           W WW W  AAAAAA  RRRRR   N  N N  II  N  N N  G  GGG   !            |
|           WW  WW  A    A  R   R   N   NN  II  N   NN  G    G                |
|           W    W  A    A  R    R  N    N  II  N    N   GGGG   !!!           |
|                                                                             |
|     Your reciprocal lattice and k-lattice belong to different lattice       |
|     classes:                                                                |
|                                                                             |
|        The reciprocal lattice is body-centered tetragonal,                  |
|        whereas your k-lattice is base-centered monoclinic.                  |
|                                                                             |
|     Results are often still useful ...                                      |
|                                                                             |
 -----------------------------------------------------------------------------

 WARNING: IBZKPT: internal override: KBLOWUP is changed to .FALSE.
      ... skipping the blow-up phase ...

 
 Subroutine IBZKPT returns following result:
 ===========================================
 
 Found     76 irreducible k-points:
 
 Following reciprocal coordinates:
            Coordinates               Weight
  0.000000  0.000000  0.000000      1.000000
  0.166667  0.000000  0.000000      4.000000
  0.333333 -0.000000  0.000000      4.000000
  0.500000  0.000000  0.000000      2.000000
  0.166667  0.166667  0.000000      2.000000
  0.333333  0.166667  0.000000      4.000000
  0.500000  0.166667  0.000000      4.000000
 -0.333333  0.166667  0.000000      4.000000
 -0.166667  0.166667  0.000000      2.000000
  0.333333  0.333333  0.000000      2.000000
  0.500000  0.333333  0.000000      4.000000
 -0.333333  0.333333  0.000000      2.000000
  0.500000  0.500000  0.000000      1.000000
  0.000000 -0.000000  0.142857      2.000000
  0.166667  0.000000  0.142857      4.000000
  0.333333 -0.000000  0.142857      4.000000
  0.500000 -0.000000  0.142857      4.000000
 -0.333333  0.000000  0.142857      4.000000
 -0.166667 -0.000000  0.142857      4.000000
  0.166667  0.166667  0.142857      2.000000
  0.333333  0.166667  0.142857      4.000000
  0.500000  0.166667  0.142857      4.000000
 -0.333333  0.166667  0.142857      4.000000
 -0.166667  0.166667  0.142857      4.000000
  0.333333  0.333333  0.142857      2.000000
  0.500000  0.333333  0.142857      4.000000
 -0.333333  0.333333  0.142857      4.000000
 -0.166667  0.333333  0.142857      4.000000
  0.500000  0.500000  0.142857      2.000000
 -0.333333  0.500000  0.142857      4.000000
 -0.166667  0.500000  0.142857      4.000000
 -0.333333 -0.333333  0.142857      2.000000
 -0.166667 -0.333333  0.142857      4.000000
 -0.166667 -0.166667  0.142857      2.000000
  0.000000 -0.000000  0.285714      2.000000
  0.166667 -0.000000  0.285714      4.000000
  0.333333 -0.000000  0.285714      4.000000
  0.500000 -0.000000  0.285714      4.000000
 -0.333333  0.000000  0.285714      4.000000
 -0.166667 -0.000000  0.285714      4.000000
  0.166667  0.166667  0.285714      2.000000
  0.333333  0.166667  0.285714      4.000000
  0.500000  0.166667  0.285714      4.000000
 -0.333333  0.166667  0.285714      4.000000
 -0.166667  0.166667  0.285714      4.000000
  0.333333  0.333333  0.285714      2.000000
  0.500000  0.333333  0.285714      4.000000
 -0.333333  0.333333  0.285714      4.000000
 -0.166667  0.333333  0.285714      4.000000
  0.500000  0.500000  0.285714      2.000000
 -0.333333  0.500000  0.285714      4.000000
 -0.166667  0.500000  0.285714      4.000000
 -0.333333 -0.333333  0.285714      2.000000
 -0.166667 -0.333333  0.285714      4.000000
 -0.166667 -0.166667  0.285714      2.000000
  0.000000 -0.000000  0.428571      2.000000
  0.166667 -0.000000  0.428571      4.000000
  0.333333 -0.000000  0.428571      4.000000
  0.500000 -0.000000  0.428571      4.000000
 -0.333333 -0.000000  0.428571      4.000000
 -0.166667 -0.000000  0.428571      4.000000
  0.166667  0.166667  0.428571      2.000000
  0.333333  0.166667  0.428571      4.000000
  0.500000  0.166667  0.428571      4.000000
 -0.333333  0.166667  0.428571      4.000000
 -0.166667  0.166667  0.428571      4.000000
  0.333333  0.333333  0.428571      2.000000
  0.500000  0.333333  0.428571      4.000000
 -0.333333  0.333333  0.428571      4.000000
 -0.166667  0.333333  0.428571      4.000000
  0.500000  0.500000  0.428571      2.000000
 -0.333333  0.500000  0.428571      4.000000
 -0.166667  0.500000  0.428571      4.000000
 -0.333333 -0.333333  0.428571      2.000000
 -0.166667 -0.333333  0.428571      4.000000
 -0.166667 -0.166667  0.428571      2.000000
 
 Following cartesian coordinates:
            Coordinates               Weight
  0.000000  0.000000  0.000000      1.000000
  0.027774  0.009293  0.000000      4.000000
  0.055548  0.018585  0.000000      4.000000
  0.083321  0.027878  0.000000      2.000000
  0.027774  0.038580  0.000000      2.000000
  0.055548  0.047872  0.000000      4.000000
  0.083321  0.057165  0.000000      4.000000
 -0.055548  0.010702  0.000000      4.000000
 -0.027774  0.019995  0.000000      2.000000
  0.055548  0.077159  0.000000      2.000000
  0.083321  0.086452  0.000000      4.000000
 -0.055548  0.039989  0.000000      2.000000
  0.083321  0.115739  0.000000      1.000000
  0.012338  0.017139  0.020359      2.000000
  0.040112  0.026431  0.020359      4.000000
  0.067886  0.035724  0.020359      4.000000
  0.095660  0.045016  0.020359      4.000000
 -0.043209 -0.001446  0.020359      4.000000
 -0.015436  0.007846  0.020359      4.000000
  0.040112  0.055718  0.020359      2.000000
  0.067886  0.065011  0.020359      4.000000
  0.095660  0.074303  0.020359      4.000000
 -0.043209  0.027841  0.020359      4.000000
 -0.015436  0.037133  0.020359      4.000000
  0.067886  0.094298  0.020359      2.000000
  0.095660  0.103591  0.020359      4.000000
 -0.043209  0.057128  0.020359      4.000000
 -0.015436  0.066420  0.020359      4.000000
  0.095660  0.132878  0.020359      2.000000
 -0.043209  0.086415  0.020359      4.000000
 -0.015436  0.095707  0.020359      4.000000
 -0.043209 -0.060021  0.020359      2.000000
 -0.015436 -0.050728  0.020359      4.000000
 -0.015436 -0.021441  0.020359      2.000000
  0.024677  0.034277  0.040718      2.000000
  0.052450  0.043570  0.040718      4.000000
  0.080224  0.052862  0.040718      4.000000
  0.107998  0.062155  0.040718      4.000000
 -0.030871  0.015692  0.040718      4.000000
 -0.003097  0.024985  0.040718      4.000000
  0.052450  0.072857  0.040718      2.000000
  0.080224  0.082150  0.040718      4.000000
  0.107998  0.091442  0.040718      4.000000
 -0.030871  0.044979  0.040718      4.000000
 -0.003097  0.054272  0.040718      4.000000
  0.080224  0.111437  0.040718      2.000000
  0.107998  0.120729  0.040718      4.000000
 -0.030871  0.074266  0.040718      4.000000
 -0.003097  0.083559  0.040718      4.000000
  0.107998  0.150016  0.040718      2.000000
 -0.030871  0.103554  0.040718      4.000000
 -0.003097  0.112846  0.040718      4.000000
 -0.030871 -0.042882  0.040718      2.000000
 -0.003097 -0.033589  0.040718      4.000000
 -0.003097 -0.004302  0.040718      2.000000
  0.037015  0.051416  0.061078      2.000000
  0.064789  0.060709  0.061078      4.000000
  0.092562  0.070001  0.061078      4.000000
  0.120336  0.079294  0.061078      4.000000
 -0.018533  0.032831  0.061078      4.000000
  0.009241  0.042123  0.061078      4.000000
  0.064789  0.089996  0.061078      2.000000
  0.092562  0.099288  0.061078      4.000000
  0.120336  0.108581  0.061078      4.000000
 -0.018533  0.062118  0.061078      4.000000
  0.009241  0.071411  0.061078      4.000000
  0.092562  0.128575  0.061078      2.000000
  0.120336  0.137868  0.061078      4.000000
 -0.018533  0.091405  0.061078      4.000000
  0.009241  0.100698  0.061078      4.000000
  0.120336  0.167155  0.061078      2.000000
 -0.018533  0.120692  0.061078      4.000000
  0.009241  0.129985  0.061078      4.000000
 -0.018533 -0.025743  0.061078      2.000000
  0.009241 -0.016451  0.061078      4.000000
  0.009241  0.012836  0.061078      2.000000
 


--------------------------------------------------------------------------------------------------------




 Dimension of arrays:
   k-points           NKPTS =     76   k-points in BZ     NKDIM =     76   number of bands    NBANDS=     60
   number of dos      NEDOS =    301   number of ions     NIONS =     16
   non local maximal  LDIM  =      6   non local SUM 2l+1 LMDIM =     18
   total plane-waves  NPLWV = 175616
   max r-space proj   IRMAX =      1   max aug-charges    IRDMAX= 256573
   dimension x,y,z NGX =    56 NGY =   56 NGZ =   56
   dimension x,y,z NGXF=   112 NGYF=  112 NGZF=  112
   support grid    NGXF=   224 NGYF=  224 NGZF=  224
   ions per type =               8   4   4
   NGX,Y,Z   is equivalent  to a cutoff of  13.27, 13.27, 13.27 a.u.
   NGXF,Y,Z  is equivalent  to a cutoff of  26.54, 26.54, 26.54 a.u.

 SYSTEM =  routine with relax: pwdword             
 POSCAR =  EA196                                   

 Startparameter for this run:
   NWRITE =      2    write-flag & timer
   PREC   = acc       normal or accurate (medium, high low for compatibility)
   ISTART =      0    job   : 0-new  1-cont  2-samecut
   ICHARG =      2    charge: 1-file 2-atom 10-const
   ISPIN  =      1    spin polarized calculation?
   LNONCOLLINEAR =      F non collinear calculations
   LSORBIT =      F    spin-orbit coupling
   INIWAV =      1    electr: 0-lowe 1-rand  2-diag
   LASPH  =      T    aspherical Exc in radial PAW
   METAGGA=      F    non-selfconsistent MetaGGA calc.

 Electronic Relaxation 1
   ENCUT  =  600.0 eV  44.10 Ry    6.64 a.u.  14.01 14.01 14.01*2*pi/ulx,y,z
   ENINI  =  600.0     initial cutoff
   ENAUG  =  535.5 eV  augmentation charge cutoff
   NELM   =    100;   NELMIN=  6; NELMDL= -5     # of ELM steps 
   EDIFF  = 0.1E-08   stopping-criterion for ELM
   LREAL  =      F    real-space projection
   NLSPLINE    = F    spline interpolate recip. space projectors
   LCOMPAT=      F    compatible to vasp.4.4
   GGA_COMPAT  = T    GGA compatible to vasp.4.4-vasp.4.6
   LMAXPAW     = -100 max onsite density
   LMAXMIX     =    2 max onsite mixed and CHGCAR
   VOSKOWN=      0    Vosko Wilk Nusair interpolation
   ROPT   =    0.00000   0.00000   0.00000
 Ionic relaxation
   EDIFFG = 0.1E-07   stopping-criterion for IOM
   NSW    =      0    number of steps for IOM
   NBLOCK =      1;   KBLOCK =      1    inner block; outer block 
   IBRION =     -1    ionic relax: 0-MD 1-quasi-New 2-CG
   NFREE  =      0    steps in history (QN), initial steepest desc. (CG)
   ISIF   =     -1    stress and relaxation
   IWAVPR =     10    prediction:  0-non 1-charg 2-wave 3-comb
   ISYM   =      2    0-nonsym 1-usesym 2-fastsym
   LCORR  =      T    Harris-Foulkes like correction to forces

   POTIM  = 0.5000    time-step for ionic-motion
   TEIN   =    0.0    initial temperature
   TEBEG  =    0.0;   TEEND  =   0.0 temperature during run
   SMASS  =  -3.00    Nose mass-parameter (am)
   estimated Nose-frequenzy (Omega)   =  0.10E-29 period in steps = 0.13E+47 mass=  -0.113E-26a.u.
   SCALEE = 1.0000    scale energy and forces
   NPACO  =    256;   APACO  = 16.0  distance and # of slots for P.C.
   PSTRESS=    0.0 pullay stress

  Mass of Ions in am
   POMASS =  10.81 95.94 28.09
  Ionic Valenz
   ZVAL   =   3.00 14.00  4.00
  Atomic Wigner-Seitz radii
   RWIGS  =  -1.00 -1.00 -1.00
  virtual crystal weights 
   VCA    =   1.00  1.00  1.00
   NELECT =      96.0000    total number of electrons
   NUPDOWN=      -1.0000    fix difference up-down

 DOS related values:
   EMIN   =  10.00;   EMAX   =-10.00  energy-range for DOS
   EFERMI =   0.00
   ISMEAR =     0;   SIGMA  =   0.02  broadening in eV -4-tet -1-fermi 0-gaus

 Electronic relaxation 2 (details)
   IALGO  =     58    algorithm
   LDIAG  =      T    sub-space diagonalisation (order eigenvalues)
   LSUBROT=      F    optimize rotation matrix (better conditioning)
   TURBO    =      0    0=normal 1=particle mesh
   IRESTART =      0    0=no restart 2=restart with 2 vectors
   NREBOOT  =      0    no. of reboots
   NMIN     =      0    reboot dimension
   EREF     =   0.00    reference energy to select bands
   IMIX   =      4    mixing-type and parameters
     AMIX     =   0.40;   BMIX     =  1.00
     AMIX_MAG =   1.60;   BMIX_MAG =  1.00
     AMIN     =   0.10
     WC   =   100.;   INIMIX=   1;  MIXPRE=   1;  MAXMIX= -45

 Intra band minimization:
   WEIMIN = 0.0000     energy-eigenvalue tresh-hold
   EBREAK =  0.42E-11  absolut break condition
   DEPER  =   0.30     relativ break condition  

   TIME   =   0.40     timestep for ELM

  volume/ion in A,a.u.               =      14.98       101.07
  Fermi-wavevector in a.u.,A,eV,Ry     =   1.206859  2.280633 19.817015  1.456510
  Thomas-Fermi vector in A             =   2.342514
 
 Write flags
   LWAVE        =      T    write WAVECAR
   LDOWNSAMPLE  =      F    k-point downsampling of WAVECAR
   LCHARG       =      T    write CHGCAR
   LVTOT        =      F    write LOCPOT, total local potential
   LVHAR        =      F    write LOCPOT, Hartree potential only
   LELF         =      F    write electronic localiz. function (ELF)
   LORBIT       =      0    0 simple, 1 ext, 2 COOP (PROOUT), +10 PAW based schemes


 Dipole corrections
   LMONO  =      F    monopole corrections only (constant potential shift)
   LDIPOL =      F    correct potential (dipole corrections)
   IDIPOL =      0    1-x, 2-y, 3-z, 4-all directions 
   EPSILON=  1.0000000 bulk dielectric constant

 Exchange correlation treatment:
   GGA     =    --    GGA type
   LEXCH   =     8    internal setting for exchange type
   VOSKOWN=      0    Vosko Wilk Nusair interpolation
   LHFCALC =     F    Hartree Fock is set to
   LHFONE  =     F    Hartree Fock one center treatment
   AEXX    =    0.0000 exact exchange contribution

 Linear response parameters
   LEPSILON=     F    determine dielectric tensor
   LRPA    =     F    only Hartree local field effects (RPA)
   LNABLA  =     F    use nabla operator in PAW spheres
   LVEL    =     F    velocity operator in full k-point grid
   LINTERFAST=   F  fast interpolation
   KINTER  =     0    interpolate to denser k-point grid
   CSHIFT  =0.1000    complex shift for real part using Kramers Kronig
   OMEGAMAX=  -1.0    maximum frequency
   DEG_THRESHOLD= 0.2000000E-02 threshold for treating states as degnerate
   RTIME   =   -0.100 relaxation time in fs
  (WPLASMAI=    0.000 imaginary part of plasma frequency in eV, 0.658/RTIME)
   DFIELD  = 0.0000000 0.0000000 0.0000000 field for delta impulse in time
 
 Orbital magnetization related:
   ORBITALMAG=     F  switch on orbital magnetization
   LCHIMAG   =     F  perturbation theory with respect to B field
   DQ        =  0.001000  dq finite difference perturbation B field
   LLRAUG    =     F  two centre corrections for induced B field



--------------------------------------------------------------------------------------------------------


 Static calculation
 charge density and potential will be updated during run
 non-spin polarized calculation
 Conjugate gradient for all bands (Freysoldt, et al. PRB 79, 241103 (2009))
 preconditioned conjugated gradient                                        
 perform sub-space diagonalisation
    before iterative eigenvector-optimisation
 modified Broyden-mixing scheme, WC =      100.0
 initial mixing is a Kerker type mixing with AMIX =  0.4000 and BMIX =      1.0000
 Hartree-type preconditioning will be used
 using additional bands           12
 reciprocal scheme for non local part
 use partial core corrections
 no Harris-corrections to forces 
 use gradient corrections 
 use of overlap-Matrix (Vanderbilt PP)
 Gauss-broadening in eV      SIGMA  =   0.02


--------------------------------------------------------------------------------------------------------


  energy-cutoff  :      600.00
  volume of cell :      239.62
      direct lattice vectors                 reciprocal lattice vectors
     6.000858287  0.000000000 -3.636682930     0.166642829  0.055755259  0.000000000
    -1.904018849  5.690783110 -3.636682930     0.000000000  0.175722740  0.000000000
     0.000000000  0.000000000  7.016820000     0.086367775  0.119970597  0.142514700

  length of vectors
     7.016820000  7.016820000  7.016820000     0.175722740  0.175722740  0.205335766


 
 k-points in units of 2pi/SCALE and weight: EA                                      
   0.00000000  0.00000000  0.00000000       0.004
   0.02777380  0.00929254  0.00000000       0.016
   0.05554761  0.01858509  0.00000000       0.016
   0.08332141  0.02787763  0.00000000       0.008
   0.02777380  0.03857967  0.00000000       0.008
   0.05554761  0.04787221  0.00000000       0.016
   0.08332141  0.05716475  0.00000000       0.016
  -0.05554761  0.01070204  0.00000000       0.016
  -0.02777380  0.01999458  0.00000000       0.008
   0.05554761  0.07715933  0.00000000       0.008
   0.08332141  0.08645188  0.00000000       0.016
  -0.05554761  0.03998916  0.00000000       0.008
   0.08332141  0.11573900  0.00000000       0.004
   0.01233825  0.01713866  0.02035924       0.008
   0.04011206  0.02643120  0.02035924       0.016
   0.06788586  0.03572374  0.02035924       0.016
   0.09565967  0.04501629  0.02035924       0.016
  -0.04320936 -0.00144643  0.02035924       0.016
  -0.01543555  0.00784611  0.02035924       0.016
   0.04011206  0.05571832  0.02035924       0.008
   0.06788586  0.06501087  0.02035924       0.016
   0.09565967  0.07430341  0.02035924       0.016
  -0.04320936  0.02784069  0.02035924       0.016
  -0.01543555  0.03713324  0.02035924       0.016
   0.06788586  0.09429799  0.02035924       0.008
   0.09565967  0.10359053  0.02035924       0.016
  -0.04320936  0.05712782  0.02035924       0.016
  -0.01543555  0.06642036  0.02035924       0.016
   0.09565967  0.13287766  0.02035924       0.008
  -0.04320936  0.08641494  0.02035924       0.016
  -0.01543555  0.09570748  0.02035924       0.016
  -0.04320936 -0.06002068  0.02035924       0.008
  -0.01543555 -0.05072813  0.02035924       0.016
  -0.01543555 -0.02144101  0.02035924       0.008
   0.02467651  0.03427731  0.04071849       0.008
   0.05245031  0.04356986  0.04071849       0.016
   0.08022412  0.05286240  0.04071849       0.016
   0.10799792  0.06215494  0.04071849       0.016
  -0.03087110  0.01569223  0.04071849       0.016
  -0.00309730  0.02498477  0.04071849       0.016
   0.05245031  0.07285698  0.04071849       0.008
   0.08022412  0.08214952  0.04071849       0.016
   0.10799792  0.09144207  0.04071849       0.016
  -0.03087110  0.04497935  0.04071849       0.016
  -0.00309730  0.05427189  0.04071849       0.016
   0.08022412  0.11143665  0.04071849       0.008
   0.10799792  0.12072919  0.04071849       0.016
  -0.03087110  0.07426647  0.04071849       0.016
  -0.00309730  0.08355902  0.04071849       0.016
   0.10799792  0.15001631  0.04071849       0.008
  -0.03087110  0.10355360  0.04071849       0.016
  -0.00309730  0.11284614  0.04071849       0.016
  -0.03087110 -0.04288202  0.04071849       0.008
  -0.00309730 -0.03358948  0.04071849       0.016
  -0.00309730 -0.00430235  0.04071849       0.008
   0.03701476  0.05141597  0.06107773       0.008
   0.06478857  0.06070851  0.06107773       0.016
   0.09256237  0.07000106  0.06107773       0.016
   0.12033618  0.07929360  0.06107773       0.016
  -0.01853285  0.03283088  0.06107773       0.016
   0.00924096  0.04212343  0.06107773       0.016
   0.06478857  0.08999564  0.06107773       0.008
   0.09256237  0.09928818  0.06107773       0.016
   0.12033618  0.10858072  0.06107773       0.016
  -0.01853285  0.06211801  0.06107773       0.016
   0.00924096  0.07141055  0.06107773       0.016
   0.09256237  0.12857530  0.06107773       0.008
   0.12033618  0.13786785  0.06107773       0.016
  -0.01853285  0.09140513  0.06107773       0.016
   0.00924096  0.10069767  0.06107773       0.016
   0.12033618  0.16715497  0.06107773       0.008
  -0.01853285  0.12069225  0.06107773       0.016
   0.00924096  0.12998480  0.06107773       0.016
  -0.01853285 -0.02574336  0.06107773       0.008
   0.00924096 -0.01645082  0.06107773       0.016
   0.00924096  0.01283630  0.06107773       0.008
 
 k-points in reciprocal lattice and weights: EA                                      
   0.00000000  0.00000000  0.00000000       0.004
   0.16666667  0.00000000  0.00000000       0.016
   0.33333333 -0.00000000  0.00000000       0.016
   0.50000000  0.00000000  0.00000000       0.008
   0.16666667  0.16666667  0.00000000       0.008
   0.33333333  0.16666667  0.00000000       0.016
   0.50000000  0.16666667  0.00000000       0.016
  -0.33333333  0.16666667  0.00000000       0.016
  -0.16666667  0.16666667  0.00000000       0.008
   0.33333333  0.33333333  0.00000000       0.008
   0.50000000  0.33333333  0.00000000       0.016
  -0.33333333  0.33333333  0.00000000       0.008
   0.50000000  0.50000000  0.00000000       0.004
   0.00000000 -0.00000000  0.14285714       0.008
   0.16666667  0.00000000  0.14285714       0.016
   0.33333333 -0.00000000  0.14285714       0.016
   0.50000000 -0.00000000  0.14285714       0.016
  -0.33333333  0.00000000  0.14285714       0.016
  -0.16666667 -0.00000000  0.14285714       0.016
   0.16666667  0.16666667  0.14285714       0.008
   0.33333333  0.16666667  0.14285714       0.016
   0.50000000  0.16666667  0.14285714       0.016
  -0.33333333  0.16666667  0.14285714       0.016
  -0.16666667  0.16666667  0.14285714       0.016
   0.33333333  0.33333333  0.14285714       0.008
   0.50000000  0.33333333  0.14285714       0.016
  -0.33333333  0.33333333  0.14285714       0.016
  -0.16666667  0.33333333  0.14285714       0.016
   0.50000000  0.50000000  0.14285714       0.008
  -0.33333333  0.50000000  0.14285714       0.016
  -0.16666667  0.50000000  0.14285714       0.016
  -0.33333333 -0.33333333  0.14285714       0.008
  -0.16666667 -0.33333333  0.14285714       0.016
  -0.16666667 -0.16666667  0.14285714       0.008
   0.00000000 -0.00000000  0.28571429       0.008
   0.16666667 -0.00000000  0.28571429       0.016
   0.33333333 -0.00000000  0.28571429       0.016
   0.50000000 -0.00000000  0.28571429       0.016
  -0.33333333  0.00000000  0.28571429       0.016
  -0.16666667 -0.00000000  0.28571429       0.016
   0.16666667  0.16666667  0.28571429       0.008
   0.33333333  0.16666667  0.28571429       0.016
   0.50000000  0.16666667  0.28571429       0.016
  -0.33333333  0.16666667  0.28571429       0.016
  -0.16666667  0.16666667  0.28571429       0.016
   0.33333333  0.33333333  0.28571429       0.008
   0.50000000  0.33333333  0.28571429       0.016
  -0.33333333  0.33333333  0.28571429       0.016
  -0.16666667  0.33333333  0.28571429       0.016
   0.50000000  0.50000000  0.28571429       0.008
  -0.33333333  0.50000000  0.28571429       0.016
  -0.16666667  0.50000000  0.28571429       0.016
  -0.33333333 -0.33333333  0.28571429       0.008
  -0.16666667 -0.33333333  0.28571429       0.016
  -0.16666667 -0.16666667  0.28571429       0.008
   0.00000000 -0.00000000  0.42857143       0.008
   0.16666667 -0.00000000  0.42857143       0.016
   0.33333333 -0.00000000  0.42857143       0.016
   0.50000000 -0.00000000  0.42857143       0.016
  -0.33333333 -0.00000000  0.42857143       0.016
  -0.16666667 -0.00000000  0.42857143       0.016
   0.16666667  0.16666667  0.42857143       0.008
   0.33333333  0.16666667  0.42857143       0.016
   0.50000000  0.16666667  0.42857143       0.016
  -0.33333333  0.16666667  0.42857143       0.016
  -0.16666667  0.16666667  0.42857143       0.016
   0.33333333  0.33333333  0.42857143       0.008
   0.50000000  0.33333333  0.42857143       0.016
  -0.33333333  0.33333333  0.42857143       0.016
  -0.16666667  0.33333333  0.42857143       0.016
   0.50000000  0.50000000  0.42857143       0.008
  -0.33333333  0.50000000  0.42857143       0.016
  -0.16666667  0.50000000  0.42857143       0.016
  -0.33333333 -0.33333333  0.42857143       0.008
  -0.16666667 -0.33333333  0.42857143       0.016
  -0.16666667 -0.16666667  0.42857143       0.008
 
 position of ions in fractional coordinates (direct lattice) 
   0.33049000  0.83049000  0.65351000
   0.66951000  0.16951000  0.34649000
   0.83049000  0.17698000  0.50000000
   0.16951000  0.82302000  0.50000000
   0.17698000  0.67698000  0.34649000
   0.82302000  0.32302000  0.65351000
   0.67698000  0.33049000  0.50000000
   0.32302000  0.66951000  0.50000000
   0.25000000  0.25000000  0.00000000
   0.50000000  0.50000000  0.00000000
   0.75000000  0.75000000  0.00000000
   0.00000000  0.00000000  0.00000000
   0.67771000  0.17771000  0.85541000
   0.32229000  0.82229000  0.14459000
   0.17771000  0.32229000  0.50000000
   0.82229000  0.67771000  0.50000000
 
 position of ions in cartesian coordinates  (Angst):
   0.40195504  4.72613846  0.36344589
   3.69488440  0.96464464 -0.61999175
   4.64667954  1.00715479 -0.15543895
  -0.54984010  4.68362831 -0.10110691
  -0.22695078  3.85254635 -0.67432379
   4.32379022  1.83823676  0.41777793
   3.43320185  1.88074691 -0.15543895
   0.66363758  3.81003620 -0.10110691
   1.02420986  1.42269578 -1.81834147
   2.04841972  2.84539155 -3.63668293
   3.07262958  4.26808733 -5.45502440
   0.00000000  0.00000000  0.00000000
   3.72847848  1.01130907  2.89136668
   0.36836096  4.67947404 -3.14791254
   0.45276629  1.83408249  1.69006853
   3.64407315  3.85670062 -1.94661440
 


--------------------------------------------------------------------------------------------------------


 k-point   1 :   0.0000 0.0000 0.0000  plane waves:    7969
 k-point   2 :   0.1667 0.0000 0.0000  plane waves:    7973
 k-point   3 :   0.3333-0.0000 0.0000  plane waves:    7987
 k-point   4 :   0.5000 0.0000 0.0000  plane waves:    7990
 k-point   5 :   0.1667 0.1667 0.0000  plane waves:    7981
 k-point   6 :   0.3333 0.1667 0.0000  plane waves:    8003
 k-point   7 :   0.5000 0.1667 0.0000  plane waves:    7996
 k-point   8 :  -0.3333 0.1667 0.0000  plane waves:    7994
 k-point   9 :  -0.1667 0.1667 0.0000  plane waves:    7973
 k-point  10 :   0.3333 0.3333 0.0000  plane waves:    7981
 k-point  11 :   0.5000 0.3333 0.0000  plane waves:    7999
 k-point  12 :  -0.3333 0.3333 0.0000  plane waves:    7990
 k-point  13 :   0.5000 0.5000 0.0000  plane waves:    8004
 k-point  14 :   0.0000-0.0000 0.1429  plane waves:    7973
 k-point  15 :   0.1667 0.0000 0.1429  plane waves:    7989
 k-point  16 :   0.3333-0.0000 0.1429  plane waves:    7993
 k-point  17 :   0.5000-0.0000 0.1429  plane waves:    7998
 k-point  18 :  -0.3333 0.0000 0.1429  plane waves:    7983
 k-point  19 :  -0.1667-0.0000 0.1429  plane waves:    7970
 k-point  20 :   0.1667 0.1667 0.1429  plane waves:    7994
 k-point  21 :   0.3333 0.1667 0.1429  plane waves:    7992
 k-point  22 :   0.5000 0.1667 0.1429  plane waves:    8006
 k-point  23 :  -0.3333 0.1667 0.1429  plane waves:    7992
 k-point  24 :  -0.1667 0.1667 0.1429  plane waves:    8010
 k-point  25 :   0.3333 0.3333 0.1429  plane waves:    8025
 k-point  26 :   0.5000 0.3333 0.1429  plane waves:    7995
 k-point  27 :  -0.3333 0.3333 0.1429  plane waves:    8002
 k-point  28 :  -0.1667 0.3333 0.1429  plane waves:    7997
 k-point  29 :   0.5000 0.5000 0.1429  plane waves:    7986
 k-point  30 :  -0.3333 0.5000 0.1429  plane waves:    7989
 k-point  31 :  -0.1667 0.5000 0.1429  plane waves:    8006
 k-point  32 :  -0.3333-0.3333 0.1429  plane waves:    8002
 k-point  33 :  -0.1667-0.3333 0.1429  plane waves:    7996
 k-point  34 :  -0.1667-0.1667 0.1429  plane waves:    7989
 k-point  35 :   0.0000-0.0000 0.2857  plane waves:    7992
 k-point  36 :   0.1667-0.0000 0.2857  plane waves:    7990
 k-point  37 :   0.3333-0.0000 0.2857  plane waves:    7993
 k-point  38 :   0.5000-0.0000 0.2857  plane waves:    7992
 k-point  39 :  -0.3333 0.0000 0.2857  plane waves:    7989
 k-point  40 :  -0.1667-0.0000 0.2857  plane waves:    7986
 k-point  41 :   0.1667 0.1667 0.2857  plane waves:    8022
 k-point  42 :   0.3333 0.1667 0.2857  plane waves:    8011
 k-point  43 :   0.5000 0.1667 0.2857  plane waves:    7994
 k-point  44 :  -0.3333 0.1667 0.2857  plane waves:    7995
 k-point  45 :  -0.1667 0.1667 0.2857  plane waves:    8006
 k-point  46 :   0.3333 0.3333 0.2857  plane waves:    8008
 k-point  47 :   0.5000 0.3333 0.2857  plane waves:    7993
 k-point  48 :  -0.3333 0.3333 0.2857  plane waves:    7990
 k-point  49 :  -0.1667 0.3333 0.2857  plane waves:    7988
 k-point  50 :   0.5000 0.5000 0.2857  plane waves:    8008
 k-point  51 :  -0.3333 0.5000 0.2857  plane waves:    8014
 k-point  52 :  -0.1667 0.5000 0.2857  plane waves:    8003
 k-point  53 :  -0.3333-0.3333 0.2857  plane waves:    8023
 k-point  54 :  -0.1667-0.3333 0.2857  plane waves:    8005
 k-point  55 :  -0.1667-0.1667 0.2857  plane waves:    7975
 k-point  56 :   0.0000-0.0000 0.4286  plane waves:    7984
 k-point  57 :   0.1667-0.0000 0.4286  plane waves:    7996
 k-point  58 :   0.3333-0.0000 0.4286  plane waves:    7997
 k-point  59 :   0.5000-0.0000 0.4286  plane waves:    7985
 k-point  60 :  -0.3333-0.0000 0.4286  plane waves:    7995
 k-point  61 :  -0.1667-0.0000 0.4286  plane waves:    7991
 k-point  62 :   0.1667 0.1667 0.4286  plane waves:    8021
 k-point  63 :   0.3333 0.1667 0.4286  plane waves:    8002
 k-point  64 :   0.5000 0.1667 0.4286  plane waves:    7988
 k-point  65 :  -0.3333 0.1667 0.4286  plane waves:    7999
 k-point  66 :  -0.1667 0.1667 0.4286  plane waves:    7994
 k-point  67 :   0.3333 0.3333 0.4286  plane waves:    7982
 k-point  68 :   0.5000 0.3333 0.4286  plane waves:    8006
 k-point  69 :  -0.3333 0.3333 0.4286  plane waves:    8020
 k-point  70 :  -0.1667 0.3333 0.4286  plane waves:    8003
 k-point  71 :   0.5000 0.5000 0.4286  plane waves:    8032
 k-point  72 :  -0.3333 0.5000 0.4286  plane waves:    8036
 k-point  73 :  -0.1667 0.5000 0.4286  plane waves:    8003
 k-point  74 :  -0.3333-0.3333 0.4286  plane waves:    8007
 k-point  75 :  -0.1667-0.3333 0.4286  plane waves:    8000
 k-point  76 :  -0.1667-0.1667 0.4286  plane waves:    7989

 maximum and minimum number of plane-waves per node :      4032     3957

 maximum number of plane-waves:      8036
 maximum index in each direction: 
   IXMAX=   14   IYMAX=   14   IZMAX=   14
   IXMIN=  -14   IYMIN=  -14   IZMIN=  -14


 parallel 3D FFT for wavefunctions:
    minimum data exchange during FFTs selected (reduces bandwidth)
 parallel 3D FFT for charge:
    minimum data exchange during FFTs selected (reduces bandwidth)


 total amount of memory used by VASP MPI-rank0   349305. kBytes
=======================================================================

   base      :      30000. kBytes
   nonl-proj :     133410. kBytes
   fftplans  :      20117. kBytes
   grid      :      15504. kBytes
   one-center:        124. kBytes
   wavefun   :     150150. kBytes
 
     INWAV:  cpu time    0.0001: real time    0.0001
 Broyden mixing: mesh for mixing (old mesh)
   NGX = 29   NGY = 29   NGZ = 29
  (NGX  =112   NGY  =112   NGZ  =112)
  gives a total of  24389 points

 initial charge density was supplied:
 charge density of overlapping atoms calculated
 number of electron      96.0000000 magnetization 
 keeping initial charge density in first step


--------------------------------------------------------------------------------------------------------


 Maximum index for augmentation-charges        22191 (set IRDMAX)


--------------------------------------------------------------------------------------------------------


 First call to EWALD:  gamma=   0.285
 Maximum number of real-space cells 3x 3x 3
 Maximum number of reciprocal cells 3x 3x 3

    FEWALD:  cpu time    0.0066: real time    0.0066


--------------------------------------- Iteration      1(   1)  ---------------------------------------


    POTLOK:  cpu time    0.2624: real time    0.2652
    SETDIJ:  cpu time    0.6526: real time    0.6591
    TRIAL :  cpu time   23.8898: real time   24.4034
    CORREC:  cpu time    0.0014: real time    0.0014
    --------------------------------------------
      LOOP:  cpu time   24.8550: real time   25.3845

 eigenvalue-minimisations  : 10032
 total energy-change (2. order) : 0.7781043E+03  (-0.5948814E+04)
 number of electron      96.0000000 magnetization 
 augmentation part       96.0000000 magnetization 

 Free energy of the ion-electron system (eV)
  ---------------------------------------------------
  alpha Z        PSCENC =       297.92974590
  Ewald energy   TEWEN  =     -5586.54803546
  -Hartree energ DENC   =     -2505.49371978
  -exchange      EXHF   =         0.00000000
  -V(xc)+E(xc)   XCENC  =       353.64099977
  PAW double counting   =      6611.66570361    -6558.23787492
  entropy T*S    EENTRO =        -0.00055526
  eigenvalues    EBANDS =      -265.60504854
  atomic energy  EATOM  =      8430.75312730
  ---------------------------------------------------
  free energy    TOTEN  =       778.10434262 eV

  energy without entropy =      778.10489788  energy(sigma->0) =      778.10462025


--------------------------------------------------------------------------------------------------------




--------------------------------------- Iteration      1(   2)  ---------------------------------------


    TRIAL :  cpu time   25.0739: real time   25.5498
    CORREC:  cpu time    0.0013: real time    0.0013
    --------------------------------------------
      LOOP:  cpu time   25.0774: real time   25.5547

 eigenvalue-minimisations  : 10908
 total energy-change (2. order) :-0.9291225E+03  (-0.8954425E+03)
 number of electron      96.0000000 magnetization 
 augmentation part       96.0000000 magnetization 

 Free energy of the ion-electron system (eV)
  ---------------------------------------------------
  alpha Z        PSCENC =       297.92974590
  Ewald energy   TEWEN  =     -5586.54803546
  -Hartree energ DENC   =     -2505.49371978
  -exchange      EXHF   =         0.00000000
  -V(xc)+E(xc)   XCENC  =       353.64099977
  PAW double counting   =      6611.66570361    -6558.23787492
  entropy T*S    EENTRO =        -0.00150508
  eigenvalues    EBANDS =     -1194.72660118
  atomic energy  EATOM  =      8430.75312730
  ---------------------------------------------------
  free energy    TOTEN  =      -151.01815984 eV

  energy without entropy =     -151.01665475  energy(sigma->0) =     -151.01740729


--------------------------------------------------------------------------------------------------------




--------------------------------------- Iteration      1(   3)  ---------------------------------------


    TRIAL :  cpu time   27.9703: real time   28.5032
    CORREC:  cpu time    0.0013: real time    0.0013
    --------------------------------------------
      LOOP:  cpu time   27.9770: real time   28.5106

 eigenvalue-minimisations  : 12120
 total energy-change (2. order) :-0.5870816E+02  (-0.5474417E+02)
 number of electron      96.0000000 magnetization 
 augmentation part       96.0000000 magnetization 

 Free energy of the ion-electron system (eV)
  ---------------------------------------------------
  alpha Z        PSCENC =       297.92974590
  Ewald energy   TEWEN  =     -5586.54803546
  -Hartree energ DENC   =     -2505.49371978
  -exchange      EXHF   =         0.00000000
  -V(xc)+E(xc)   XCENC  =       353.64099977
  PAW double counting   =      6611.66570361    -6558.23787492
  entropy T*S    EENTRO =        -0.00163100
  eigenvalues    EBANDS =     -1253.43463440
  atomic energy  EATOM  =      8430.75312730
  ---------------------------------------------------
  free energy    TOTEN  =      -209.72631897 eV

  energy without entropy =     -209.72468797  energy(sigma->0) =     -209.72550347


--------------------------------------------------------------------------------------------------------




--------------------------------------- Iteration      1(   4)  ---------------------------------------


    TRIAL :  cpu time   27.3434: real time   27.8297
    CORREC:  cpu time    0.0013: real time    0.0013
    --------------------------------------------
      LOOP:  cpu time   27.3458: real time   27.8341

 eigenvalue-minimisations  : 11760
 total energy-change (2. order) :-0.1996016E+01  (-0.1924523E+01)
 number of electron      96.0000000 magnetization 
 augmentation part       96.0000000 magnetization 

 Free energy of the ion-electron system (eV)
  ---------------------------------------------------
  alpha Z        PSCENC =       297.92974590
  Ewald energy   TEWEN  =     -5586.54803546
  -Hartree energ DENC   =     -2505.49371978
  -exchange      EXHF   =         0.00000000
  -V(xc)+E(xc)   XCENC  =       353.64099977
  PAW double counting   =      6611.66570361    -6558.23787492
  entropy T*S    EENTRO =        -0.00160506
  eigenvalues    EBANDS =     -1255.43067591
  atomic energy  EATOM  =      8430.75312730
  ---------------------------------------------------
  free energy    TOTEN  =      -211.72233455 eV

  energy without entropy =     -211.72072948  energy(sigma->0) =     -211.72153202


--------------------------------------------------------------------------------------------------------




--------------------------------------- Iteration      1(   5)  ---------------------------------------


    TRIAL :  cpu time   27.2849: real time   27.8231
    CORREC:  cpu time    0.0013: real time    0.0013
    CHARGE:  cpu time    1.7176: real time    1.7364
    --------------------------------------------
      LOOP:  cpu time   29.0050: real time   29.5638

 eigenvalue-minimisations  : 12012
 total energy-change (2. order) :-0.5137184E-01  (-0.5121714E-01)
 number of electron      96.0000000 magnetization 
 augmentation part        7.2355483 magnetization 

 Free energy of the ion-electron system (eV)
  ---------------------------------------------------
  alpha Z        PSCENC =       297.92974590
  Ewald energy   TEWEN  =     -5586.54803546
  -Hartree energ DENC   =     -2505.49371978
  -exchange      EXHF   =         0.00000000
  -V(xc)+E(xc)   XCENC  =       353.64099977
  PAW double counting   =      6611.66570361    -6558.23787492
  entropy T*S    EENTRO =        -0.00163145
  eigenvalues    EBANDS =     -1255.48202136
  atomic energy  EATOM  =      8430.75312730
  ---------------------------------------------------
  free energy    TOTEN  =      -211.77370639 eV

  energy without entropy =     -211.77207493  energy(sigma->0) =     -211.77289066


--------------------------------------------------------------------------------------------------------




--------------------------------------- Iteration      1(   6)  ---------------------------------------


    POTLOK:  cpu time    0.1873: real time    0.1885
    SETDIJ:  cpu time    0.6772: real time    0.6817
    TRIAL :  cpu time   18.5804: real time   18.8409
    CORREC:  cpu time    7.1484: real time    7.2160
    CHARGE:  cpu time    2.1650: real time    2.1818
    --------------------------------------------
      LOOP:  cpu time   28.7617: real time   29.1131

 eigenvalue-minimisations  :     0
 total energy-change (2. order) : 0.4333862E+03  (-0.3073961E+03)
 number of electron      96.0000000 magnetization 
 augmentation part       10.1570993 magnetization 

 Free energy of the ion-electron system (eV)
  ---------------------------------------------------
  alpha Z        PSCENC =       297.92974590
  Ewald energy   TEWEN  =     -5586.54803546
  -Hartree energ DENC   =     -2335.93314094
  -exchange      EXHF   =         0.00000000
  -V(xc)+E(xc)   XCENC  =       374.16748343
  PAW double counting   =     11854.76659594   -11851.03793029
  entropy T*S    EENTRO =        -0.00165491
  eigenvalues    EBANDS =      -962.48375857
  atomic energy  EATOM  =      8430.75312730
  ---------------------------------------------------
  free energy    TOTEN  =       221.61245585 eV

  energy without entropy =      221.61411076  energy(sigma->0) =      221.61328330


--------------------------------------------------------------------------------------------------------




--------------------------------------- Iteration      1(   7)  ---------------------------------------


    POTLOK:  cpu time    0.1666: real time    0.1677
    SETDIJ:  cpu time    0.6696: real time    0.6740
    TRIAL :  cpu time   19.6936: real time   19.9109
    CORREC:  cpu time    7.8742: real time    7.9446
    CHARGE:  cpu time    2.0369: real time    2.0524
    --------------------------------------------
      LOOP:  cpu time   30.4520: real time   30.7618

 eigenvalue-minimisations  :     0
 total energy-change (2. order) :-0.2971330E+03  (-0.2628056E+02)
 number of electron      95.9999999 magnetization 
 augmentation part        8.7450869 magnetization 

 Free energy of the ion-electron system (eV)
  ---------------------------------------------------
  alpha Z        PSCENC =       297.92974590
  Ewald energy   TEWEN  =     -5586.54803546
  -Hartree energ DENC   =     -2769.52808513
  -exchange      EXHF   =         0.00000000
  -V(xc)+E(xc)   XCENC  =       378.64915745
  PAW double counting   =     12963.62914062   -12920.90897757
  entropy T*S    EENTRO =        -0.00176947
  eigenvalues    EBANDS =      -869.49493914
  atomic energy  EATOM  =      8430.75312730
  ---------------------------------------------------
  free energy    TOTEN  =       -75.52052094 eV

  energy without entropy =      -75.51875147  energy(sigma->0) =      -75.51963621


--------------------------------------------------------------------------------------------------------




--------------------------------------- Iteration      1(   8)  ---------------------------------------


    POTLOK:  cpu time    0.1691: real time    0.1702
    SETDIJ:  cpu time    0.7267: real time    0.7309
    TRIAL :  cpu time   22.1590: real time   22.4013
    CORREC:  cpu time    7.8664: real time    8.0303
    CHARGE:  cpu time    1.8453: real time    1.8596
    --------------------------------------------
      LOOP:  cpu time   32.7679: real time   33.1945

 eigenvalue-minimisations  :     0
 total energy-change (2. order) :-0.2640840E+02  (-0.5545090E+01)
 number of electron      96.0000000 magnetization 
 augmentation part        8.5667655 magnetization 

 Free energy of the ion-electron system (eV)
  ---------------------------------------------------
  alpha Z        PSCENC =       297.92974590
  Ewald energy   TEWEN  =     -5586.54803546
  -Hartree energ DENC   =     -2584.32499524
  -exchange      EXHF   =         0.00000000
  -V(xc)+E(xc)   XCENC  =       369.67740443
  PAW double counting   =     13095.36538668   -13057.62918993
  entropy T*S    EENTRO =        -0.00238484
  eigenvalues    EBANDS =     -1067.15059913
  atomic energy  EATOM  =      8430.75312730
  ---------------------------------------------------
  free energy    TOTEN  =      -101.92892492 eV

  energy without entropy =     -101.92654008  energy(sigma->0) =     -101.92773250


--------------------------------------------------------------------------------------------------------




--------------------------------------- Iteration      1(   9)  ---------------------------------------


    POTLOK:  cpu time    0.2157: real time    0.2170
    SETDIJ:  cpu time    0.6286: real time    0.6323
    TRIAL :  cpu time   22.0883: real time   22.4202
    CORREC:  cpu time    6.8960: real time    6.9601
    CHARGE:  cpu time    1.7191: real time    1.7362
    --------------------------------------------
      LOOP:  cpu time   31.5487: real time   31.9679

 eigenvalue-minimisations  :     0
 total energy-change (2. order) :-0.5560575E+01  (-0.3113884E+01)
 number of electron      96.0000000 magnetization 
 augmentation part        8.8958278 magnetization 

 Free energy of the ion-electron system (eV)
  ---------------------------------------------------
  alpha Z        PSCENC =       297.92974590
  Ewald energy   TEWEN  =     -5586.54803546
  -Hartree energ DENC   =     -2492.84869117
  -exchange      EXHF   =         0.00000000
  -V(xc)+E(xc)   XCENC  =       366.83522017
  PAW double counting   =     12856.44055188   -12819.66799309
  entropy T*S    EENTRO =        -0.00222391
  eigenvalues    EBANDS =     -1160.38104026
  atomic energy  EATOM  =      8430.75312730
  ---------------------------------------------------
  free energy    TOTEN  =      -107.48949958 eV

  energy without entropy =     -107.48727567  energy(sigma->0) =     -107.48838763


--------------------------------------------------------------------------------------------------------




--------------------------------------- Iteration      1(  10)  ---------------------------------------


    POTLOK:  cpu time    0.2112: real time    0.2134
    SETDIJ:  cpu time    0.7802: real time    0.7858
    TRIAL :  cpu time   21.3065: real time   21.5463
    CORREC:  cpu time    7.0562: real time    7.1238
    CHARGE:  cpu time    1.7096: real time    1.7224
    --------------------------------------------
      LOOP:  cpu time   31.0644: real time   31.3934

 eigenvalue-minimisations  :     0
 total energy-change (2. order) :-0.3108457E+01  (-0.1291133E+01)
 number of electron      96.0000000 magnetization 
 augmentation part        8.9684204 magnetization 

 Free energy of the ion-electron system (eV)
  ---------------------------------------------------
  alpha Z        PSCENC =       297.92974590
  Ewald energy   TEWEN  =     -5586.54803546
  -Hartree energ DENC   =     -2521.57080224
  -exchange      EXHF   =         0.00000000
  -V(xc)+E(xc)   XCENC  =       368.52158949
  PAW double counting   =     12539.09789068   -12499.37139225
  entropy T*S    EENTRO =        -0.00171021
  eigenvalues    EBANDS =     -1139.40785623
  atomic energy  EATOM  =      8430.75312730
  ---------------------------------------------------
  free energy    TOTEN  =      -110.59795674 eV

  energy without entropy =     -110.59624652  energy(sigma->0) =     -110.59710163


--------------------------------------------------------------------------------------------------------




--------------------------------------- Iteration      1(  11)  ---------------------------------------


    POTLOK:  cpu time    0.1715: real time    0.1727
    SETDIJ:  cpu time    0.6714: real time    0.6756
    TRIAL :  cpu time   21.1999: real time   21.4253
    CORREC:  cpu time    7.2646: real time    7.3335
    CHARGE:  cpu time    1.7173: real time    1.7329
    --------------------------------------------
      LOOP:  cpu time   31.0310: real time   31.3468

 eigenvalue-minimisations  :     0
 total energy-change (2. order) :-0.1288981E+01  (-0.5363296E+00)
 number of electron      95.9999999 magnetization 
 augmentation part        8.8353683 magnetization 

 Free energy of the ion-electron system (eV)
  ---------------------------------------------------
  alpha Z        PSCENC =       297.92974590
  Ewald energy   TEWEN  =     -5586.54803546
  -Hartree energ DENC   =     -2555.27956998
  -exchange      EXHF   =         0.00000000
  -V(xc)+E(xc)   XCENC  =       369.59570661
  PAW double counting   =     12444.84405066   -12403.46292190
  entropy T*S    EENTRO =        -0.00138394
  eigenvalues    EBANDS =     -1109.71733048
  atomic energy  EATOM  =      8430.75312730
  ---------------------------------------------------
  free energy    TOTEN  =      -111.88693758 eV

  energy without entropy =     -111.88555364  energy(sigma->0) =     -111.88624561


--------------------------------------------------------------------------------------------------------




--------------------------------------- Iteration      1(  12)  ---------------------------------------


    POTLOK:  cpu time    0.1801: real time    0.1812
    SETDIJ:  cpu time    0.6792: real time    0.6842
    TRIAL :  cpu time   22.4599: real time   22.7709
    CORREC:  cpu time    6.8445: real time    6.9096
    CHARGE:  cpu time    2.0251: real time    2.0416
    --------------------------------------------
      LOOP:  cpu time   32.1905: real time   32.5903

 eigenvalue-minimisations  :     0
 total energy-change (2. order) :-0.5393424E+00  (-0.3123918E+00)
 number of electron      95.9999999 magnetization 
 augmentation part        8.7865135 magnetization 

 Free energy of the ion-electron system (eV)
  ---------------------------------------------------
  alpha Z        PSCENC =       297.92974590
  Ewald energy   TEWEN  =     -5586.54803546
  -Hartree energ DENC   =     -2540.40216753
  -exchange      EXHF   =         0.00000000
  -V(xc)+E(xc)   XCENC  =       368.74259886
  PAW double counting   =     12383.38804342   -12342.93069166
  entropy T*S    EENTRO =        -0.00139149
  eigenvalues    EBANDS =     -1123.35751692
  atomic energy  EATOM  =      8430.75312730
  ---------------------------------------------------
  free energy    TOTEN  =      -112.42628002 eV

  energy without entropy =     -112.42488853  energy(sigma->0) =     -112.42558428


--------------------------------------------------------------------------------------------------------




--------------------------------------- Iteration      1(  13)  ---------------------------------------


    POTLOK:  cpu time    0.1756: real time    0.1769
    SETDIJ:  cpu time    0.6749: real time    0.6797
    TRIAL :  cpu time   20.4372: real time   20.6506
    CORREC:  cpu time    7.0076: real time    7.0771
    CHARGE:  cpu time    2.1679: real time    2.1857
    --------------------------------------------
      LOOP:  cpu time   30.4642: real time   30.7719

 eigenvalue-minimisations  :     0
 total energy-change (2. order) :-0.3205515E+00  (-0.2255366E+00)
 number of electron      96.0000000 magnetization 
 augmentation part        8.8421801 magnetization 

 Free energy of the ion-electron system (eV)
  ---------------------------------------------------
  alpha Z        PSCENC =       297.92974590
  Ewald energy   TEWEN  =     -5586.54803546
  -Hartree energ DENC   =     -2527.57322396
  -exchange      EXHF   =         0.00000000
  -V(xc)+E(xc)   XCENC  =       368.18363556
  PAW double counting   =     12354.84375241   -12315.18847481
  entropy T*S    EENTRO =        -0.00094587
  eigenvalues    EBANDS =     -1135.14596700
  atomic energy  EATOM  =      8430.75312730
  ---------------------------------------------------
  free energy    TOTEN  =      -112.74683156 eV

  energy without entropy =     -112.74588569  energy(sigma->0) =     -112.74635863


--------------------------------------------------------------------------------------------------------




--------------------------------------- Iteration      1(  14)  ---------------------------------------


    POTLOK:  cpu time    0.2224: real time    0.2238
    SETDIJ:  cpu time    0.6185: real time    0.6226
    TRIAL :  cpu time   22.3370: real time   22.6586
    CORREC:  cpu time    7.3684: real time    7.4391
    CHARGE:  cpu time    1.7952: real time    1.8088
    --------------------------------------------
      LOOP:  cpu time   32.3427: real time   32.7549

 eigenvalue-minimisations  :     0
 total energy-change (2. order) :-0.2239119E+00  (-0.1402470E+00)
 number of electron      96.0000000 magnetization 
 augmentation part        8.8599644 magnetization 

 Free energy of the ion-electron system (eV)
  ---------------------------------------------------
  alpha Z        PSCENC =       297.92974590
  Ewald energy   TEWEN  =     -5586.54803546
  -Hartree energ DENC   =     -2533.65842217
  -exchange      EXHF   =         0.00000000
  -V(xc)+E(xc)   XCENC  =       368.49961934
  PAW double counting   =     12367.88286347   -12327.98668749
  entropy T*S    EENTRO =        -0.00134846
  eigenvalues    EBANDS =     -1129.84200843
  atomic energy  EATOM  =      8430.75312730
  ---------------------------------------------------
  free energy    TOTEN  =      -112.97074342 eV

  energy without entropy =     -112.96939496  energy(sigma->0) =     -112.97006919


--------------------------------------------------------------------------------------------------------




--------------------------------------- Iteration      1(  15)  ---------------------------------------


    POTLOK:  cpu time    0.2623: real time    0.2640
    SETDIJ:  cpu time    0.5398: real time    0.5439
    TRIAL :  cpu time   22.1254: real time   22.3858
    CORREC:  cpu time    6.7743: real time    6.8413
    CHARGE:  cpu time    1.8810: real time    1.8961
    --------------------------------------------
      LOOP:  cpu time   31.5893: real time   31.9389

 eigenvalue-minimisations  :     0
 total energy-change (2. order) :-0.1337824E+00  (-0.6073579E-01)
 number of electron      96.0000000 magnetization 
 augmentation part        8.8307146 magnetization 

 Free energy of the ion-electron system (eV)
  ---------------------------------------------------
  alpha Z        PSCENC =       297.92974590
  Ewald energy   TEWEN  =     -5586.54803546
  -Hartree energ DENC   =     -2538.78713679
  -exchange      EXHF   =         0.00000000
  -V(xc)+E(xc)   XCENC  =       368.74128584
  PAW double counting   =     12391.13369118   -12350.91311540
  entropy T*S    EENTRO =        -0.00201672
  eigenvalues    EBANDS =     -1125.41273995
  atomic energy  EATOM  =      8430.75312730
  ---------------------------------------------------
  free energy    TOTEN  =      -113.10452585 eV

  energy without entropy =     -113.10250913  energy(sigma->0) =     -113.10351749


--------------------------------------------------------------------------------------------------------




--------------------------------------- Iteration      1(  16)  ---------------------------------------


    POTLOK:  cpu time    0.2158: real time    0.2171
    SETDIJ:  cpu time    0.7408: real time    0.7455
    TRIAL :  cpu time   22.1061: real time   22.3248
    CORREC:  cpu time    7.3868: real time    7.4563
    CHARGE:  cpu time    1.9981: real time    2.0137
    --------------------------------------------
      LOOP:  cpu time   32.4511: real time   32.7612

 eigenvalue-minimisations  :     0
 total energy-change (2. order) :-0.5989367E-01  (-0.3125781E-01)
 number of electron      96.0000000 magnetization 
 augmentation part        8.8403646 magnetization 

 Free energy of the ion-electron system (eV)
  ---------------------------------------------------
  alpha Z        PSCENC =       297.92974590
  Ewald energy   TEWEN  =     -5586.54803546
  -Hartree energ DENC   =     -2533.52671486
  -exchange      EXHF   =         0.00000000
  -V(xc)+E(xc)   XCENC  =       368.55547221
  PAW double counting   =     12398.13855239   -12358.05753620
  entropy T*S    EENTRO =        -0.00213108
  eigenvalues    EBANDS =     -1130.40701408
  atomic energy  EATOM  =      8430.75312730
  ---------------------------------------------------
  free energy    TOTEN  =      -113.16441953 eV

  energy without entropy =     -113.16228845  energy(sigma->0) =     -113.16335399


--------------------------------------------------------------------------------------------------------
[...]
     10     -30.7554      2.00000
     11     -29.7853      2.00000
     12     -29.6343      2.00000
     13     -29.6337      2.00000
     14     -29.6241      2.00000
     15     -29.6231      2.00000
     16     -29.1623      2.00000
     17     -12.2867      2.00000
     18     -12.2792      2.00000
     19      -4.1335      2.00000
     20      -2.7499      2.00000
     21      -2.5906      2.00000
     22      -2.2799      2.00000
     23      -1.6648      2.00000
     24      -1.5300      2.00000
     25      -0.9183      2.00000
     26      -0.8135      2.00000
     27      -0.5964      2.00000
     28       0.1312      2.00000
     29       0.2320      2.00000
     30       0.5110      2.00000
     31       0.5479      2.00000
     32       1.4260      2.00000
     33       2.0847      2.00000
     34       2.3725      2.00000
     35       2.4659      2.00000
     36       2.9843      2.00000
     37       3.3412      2.00000
     38       3.4102      2.00000
     39       3.5494      2.00000
     40       3.6241      2.00000
     41       3.8461      2.00000
     42       4.8657      2.00000
     43       5.0321      2.00000
     44       5.3360      2.00000
     45       5.4322      2.00000
     46       5.5916      2.00000
     47       5.7807      2.00000
     48       5.8363      2.00000
     49       6.1388      0.00000
     50       6.2811      0.00000
     51       6.5211      0.00000
     52       6.6055      0.00000
     53       6.7326      0.00000
     54       7.1713      0.00000
     55       7.4662      0.00000
     56       7.6389      0.00000
     57       7.8920      0.00000
     58       8.3019      0.00000
     59       8.4241      0.00000
     60       8.9455      0.00000

 k-point    70 :      -0.1667    0.3333    0.4286
  band No.  band energies     occupation 
      1     -57.4569      2.00000
      2     -57.4445      2.00000
      3     -56.2301      2.00000
      4     -56.2138      2.00000
      5     -31.2709      2.00000
      6     -30.8384      2.00000
      7     -30.8376      2.00000
      8     -30.8288      2.00000
      9     -30.8282      2.00000
     10     -30.8112      2.00000
     11     -29.7241      2.00000
     12     -29.6344      2.00000
     13     -29.6326      2.00000
     14     -29.6252      2.00000
     15     -29.6230      2.00000
     16     -29.1940      2.00000
     17     -12.2863      2.00000
     18     -12.2786      2.00000
     19      -4.0003      2.00000
     20      -2.8990      2.00000
     21      -2.6668      2.00000
     22      -2.2373      2.00000
     23      -1.8489      2.00000
     24      -1.5125      2.00000
     25      -0.9124      2.00000
     26      -0.8730      2.00000
     27      -0.4795      2.00000
     28       0.2151      2.00000
     29       0.2517      2.00000
     30       0.2938      2.00000
     31       0.5430      2.00000
     32       1.5599      2.00000
     33       2.1780      2.00000
     34       2.6364      2.00000
     35       2.6670      2.00000
     36       2.8775      2.00000
     37       3.2648      2.00000
     38       3.5772      2.00000
     39       3.7098      2.00000
     40       3.8451      2.00000
     41       4.3423      2.00000
     42       4.5230      2.00000
     43       4.6886      2.00000
     44       4.8943      2.00000
     45       5.3999      2.00000
     46       5.5183      2.00000
     47       5.8063      2.00000
     48       5.8631      2.00000
     49       5.9881      0.26537
     50       6.1357      0.00000
     51       6.6169      0.00000
     52       6.6458      0.00000
     53       6.9788      0.00000
     54       7.0020      0.00000
     55       7.2877      0.00000
     56       7.5255      0.00000
     57       7.7739      0.00000
     58       8.1674      0.00000
     59       8.2628      0.00000
     60       8.6753      0.00000

 k-point    71 :       0.5000    0.5000    0.4286
  band No.  band energies     occupation 
      1     -57.4579      2.00000
      2     -57.4435      2.00000
      3     -56.2315      2.00000
      4     -56.2126      2.00000
      5     -31.2970      2.00000
      6     -30.8390      2.00000
      7     -30.8389      2.00000
      8     -30.8276      2.00000
      9     -30.8274      2.00000
     10     -30.7555      2.00000
     11     -29.7853      2.00000
     12     -29.6338      2.00000
     13     -29.6334      2.00000
     14     -29.6240      2.00000
     15     -29.6240      2.00000
     16     -29.1623      2.00000
     17     -12.2857      2.00000
     18     -12.2813      2.00000
     19      -4.2433      2.00000
     20      -2.7190      2.00000
     21      -2.3579      2.00000
     22      -2.3152      2.00000
     23      -1.6679      2.00000
     24      -1.3894      2.00000
     25      -0.8321      2.00000
     26      -0.8032      2.00000
     27      -0.7874      2.00000
     28      -0.0593      2.00000
     29       0.4787      2.00000
     30       0.5974      2.00000
     31       0.6866      2.00000
     32       1.1776      2.00000
     33       2.0240      2.00000
     34       2.2769      2.00000
     35       2.2805      2.00000
     36       2.9070      2.00000
     37       3.0955      2.00000
     38       3.2917      2.00000
     39       3.3453      2.00000
     40       3.5971      2.00000
     41       3.6400      2.00000
     42       5.0200      2.00000
     43       5.1483      2.00000
     44       5.4018      2.00000
     45       5.4093      2.00000
     46       5.7935      2.00000
     47       5.9182      1.99987
     48       6.0485      0.00000
     49       6.3455      0.00000
     50       6.3984      0.00000
     51       6.6452      0.00000
     52       6.6929      0.00000
     53       6.7945      0.00000
     54       6.9942      0.00000
     55       7.7731      0.00000
     56       8.0340      0.00000
     57       8.2031      0.00000
     58       8.5947      0.00000
     59       8.8551      0.00000
     60       9.6636      0.00000

 k-point    72 :      -0.3333    0.5000    0.4286
  band No.  band energies     occupation 
      1     -57.4569      2.00000
      2     -57.4445      2.00000
      3     -56.2302      2.00000
      4     -56.2138      2.00000
      5     -31.2708      2.00000
      6     -30.8384      2.00000
      7     -30.8381      2.00000
      8     -30.8283      2.00000
      9     -30.8282      2.00000
     10     -30.8112      2.00000
     11     -29.7241      2.00000
     12     -29.6328      2.00000
     13     -29.6327      2.00000
     14     -29.6251      2.00000
     15     -29.6246      2.00000
     16     -29.1940      2.00000
     17     -12.2848      2.00000
     18     -12.2824      2.00000
     19      -4.2084      2.00000
     20      -2.8155      2.00000
     21      -2.3470      2.00000
     22      -2.2787      2.00000
     23      -1.6011      2.00000
     24      -1.5456      2.00000
     25      -0.8606      2.00000
     26      -0.8492      2.00000
     27      -0.5468      2.00000
     28      -0.0259      2.00000
     29       0.4771      2.00000
     30       0.5034      2.00000
     31       0.5790      2.00000
     32       1.1199      2.00000
     33       2.1167      2.00000
     34       2.3940      2.00000
     35       2.4088      2.00000
     36       2.9105      2.00000
     37       3.1613      2.00000
     38       3.3263      2.00000
     39       3.3557      2.00000
     40       3.6071      2.00000
     41       3.6464      2.00000
     42       4.5028      2.00000
     43       5.0806      2.00000
     44       5.2061      2.00000
     45       5.3422      2.00000
     46       5.9136      1.99997
     47       6.1514      0.00000
     48       6.2521      0.00000
     49       6.4079      0.00000
     50       6.4947      0.00000
     51       6.6663      0.00000
     52       6.6909      0.00000
     53       6.7817      0.00000
     54       6.9913      0.00000
     55       7.6994      0.00000
     56       7.9847      0.00000
     57       8.1653      0.00000
     58       8.5563      0.00000
     59       8.9183      0.00000
     60       9.3187      0.00000

 k-point    73 :      -0.1667    0.5000    0.4286
  band No.  band energies     occupation 
      1     -57.4543      2.00000
      2     -57.4471      2.00000
      3     -56.2267      2.00000
      4     -56.2172      2.00000
      5     -31.1949      2.00000
      6     -30.9385      2.00000
      7     -30.8364      2.00000
      8     -30.8360      2.00000
      9     -30.8303      2.00000
     10     -30.8302      2.00000
     11     -29.6311      2.00000
     12     -29.6307      2.00000
     13     -29.6271      2.00000
     14     -29.6263      2.00000
     15     -29.5820      2.00000
     16     -29.2849      2.00000
     17     -12.2835      2.00000
     18     -12.2831      2.00000
     19      -4.0119      2.00000
     20      -3.0970      2.00000
     21      -2.4147      2.00000
     22      -2.2020      2.00000
     23      -1.8769      2.00000
     24      -1.4025      2.00000
     25      -0.9883      2.00000
     26      -0.8958      2.00000
     27      -0.1834      2.00000
     28       0.1100      2.00000
     29       0.2001      2.00000
     30       0.4112      2.00000
     31       0.5018      2.00000
     32       1.0358      2.00000
     33       2.4500      2.00000
     34       2.6440      2.00000
     35       2.8359      2.00000
     36       2.9933      2.00000
     37       3.3531      2.00000
     38       3.4897      2.00000
     39       3.5242      2.00000
     40       3.7577      2.00000
     41       3.8329      2.00000
     42       3.9654      2.00000
     43       4.5270      2.00000
     44       4.8635      2.00000
     45       5.2011      2.00000
     46       5.6726      2.00000
     47       6.1547      0.00000
     48       6.2281      0.00000
     49       6.3769      0.00000
     50       6.4669      0.00000
     51       6.6816      0.00000
     52       6.7349      0.00000
     53       6.9485      0.00000
     54       7.2892      0.00000
     55       7.5235      0.00000
     56       7.7051      0.00000
     57       8.0062      0.00000
     58       8.2480      0.00000
     59       8.7653      0.00000
     60       9.0808      0.00000

 k-point    74 :      -0.3333   -0.3333    0.4286
  band No.  band energies     occupation 
      1     -57.4543      2.00000
      2     -57.4471      2.00000
      3     -56.2267      2.00000
      4     -56.2172      2.00000
      5     -31.1948      2.00000
      6     -30.9386      2.00000
      7     -30.8364      2.00000
      8     -30.8364      2.00000
      9     -30.8303      2.00000
     10     -30.8300      2.00000
     11     -29.6308      2.00000
     12     -29.6302      2.00000
     13     -29.6272      2.00000
     14     -29.6270      2.00000
     15     -29.5821      2.00000
     16     -29.2849      2.00000
     17     -12.2856      2.00000
     18     -12.2821      2.00000
     19      -4.1223      2.00000
     20      -3.0100      2.00000
     21      -2.2809      2.00000
     22      -2.1976      2.00000
     23      -1.8992      2.00000
     24      -1.3282      2.00000
     25      -0.9120      2.00000
     26      -0.9089      2.00000
     27      -0.1944      2.00000
     28       0.0342      2.00000
     29       0.3341      2.00000
     30       0.3640      2.00000
     31       0.4682      2.00000
     32       0.9410      2.00000
     33       2.3521      2.00000
     34       2.6564      2.00000
     35       2.6797      2.00000
     36       2.9409      2.00000
     37       3.2114      2.00000
     38       3.3781      2.00000
     39       3.4139      2.00000
     40       3.6405      2.00000
     41       3.6926      2.00000
     42       3.7641      2.00000
     43       4.9269      2.00000
     44       4.9697      2.00000
     45       5.3071      2.00000
     46       5.8710      2.00000
     47       6.3130      0.00000
     48       6.4248      0.00000
     49       6.5319      0.00000
     50       6.5426      0.00000
     51       6.7109      0.00000
     52       6.7201      0.00000
     53       7.0302      0.00000
     54       7.0578      0.00000
     55       7.7120      0.00000
     56       7.9643      0.00000
     57       8.0623      0.00000
     58       8.4355      0.00000
     59       9.3194      0.00000
     60       9.5122      0.00000

 k-point    75 :      -0.1667   -0.3333    0.4286
  band No.  band energies     occupation 
      1     -57.4507      2.00000
      2     -57.4507      2.00000
      3     -56.2220      2.00000
      4     -56.2219      2.00000
      5     -31.0782      2.00000
      6     -31.0780      2.00000
      7     -30.8337      2.00000
      8     -30.8336      2.00000
      9     -30.8331      2.00000
     10     -30.8326      2.00000
     11     -29.6303      2.00000
     12     -29.6296      2.00000
     13     -29.6282      2.00000
     14     -29.6271      2.00000
     15     -29.4222      2.00000
     16     -29.4221      2.00000
     17     -12.2878      2.00000
     18     -12.2793      2.00000
     19      -3.8802      2.00000
     20      -3.2886      2.00000
     21      -2.3328      2.00000
     22      -2.2832      2.00000
     23      -1.9028      2.00000
     24      -1.3401      2.00000
     25      -1.0159      2.00000
     26      -0.8742      2.00000
     27      -0.0671      2.00000
     28      -0.0526      2.00000
     29       0.2525      2.00000
     30       0.4576      2.00000
     31       0.5212      2.00000
     32       0.7949      2.00000
     33       2.7383      2.00000
     34       2.8771      2.00000
     35       2.9522      2.00000
     36       3.0896      2.00000
     37       3.2105      2.00000
     38       3.3239      2.00000
     39       3.4554      2.00000
     40       3.6549      2.00000
     41       3.9960      2.00000
     42       4.1791      2.00000
     43       4.3309      2.00000
     44       4.7571      2.00000
     45       5.1766      2.00000
     46       5.6145      2.00000
     47       6.0095      0.00852
     48       6.1933      0.00000
     49       6.4068      0.00000
     50       6.5897      0.00000
     51       6.6418      0.00000
     52       6.7019      0.00000
     53       7.1574      0.00000
     54       7.4830      0.00000
     55       7.6694      0.00000
     56       7.8291      0.00000
     57       7.9777      0.00000
     58       8.3222      0.00000
     59       8.6058      0.00000
     60       9.2214      0.00000

 k-point    76 :      -0.1667   -0.1667    0.4286
  band No.  band energies     occupation 
      1     -57.4543      2.00000
      2     -57.4471      2.00000
      3     -56.2266      2.00000
      4     -56.2173      2.00000
      5     -31.1950      2.00000
      6     -30.9384      2.00000
      7     -30.8360      2.00000
      8     -30.8351      2.00000
      9     -30.8313      2.00000
     10     -30.8306      2.00000
     11     -29.6338      2.00000
     12     -29.6318      2.00000
     13     -29.6260      2.00000
     14     -29.6236      2.00000
     15     -29.5819      2.00000
     16     -29.2850      2.00000
     17     -12.2901      2.00000
     18     -12.2759      2.00000
     19      -3.6132      2.00000
     20      -3.4735      2.00000
     21      -2.6122      2.00000
     22      -2.2521      2.00000
     23      -1.7647      2.00000
     24      -1.3856      2.00000
     25      -1.2490      2.00000
     26      -0.6497      2.00000
     27      -0.4335      2.00000
     28      -0.1001      2.00000
     29       0.4001      2.00000
     30       0.5210      2.00000
     31       0.5983      2.00000
     32       0.9719      2.00000
     33       2.5533      2.00000
     34       2.8420      2.00000
     35       2.9050      2.00000
     36       3.2444      2.00000
     37       3.4007      2.00000
     38       3.4616      2.00000
     39       3.7582      2.00000
     40       3.7943      2.00000
     41       4.0745      2.00000
     42       4.5331      2.00000
     43       4.6069      2.00000
     44       4.7470      2.00000
     45       5.1279      2.00000
     46       5.4331      2.00000
     47       5.7577      2.00000
     48       5.8571      2.00000
     49       6.1676      0.00000
     50       6.2969      0.00000
     51       6.5851      0.00000
     52       6.6827      0.00000
     53       7.2038      0.00000
     54       7.2630      0.00000
     55       7.3027      0.00000
     56       7.3619      0.00000
     57       7.7623      0.00000
     58       8.1086      0.00000
     59       8.3949      0.00000
     60       8.7769      0.00000


--------------------------------------------------------------------------------------------------------


 soft charge-density along one line, spin component           1
         0         1         2         3         4         5         6         7         8         9
 total charge-density along one line
 
 pseudopotential strength for first ion, spin component:           1
  6.571   9.993  -0.063  -0.065  -0.045  -0.089  -0.093  -0.064
  9.993  15.192  -0.095  -0.097  -0.068  -0.134  -0.140  -0.096
 -0.063  -0.095  -2.134  -0.034   0.024  -3.615  -0.069   0.048
 -0.065  -0.097  -0.034  -2.092  -0.025  -0.069  -3.532  -0.050
 -0.045  -0.068   0.024  -0.025  -2.150   0.048  -0.050  -3.647
 -0.089  -0.134  -3.615  -0.069   0.048  -5.914  -0.136   0.093
 -0.093  -0.140  -0.069  -3.532  -0.050  -0.136  -5.754  -0.098
 -0.064  -0.096   0.048  -0.050  -3.647   0.093  -0.098  -5.976
 total augmentation occupancy for first ion, spin component:           1
  4.515  -1.030  -1.440  -1.551  -1.037   0.425   0.489   0.306
 -1.030   0.333   0.400   0.523   0.288  -0.158  -0.192  -0.114
 -1.440   0.400   4.397   0.799   0.127  -1.059  -0.256  -0.282
 -1.551   0.523   0.799   4.372   0.576  -0.274  -1.252  -0.197
 -1.037   0.288   0.127   0.576   4.312  -0.282  -0.184  -0.870
  0.425  -0.158  -1.059  -0.274  -0.282   0.299   0.101   0.124
  0.489  -0.192  -0.256  -1.252  -0.184   0.101   0.377   0.073
  0.306  -0.114  -0.282  -0.197  -0.870   0.124   0.073   0.216


------------------------ aborting loop because EDIFF is reached ----------------------------------------




--------------------------------------------------------------------------------------------------------



  FREE ENERGIE OF THE ION-ELECTRON SYSTEM (eV)
  ---------------------------------------------------
  free  energy   TOTEN  =      -113.24753201 eV

  energy  without entropy=     -113.24586437  energy(sigma->0) =     -113.24669819
 


--------------------------------------------------------------------------------------------------------


    POTLOK:  cpu time    1.1126: real time    1.1206


--------------------------------------------------------------------------------------------------------


 writing wavefunctions
     LOOP+:  cpu time 1715.5068: real time 1740.5882
    4ORBIT:  cpu time    0.0000: real time    0.0000

 total amount of memory used by VASP MPI-rank0   349305. kBytes
=======================================================================

   base      :      30000. kBytes
   nonl-proj :     133410. kBytes
   fftplans  :      20117. kBytes
   grid      :      15504. kBytes
   one-center:        124. kBytes
   wavefun   :     150150. kBytes
 
  
  
 General timing and accounting informations for this job:
 ========================================================
  
                  Total CPU time used (sec):     1720.870
                            User time (sec):     1671.342
                          System time (sec):       49.528
                         Elapsed time (sec):     1746.912
  
                   Maximum memory used (kb):      521588.
                   Average memory used (kb):          N/A
  
                          Minor page faults:      8284216
                          Major page faults:           52
                 Voluntary context switches:        10358
