 vasp.6.2.0 18Jan21 (build Jan 05 2022 15:41:44) complex                        
  
 executed on             LinuxIFC date 2025.05.07  21:18:30
 running on   24 total cores
 distrk:  each k-point on   12 cores,    2 groups
 distr:  one band on NCORE=   2 cores,    6 groups


--------------------------------------------------------------------------------------------------------


 INCAR:
   SYSTEM = routine with relax: pwdword
   ICHARG = 2
   NPAR = 6
   KPAR = 2
   NCORE = 2
   ADDGRID = T
   PREC = Acc
   ENCUT = 600
   METAGGA = R2SCAN
   LASPH = .TRUE.
   LMIXTAU = .FALSE.
   ALGO = A
   EDIFF = 1E-9
   NELM = 100
   NELMIN = 6
   IALGO = 38
   LREAL = F
   NSW = 0
   ISIF = -1
   ISMEAR = 0
   SIGMA = 0.02

 POTCAR:    PAW_PBE B 06Sep2000                   
 POTCAR:    PAW_PBE Mo_sv 02Feb2006               
 -----------------------------------------------------------------------------
|                                                                             |
|           W    W    AA    RRRRR   N    N  II  N    N   GGGG   !!!           |
|           W    W   A  A   R    R  NN   N  II  NN   N  G    G  !!!           |
|           W    W  A    A  R    R  N N  N  II  N N  N  G       !!!           |
|           W WW W  AAAAAA  RRRRR   N  N N  II  N  N N  G  GGG   !            |
|           WW  WW  A    A  R   R   N   NN  II  N   NN  G    G                |
|           W    W  A    A  R    R  N    N  II  N    N   GGGG   !!!           |
|                                                                             |
|     For optimal performance we recommend to set                             |
|       NCORE = 2 up to number-of-cores-per-socket                            |
|     NCORE specifies how many cores store one orbital (NPAR=cpu/NCORE).      |
|     This setting can greatly improve the performance of VASP for DFT.       |
|     The default, NCORE=1 might be grossly inefficient on modern             |
|     multi-core architectures or massively parallel machines. Do your        |
|     own testing! More info at https://www.vasp.at/wiki/index.php/NCORE      |
|     Unfortunately you need to use the default for GW and RPA                |
|     calculations (for HF NCORE is supported but not extensively tested      |
|     yet).                                                                   |
|                                                                             |
 -----------------------------------------------------------------------------

 POTCAR:    PAW_PBE B 06Sep2000                   
   VRHFIN =B: s2p1                                                                                  
   LEXCH  = PE                                                                                      
   EATOM  =    71.1703 eV,    5.2309 Ry                                                             
                                                                                                    
   TITEL  = PAW_PBE B 06Sep2000                                                                     
   LULTRA =        F    use ultrasoft PP ?                                                          
   IUNSCR =        1    unscreen: 0-lin 1-nonlin 2-no                                               
   RPACOR =    1.200    partial core radius                                                         
   POMASS =   10.811; ZVAL   =    3.000    mass and valenz                                          
   RCORE  =    1.700    outmost cutoff radius                                                       
   RWIGS  =    1.710; RWIGS  =    0.905    wigner-seitz radius (au A)                               
   ENMAX  =  318.614; ENMIN  =  238.960 eV                                                          
   ICORE  =        2    local potential                                                             
   LCOR   =        T    correct aug charges                                                         
   LPAW   =        T    paw PP                                                                      
   EAUG   =  535.514                                                                                
   DEXC   =    0.000                                                                                
   RMAX   =    1.732    core radius for proj-oper                                                   
   RAUG   =    1.300    factor for augmentation sphere                                              
   RDEP   =    1.757    radius for radial grids                                                     
   RDEPT  =    1.436    core radius for aug-charge                                                  
                                                                                                    
   Atomic configuration                                                                             
    4 entries                                                                                       
     n  l   j            E        occ.                                                              
     1  0  0.50      -180.5896   2.0000                                                             
     2  0  0.50        -9.4431   2.0000                                                             
     2  1  0.50        -3.6068   1.0000                                                             
     3  2  1.50        -4.0817   0.0000                                                             
   Description                                                                                      
     l       E           TYP  RCUT    TYP  RCUT                                                     
     0     -9.4430752     23  1.500                                                                 
     0      0.8675899     23  1.500                                                                 
     1     -3.6067955     23  1.700                                                                 
     1      6.1086146     23  1.700                                                                 
     2     -4.0817478      7  1.700                                                                 
  local pseudopotential read in
  partial core-charges read in
  partial kinetic energy density read in
  atomic valenz-charges read in
  non local Contribution for L=           0  read in
    real space projection operators read in
  non local Contribution for L=           0  read in
    real space projection operators read in
  non local Contribution for L=           1  read in
    real space projection operators read in
  non local Contribution for L=           1  read in
    real space projection operators read in
    PAW grid and wavefunctions read in
 
   number of l-projection  operators is LMAX  =           4
   number of lm-projection operators is LMMAX =           8
 
 POTCAR:    PAW_PBE Mo_sv 02Feb2006               
   VRHFIN =Mo: 4p5s4d                                                                               
   LEXCH  = PE                                                                                      
   EATOM  =  1862.2866 eV,  136.8742 Ry                                                             
                                                                                                    
   TITEL  = PAW_PBE Mo_sv 02Feb2006                                                                 
   LULTRA =        F    use ultrasoft PP ?                                                          
   IUNSCR =        1    unscreen: 0-lin 1-nonlin 2-no                                               
   RPACOR =    2.200    partial core radius                                                         
   POMASS =   95.940; ZVAL   =   14.000    mass and valenz                                          
   RCORE  =    2.500    outmost cutoff radius                                                       
   RWIGS  =    2.750; RWIGS  =    1.455    wigner-seitz radius (au A)                               
   ENMAX  =  242.676; ENMIN  =  182.007 eV                                                          
   ICORE  =        3    local potential                                                             
   LCOR   =        T    correct aug charges                                                         
   LPAW   =        T    paw PP                                                                      
   EAUG   =  446.014                                                                                
   DEXC   =    0.000                                                                                
   RMAX   =    2.563    core radius for proj-oper                                                   
   RAUG   =    1.300    factor for augmentation sphere                                              
   RDEP   =    2.641    radius for radial grids                                                     
   RDEPT  =    2.031    core radius for aug-charge                                                  
                                                                                                    
   Atomic configuration                                                                             
   11 entries                                                                                       
     n  l   j            E        occ.                                                              
     1  0  0.50    -19819.0341   2.0000                                                             
     2  0  0.50     -2799.0127   2.0000                                                             
     2  1  1.50     -2502.0276   6.0000                                                             
     3  0  0.50      -476.4449   2.0000                                                             
     3  1  1.50      -379.1496   6.0000                                                             
     3  2  2.50      -220.9367  10.0000                                                             
     4  0  0.50       -64.3378   2.0000                                                             
     5  0  0.50        -4.0862   1.0000                                                             
     4  1  1.50       -38.4773   6.0000                                                             
     4  2  2.50        -3.7535   5.0000                                                             
     4  3  2.50        -1.3606   0.0000                                                             
   Description                                                                                      
     l       E           TYP  RCUT    TYP  RCUT                                                     
     0    -64.3377829     23  2.100                                                                 
     0     -4.0861640     23  2.400                                                                 
     1    -38.4772993     23  2.100                                                                 
     1     13.6058260     23  2.100                                                                 
     2     -3.7534941     23  2.400                                                                 
     2     -5.1140767     23  2.400                                                                 
     3     -4.0817478     23  2.500                                                                 
  local pseudopotential read in
  partial core-charges read in
  partial kinetic energy density read in
  atomic valenz-charges read in
  non local Contribution for L=           0  read in
    real space projection operators read in
  non local Contribution for L=           0  read in
    real space projection operators read in
  non local Contribution for L=           1  read in
    real space projection operators read in
  non local Contribution for L=           1  read in
    real space projection operators read in
  non local Contribution for L=           2  read in
    real space projection operators read in
  non local Contribution for L=           2  read in
    real space projection operators read in
    PAW grid and wavefunctions read in
 
   number of l-projection  operators is LMAX  =           6
   number of lm-projection operators is LMMAX =          18
 
  PAW_PBE B 06Sep2000                   :
 energy of atom  1       EATOM=  -71.1703
 kinetic energy error for atom=    0.0007 (will be added to EATOM!!)
  PAW_PBE Mo_sv 02Feb2006               :
 energy of atom  2       EATOM=-1862.2866
 kinetic energy error for atom=    0.0041 (will be added to EATOM!!)
 
 
 POSCAR: EA246
  positions in direct lattice
  No initial velocities read in

 METAGGA = R2SCA    LMAXTAU =  6    LMIXTAU =  F

 exchange correlation table for  LEXCH =        8
   RHO(1)=    0.500       N(1)  =     2000
   RHO(2)=  100.500       N(2)  =     4000
 


--------------------------------------------------------------------------------------------------------


 ion  position               nearest neighbor table
   1  0.818  0.818  0.818-   2 1.85   2 1.85   2 1.85   5 2.21   6 2.36   6 2.36   6 2.36
   2  0.182  0.182  0.182-   1 1.85   1 1.85   1 1.85   6 2.21   5 2.36   5 2.36   5 2.36
   3  0.332  0.332  0.332-   4 1.74   4 1.74   4 1.74   5 2.33   5 2.33   5 2.33   6 2.37   6 2.37
                             6 2.37
   4  0.668  0.668  0.668-   3 1.74   3 1.74   3 1.74   6 2.33   6 2.33   6 2.33   5 2.37   5 2.37
                             5 2.37
   5  0.924  0.924  0.924-   1 2.21   3 2.33   3 2.33   3 2.33   2 2.36   2 2.36   2 2.36   4 2.37
                             4 2.37   4 2.37   6 3.16
   6  0.076  0.076  0.076-   2 2.21   4 2.33   4 2.33   4 2.33   1 2.36   1 2.36   1 2.36   3 2.37
                             3 2.37   3 2.37   5 3.16
 
  LATTYP: Found a trigonal (rhomboedric) cell.
 ALAT       =     7.1735586560
 COS(alpha) =     0.9116882471
  
  Lattice vectors:
  
 A1 = (   2.9428402000,  -0.0030354400,   6.5421423200)
 A2 = (   1.4012490700,   2.5878200000,   6.5421423200)
 A3 = (  -0.0050999900,  -0.0030354400,   7.1735564900)


Analysis of symmetry for initial positions (statically):
=====================================================================
 Subroutine PRICEL returns:
 Original cell was already a primitive cell.
 

 Routine SETGRP: Setting up the symmetry group for a 
 trigonal (rhombohedral) supercell.


 Subroutine GETGRP returns: Found 12 space group operations
 (whereof 12 operations were pure point group operations)
 out of a pool of 12 trial point group operations.


The static configuration has the point symmetry D_3d.


Analysis of symmetry for dynamics (positions and initial velocities):
=====================================================================
 Subroutine PRICEL returns:
 Original cell was already a primitive cell.
 

 Routine SETGRP: Setting up the symmetry group for a 
 trigonal (rhombohedral) supercell.


 Subroutine GETGRP returns: Found 12 space group operations
 (whereof 12 operations were pure point group operations)
 out of a pool of 12 trial point group operations.


The dynamic configuration has the point symmetry D_3d.


 Subroutine INISYM returns: Found 12 space group operations
 (whereof 12 operations are pure point group operations),
 and found     1 'primitive' translations


----------------------------------------------------------------------------------------

                                     Primitive cell                                     

  volume of cell :      54.7781

  direct lattice vectors                    reciprocal lattice vectors
     2.942840200 -0.003035440  6.542142320     0.339254882 -0.184112041  0.000163285
     1.401249070  2.587820000  6.542142320     0.000034989  0.385993724  0.000163355
    -0.005099990 -0.003035440  7.173556490    -0.309425684 -0.184112121  0.139102978

  length of vectors
     7.173558656  7.173558214  7.173558945     0.385993711  0.385993760  0.385993737

  position of ions in fractional coordinates (direct lattice)
     0.818330970  0.818330970  0.818330970
     0.181669030  0.181669030  0.181669030
     0.332102850  0.332102850  0.332102850
     0.667897150  0.667897150  0.667897150
     0.924347140  0.924347140  0.924347140
     0.075652860  0.075652860  0.075652860

  ion indices of the primitive-cell ions
   primitive index   ion index
                 1           1
                 2           2
                 3           3
                 4           4
                 5           5
                 6           6

----------------------------------------------------------------------------------------

 
 
 KPOINTS: EA                                      

Automatic generation of k-mesh.
 Grid dimensions read from file:
 generate k-points for:   13   13   13

 Generating k-lattice:

  Cartesian coordinates                     Fractional coordinates (reciprocal lattice)
     0.026096529 -0.014162465  0.000012560     0.076923077 -0.000000000  0.000000000
     0.000002691  0.029691825  0.000012566     0.000000000  0.076923077 -0.000000000
    -0.023801976 -0.014162471  0.010700229     0.000000000  0.000000000  0.076923077

  Length of vectors
     0.029691824  0.029691828  0.029691826

  Shift w.r.t. Gamma in fractional coordinates (k-lattice)
     0.000000000  0.000000000  0.000000000

 
 Subroutine IBZKPT returns following result:
 ===========================================
 
 Found    231 irreducible k-points:
 
 Following reciprocal coordinates:
            Coordinates               Weight
  0.000000  0.000000  0.000000      1.000000
  0.076923  0.000000 -0.000000      6.000000
  0.153846  0.000000  0.000000      6.000000
  0.230769  0.000000 -0.000000      6.000000
  0.307692  0.000000  0.000000      6.000000
  0.384615  0.000000  0.000000      6.000000
  0.461538  0.000000 -0.000000      6.000000
  0.076923  0.076923  0.000000      6.000000
  0.153846  0.076923  0.000000     12.000000
  0.230769  0.076923  0.000000     12.000000
  0.307692  0.076923  0.000000     12.000000
  0.384615  0.076923  0.000000     12.000000
  0.461538  0.076923  0.000000     12.000000
 -0.461538  0.076923  0.000000     12.000000
 -0.384615  0.076923  0.000000     12.000000
 -0.307692  0.076923  0.000000     12.000000
 -0.230769  0.076923  0.000000     12.000000
 -0.153846  0.076923 -0.000000     12.000000
 -0.076923  0.076923  0.000000      6.000000
  0.153846  0.153846  0.000000      6.000000
  0.230769  0.153846  0.000000     12.000000
  0.307692  0.153846  0.000000     12.000000
  0.384615  0.153846  0.000000     12.000000
  0.461538  0.153846  0.000000     12.000000
 -0.461538  0.153846  0.000000     12.000000
 -0.384615  0.153846  0.000000     12.000000
 -0.307692  0.153846 -0.000000     12.000000
 -0.230769  0.153846 -0.000000     12.000000
 -0.153846  0.153846 -0.000000      6.000000
  0.230769  0.230769  0.000000      6.000000
  0.307692  0.230769  0.000000     12.000000
  0.384615  0.230769  0.000000     12.000000
  0.461538  0.230769  0.000000     12.000000
 -0.461538  0.230769  0.000000     12.000000
 -0.384615  0.230769  0.000000     12.000000
 -0.307692  0.230769 -0.000000     12.000000
 -0.230769  0.230769 -0.000000      6.000000
  0.307692  0.307692  0.000000      6.000000
  0.384615  0.307692 -0.000000     12.000000
  0.461538  0.307692 -0.000000     12.000000
 -0.461538  0.307692  0.000000     12.000000
 -0.384615  0.307692 -0.000000     12.000000
 -0.307692  0.307692 -0.000000      6.000000
  0.384615  0.384615  0.000000      6.000000
  0.461538  0.384615  0.000000     12.000000
 -0.461538  0.384615  0.000000     12.000000
 -0.384615  0.384615 -0.000000      6.000000
  0.461538  0.461538  0.000000      6.000000
 -0.461538  0.461538  0.000000      6.000000
  0.076923  0.076923  0.076923      2.000000
  0.153846  0.076923  0.076923      6.000000
  0.230769  0.076923  0.076923      6.000000
  0.307692  0.076923  0.076923      6.000000
  0.384615  0.076923  0.076923      6.000000
  0.461538  0.076923  0.076923      6.000000
 -0.461538  0.076923  0.076923      6.000000
 -0.384615  0.076923  0.076923      6.000000
 -0.307692  0.076923  0.076923      6.000000
 -0.230769  0.076923  0.076923      6.000000
 -0.153846  0.076923  0.076923      6.000000
 -0.076923  0.076923  0.076923      6.000000
  0.153846  0.153846  0.076923      6.000000
  0.230769  0.153846  0.076923     12.000000
  0.307692  0.153846  0.076923     12.000000
  0.384615  0.153846  0.076923     12.000000
  0.461538  0.153846  0.076923     12.000000
 -0.461538  0.153846  0.076923     12.000000
 -0.384615  0.153846  0.076923     12.000000
 -0.307692  0.153846  0.076923     12.000000
 -0.230769  0.153846  0.076923     12.000000
 -0.153846  0.153846  0.076923     12.000000
 -0.076923  0.153846  0.076923     12.000000
  0.230769  0.230769  0.076923      6.000000
  0.307692  0.230769  0.076923     12.000000
  0.384615  0.230769  0.076923     12.000000
  0.461538  0.230769  0.076923     12.000000
 -0.461538  0.230769  0.076923     12.000000
 -0.384615  0.230769  0.076923     12.000000
 -0.307692  0.230769  0.076923     12.000000
 -0.230769  0.230769  0.076923     12.000000
 -0.153846  0.230769  0.076923     12.000000
 -0.076923  0.230769  0.076923     12.000000
  0.307692  0.307692  0.076923      6.000000
  0.384615  0.307692  0.076923     12.000000
  0.461538  0.307692  0.076923     12.000000
 -0.461538  0.307692  0.076923     12.000000
 -0.384615  0.307692  0.076923     12.000000
 -0.307692  0.307692  0.076923     12.000000
 -0.230769  0.307692  0.076923     12.000000
 -0.153846  0.307692  0.076923     12.000000
 -0.076923  0.307692  0.076923     12.000000
  0.384615  0.384615  0.076923      6.000000
  0.461538  0.384615  0.076923     12.000000
 -0.461538  0.384615  0.076923     12.000000
 -0.384615  0.384615  0.076923     12.000000
 -0.307692  0.384615  0.076923     12.000000
 -0.230769  0.384615  0.076923     12.000000
 -0.153846  0.384615  0.076923     12.000000
 -0.076923  0.384615  0.076923     12.000000
  0.461538  0.461538  0.076923      6.000000
 -0.461538  0.461538  0.076923     12.000000
 -0.384615  0.461538  0.076923     12.000000
 -0.307692  0.461538  0.076923     12.000000
 -0.230769  0.461538  0.076923     12.000000
 -0.153846  0.461538  0.076923     12.000000
 -0.076923  0.461538  0.076923     12.000000
 -0.461538 -0.461538  0.076923      6.000000
 -0.384615 -0.461538  0.076923     12.000000
 -0.307692 -0.461538  0.076923     12.000000
 -0.230769 -0.461538  0.076923     12.000000
 -0.153846 -0.461538  0.076923     12.000000
 -0.384615 -0.384615  0.076923      6.000000
 -0.307692 -0.384615  0.076923     12.000000
 -0.230769 -0.384615  0.076923     12.000000
 -0.153846 -0.384615  0.076923     12.000000
 -0.307692 -0.307692  0.076923      6.000000
 -0.230769 -0.307692  0.076923     12.000000
 -0.153846 -0.307692  0.076923     12.000000
 -0.230769 -0.230769  0.076923      6.000000
 -0.153846 -0.230769  0.076923     12.000000
 -0.153846 -0.153846  0.076923      6.000000
  0.153846  0.153846  0.153846      2.000000
  0.230769  0.153846  0.153846      6.000000
  0.307692  0.153846  0.153846      6.000000
  0.384615  0.153846  0.153846      6.000000
  0.461538  0.153846  0.153846      6.000000
 -0.461538  0.153846  0.153846      6.000000
 -0.384615  0.153846  0.153846      6.000000
 -0.307692  0.153846  0.153846      6.000000
 -0.230769  0.153846  0.153846      6.000000
 -0.153846  0.153846  0.153846      6.000000
  0.230769  0.230769  0.153846      6.000000
  0.307692  0.230769  0.153846     12.000000
  0.384615  0.230769  0.153846     12.000000
  0.461538  0.230769  0.153846     12.000000
 -0.461538  0.230769  0.153846     12.000000
 -0.384615  0.230769  0.153846     12.000000
 -0.307692  0.230769  0.153846     12.000000
 -0.230769  0.230769  0.153846     12.000000
 -0.153846  0.230769  0.153846     12.000000
  0.307692  0.307692  0.153846      6.000000
  0.384615  0.307692  0.153846     12.000000
  0.461538  0.307692  0.153846     12.000000
 -0.461538  0.307692  0.153846     12.000000
 -0.384615  0.307692  0.153846     12.000000
 -0.307692  0.307692  0.153846     12.000000
 -0.230769  0.307692  0.153846     12.000000
 -0.153846  0.307692  0.153846     12.000000
  0.384615  0.384615  0.153846      6.000000
  0.461538  0.384615  0.153846     12.000000
 -0.461538  0.384615  0.153846     12.000000
 -0.384615  0.384615  0.153846     12.000000
 -0.307692  0.384615  0.153846     12.000000
 -0.230769  0.384615  0.153846     12.000000
 -0.153846  0.384615  0.153846     12.000000
  0.461538  0.461538  0.153846      6.000000
 -0.461538  0.461538  0.153846     12.000000
 -0.384615  0.461538  0.153846     12.000000
 -0.307692  0.461538  0.153846     12.000000
 -0.230769  0.461538  0.153846     12.000000
 -0.153846  0.461538  0.153846     12.000000
 -0.461538 -0.461538  0.153846      6.000000
 -0.384615 -0.461538  0.153846     12.000000
 -0.307692 -0.461538  0.153846     12.000000
 -0.230769 -0.461538  0.153846     12.000000
 -0.384615 -0.384615  0.153846      6.000000
 -0.307692 -0.384615  0.153846     12.000000
 -0.230769 -0.384615  0.153846     12.000000
 -0.307692 -0.307692  0.153846      6.000000
 -0.230769 -0.307692  0.153846     12.000000
 -0.230769 -0.230769  0.153846      6.000000
  0.230769  0.230769  0.230769      2.000000
  0.307692  0.230769  0.230769      6.000000
  0.384615  0.230769  0.230769      6.000000
  0.461538  0.230769  0.230769      6.000000
 -0.461538  0.230769  0.230769      6.000000
 -0.384615  0.230769  0.230769      6.000000
 -0.307692  0.230769  0.230769      6.000000
 -0.230769  0.230769  0.230769      6.000000
  0.307692  0.307692  0.230769      6.000000
  0.384615  0.307692  0.230769     12.000000
  0.461538  0.307692  0.230769     12.000000
 -0.461538  0.307692  0.230769     12.000000
 -0.384615  0.307692  0.230769     12.000000
 -0.307692  0.307692  0.230769     12.000000
 -0.230769  0.307692  0.230769     12.000000
  0.384615  0.384615  0.230769      6.000000
  0.461538  0.384615  0.230769     12.000000
 -0.461538  0.384615  0.230769     12.000000
 -0.384615  0.384615  0.230769     12.000000
 -0.307692  0.384615  0.230769     12.000000
 -0.230769  0.384615  0.230769     12.000000
  0.461538  0.461538  0.230769      6.000000
 -0.461538  0.461538  0.230769     12.000000
 -0.384615  0.461538  0.230769     12.000000
 -0.307692  0.461538  0.230769     12.000000
 -0.230769  0.461538  0.230769     12.000000
 -0.461538 -0.461538  0.230769      6.000000
 -0.384615 -0.461538  0.230769     12.000000
 -0.307692 -0.461538  0.230769     12.000000
 -0.384615 -0.384615  0.230769      6.000000
 -0.307692 -0.384615  0.230769     12.000000
 -0.307692 -0.307692  0.230769      6.000000
  0.307692  0.307692  0.307692      2.000000
  0.384615  0.307692  0.307692      6.000000
  0.461538  0.307692  0.307692      6.000000
 -0.461538  0.307692  0.307692      6.000000
 -0.384615  0.307692  0.307692      6.000000
 -0.307692  0.307692  0.307692      6.000000
  0.384615  0.384615  0.307692      6.000000
  0.461538  0.384615  0.307692     12.000000
 -0.461538  0.384615  0.307692     12.000000
 -0.384615  0.384615  0.307692     12.000000
 -0.307692  0.384615  0.307692     12.000000
  0.461538  0.461538  0.307692      6.000000
 -0.461538  0.461538  0.307692     12.000000
 -0.384615  0.461538  0.307692     12.000000
 -0.307692  0.461538  0.307692     12.000000
 -0.461538 -0.461538  0.307692      6.000000
 -0.384615 -0.461538  0.307692     12.000000
 -0.384615 -0.384615  0.307692      6.000000
  0.384615  0.384615  0.384615      2.000000
  0.461538  0.384615  0.384615      6.000000
 -0.461538  0.384615  0.384615      6.000000
 -0.384615  0.384615  0.384615      6.000000
  0.461538  0.461538  0.384615      6.000000
 -0.461538  0.461538  0.384615     12.000000
 -0.384615  0.461538  0.384615     12.000000
 -0.461538 -0.461538  0.384615      6.000000
  0.461538  0.461538  0.461538      2.000000
 -0.461538  0.461538  0.461538      6.000000
 
 Following cartesian coordinates:
            Coordinates               Weight
  0.000000  0.000000  0.000000      1.000000
  0.026097 -0.014162  0.000013      6.000000
  0.052193 -0.028325  0.000025      6.000000
  0.078290 -0.042487  0.000038      6.000000
  0.104386 -0.056650  0.000050      6.000000
  0.130483 -0.070812  0.000063      6.000000
  0.156579 -0.084975  0.000075      6.000000
  0.026099  0.015529  0.000025      6.000000
  0.052196  0.001367  0.000038     12.000000
  0.078292 -0.012796  0.000050     12.000000
  0.104389 -0.026958  0.000063     12.000000
  0.130485 -0.041120  0.000075     12.000000
  0.156582 -0.055283  0.000088     12.000000
 -0.156576  0.114667 -0.000063     12.000000
 -0.130480  0.100504 -0.000050     12.000000
 -0.104383  0.086342 -0.000038     12.000000
 -0.078287  0.072179 -0.000025     12.000000
 -0.052190  0.058017 -0.000013     12.000000
 -0.026094  0.043854  0.000000      6.000000
  0.052198  0.031059  0.000050      6.000000
  0.078295  0.016896  0.000063     12.000000
  0.104392  0.002734  0.000075     12.000000
  0.130488 -0.011429  0.000088     12.000000
  0.156585 -0.025591  0.000100     12.000000
 -0.156574  0.144358 -0.000050     12.000000
 -0.130477  0.130196 -0.000038     12.000000
 -0.104381  0.116034 -0.000025     12.000000
 -0.078284  0.101871 -0.000013     12.000000
 -0.052188  0.087709  0.000000      6.000000
  0.078298  0.046588  0.000075      6.000000
  0.104394  0.032426  0.000088     12.000000
  0.130491  0.018263  0.000100     12.000000
  0.156587  0.004101  0.000113     12.000000
 -0.156571  0.174050 -0.000038     12.000000
 -0.130475  0.159888 -0.000025     12.000000
 -0.104378  0.145725 -0.000013     12.000000
 -0.078282  0.131563  0.000000      6.000000
  0.104397  0.062117  0.000101      6.000000
  0.130493  0.047955  0.000113     12.000000
  0.156590  0.033793  0.000126     12.000000
 -0.156568  0.203742 -0.000025     12.000000
 -0.130472  0.189580 -0.000013     12.000000
 -0.104375  0.175417  0.000000      6.000000
  0.130496  0.077647  0.000126      6.000000
  0.156593  0.063484  0.000138     12.000000
 -0.156566  0.233434 -0.000013     12.000000
 -0.130469  0.219271  0.000000      6.000000
  0.156595  0.093176  0.000151      6.000000
 -0.156563  0.263126  0.000000      6.000000
  0.002297  0.001367  0.010725      2.000000
  0.028394 -0.012796  0.010738      6.000000
  0.054490 -0.026958  0.010750      6.000000
  0.080587 -0.041121  0.010763      6.000000
  0.106683 -0.055283  0.010776      6.000000
  0.132780 -0.069445  0.010788      6.000000
 -0.180378  0.100504  0.010637      6.000000
 -0.154282  0.086342  0.010650      6.000000
 -0.128185  0.072179  0.010663      6.000000
 -0.102089  0.058017  0.010675      6.000000
 -0.075992  0.043854  0.010688      6.000000
 -0.049896  0.029692  0.010700      6.000000
  0.028396  0.016896  0.010750      6.000000
  0.054493  0.002734  0.010763     12.000000
  0.080590 -0.011429  0.010776     12.000000
  0.106686 -0.025591  0.010788     12.000000
  0.132783 -0.039754  0.010801     12.000000
 -0.180376  0.130196  0.010650     12.000000
 -0.154279  0.116034  0.010663     12.000000
 -0.128183  0.101871  0.010675     12.000000
 -0.102086  0.087709  0.010688     12.000000
 -0.075990  0.073546  0.010700     12.000000
 -0.049893  0.059384  0.010713     12.000000
  0.054496  0.032426  0.010776      6.000000
  0.080592  0.018263  0.010788     12.000000
  0.106689  0.004101  0.010801     12.000000
  0.132785 -0.010062  0.010813     12.000000
 -0.180373  0.159888  0.010663     12.000000
 -0.154277  0.145725  0.010675     12.000000
 -0.128180  0.131563  0.010688     12.000000
 -0.102083  0.117400  0.010700     12.000000
 -0.075987  0.103238  0.010713     12.000000
 -0.049890  0.089075  0.010725     12.000000
  0.080595  0.047955  0.010801      6.000000
  0.106691  0.033793  0.010813     12.000000
  0.132788  0.019630  0.010826     12.000000
 -0.180370  0.189580  0.010675     12.000000
 -0.154274  0.175417  0.010688     12.000000
 -0.128177  0.161255  0.010700     12.000000
 -0.102081  0.147092  0.010713     12.000000
 -0.075984  0.132930  0.010725     12.000000
 -0.049888  0.118767  0.010738     12.000000
  0.106694  0.063484  0.010826      6.000000
  0.132791  0.049322  0.010838     12.000000
 -0.180368  0.219271  0.010688     12.000000
 -0.154271  0.205109  0.010700     12.000000
 -0.128175  0.190947  0.010713     12.000000
 -0.102078  0.176784  0.010725     12.000000
 -0.075982  0.162622  0.010738     12.000000
 -0.049885  0.148459  0.010750     12.000000
  0.132793  0.079014  0.010851      6.000000
 -0.180365  0.248963  0.010700     12.000000
 -0.154268  0.234801  0.010713     12.000000
 -0.128172  0.220638  0.010725     12.000000
 -0.102075  0.206476  0.010738     12.000000
 -0.075979  0.192313  0.010751     12.000000
 -0.049882  0.178151  0.010763     12.000000
 -0.180397 -0.107339  0.010549      6.000000
 -0.154301 -0.121501  0.010562     12.000000
 -0.128204 -0.135664  0.010575     12.000000
 -0.102108 -0.149826  0.010587     12.000000
 -0.076011 -0.163988  0.010600     12.000000
 -0.154298 -0.091809  0.010575      6.000000
 -0.128202 -0.105972  0.010587     12.000000
 -0.102105 -0.120134  0.010600     12.000000
 -0.076008 -0.134297  0.010612     12.000000
 -0.128199 -0.076280  0.010600      6.000000
 -0.102102 -0.090442  0.010612     12.000000
 -0.076006 -0.104605  0.010625     12.000000
 -0.102100 -0.060751  0.010625      6.000000
 -0.076003 -0.074913  0.010637     12.000000
 -0.076000 -0.045221  0.010650      6.000000
  0.004594  0.002734  0.021451      2.000000
  0.030691 -0.011429  0.021463      6.000000
  0.056788 -0.025591  0.021476      6.000000
  0.082884 -0.039754  0.021488      6.000000
  0.108981 -0.053916  0.021501      6.000000
 -0.204178  0.116033  0.021350      6.000000
 -0.178081  0.101871  0.021363      6.000000
 -0.151985  0.087709  0.021375      6.000000
 -0.125888  0.073546  0.021388      6.000000
 -0.099792  0.059384  0.021400      6.000000
  0.030694  0.018263  0.021476      6.000000
  0.056790  0.004101  0.021488     12.000000
  0.082887 -0.010062  0.021501     12.000000
  0.108983 -0.024224  0.021514     12.000000
 -0.204175  0.145725  0.021363     12.000000
 -0.178079  0.131563  0.021375     12.000000
 -0.151982  0.117400  0.021388     12.000000
 -0.125885  0.103238  0.021400     12.000000
 -0.099789  0.089075  0.021413     12.000000
  0.056793  0.033792  0.021501      6.000000
  0.082889  0.019630  0.021514     12.000000
  0.108986  0.005468  0.021526     12.000000
 -0.204172  0.175417  0.021375     12.000000
 -0.178076  0.161255  0.021388     12.000000
 -0.151979  0.147092  0.021400     12.000000
 -0.125883  0.132930  0.021413     12.000000
 -0.099786  0.118767  0.021426     12.000000
  0.082892  0.049322  0.021526      6.000000
  0.108989  0.035159  0.021539     12.000000
 -0.204170  0.205109  0.021388     12.000000
 -0.178073  0.190947  0.021400     12.000000
 -0.151977  0.176784  0.021413     12.000000
 -0.125880  0.162622  0.021426     12.000000
 -0.099784  0.148459  0.021438     12.000000
  0.108991  0.064851  0.021551      6.000000
 -0.204167  0.234801  0.021400     12.000000
 -0.178070  0.220638  0.021413     12.000000
 -0.151974  0.206476  0.021426     12.000000
 -0.125877  0.192313  0.021438     12.000000
 -0.099781  0.178151  0.021451     12.000000
 -0.204199 -0.121501  0.021250      6.000000
 -0.178103 -0.135664  0.021262     12.000000
 -0.152006 -0.149826  0.021275     12.000000
 -0.125910 -0.163988  0.021287     12.000000
 -0.178100 -0.105972  0.021275      6.000000
 -0.152004 -0.120134  0.021287     12.000000
 -0.125907 -0.134297  0.021300     12.000000
 -0.152001 -0.090442  0.021300      6.000000
 -0.125904 -0.104605  0.021313     12.000000
 -0.125902 -0.074913  0.021325      6.000000
  0.006892  0.004101  0.032176      2.000000
  0.032988 -0.010062  0.032189      6.000000
  0.059085 -0.024224  0.032201      6.000000
  0.085181 -0.038387  0.032214      6.000000
 -0.227977  0.131563  0.032063      6.000000
 -0.201880  0.117400  0.032076      6.000000
 -0.175784  0.103238  0.032088      6.000000
 -0.149687  0.089075  0.032101      6.000000
  0.032991  0.019630  0.032201      6.000000
  0.059087  0.005468  0.032214     12.000000
  0.085184 -0.008695  0.032226     12.000000
 -0.227974  0.161255  0.032076     12.000000
 -0.201878  0.147092  0.032088     12.000000
 -0.175781  0.132930  0.032101     12.000000
 -0.149685  0.118767  0.032113     12.000000
  0.059090  0.035159  0.032226      6.000000
  0.085187  0.020997  0.032239     12.000000
 -0.227972  0.190947  0.032088     12.000000
 -0.201875  0.176784  0.032101     12.000000
 -0.175779  0.162622  0.032113     12.000000
 -0.149682  0.148459  0.032126     12.000000
  0.085189  0.050689  0.032251      6.000000
 -0.227969  0.220638  0.032101     12.000000
 -0.201872  0.206476  0.032113     12.000000
 -0.175776  0.192313  0.032126     12.000000
 -0.149679  0.178151  0.032138     12.000000
 -0.228001 -0.135664  0.031950      6.000000
 -0.201905 -0.149826  0.031962     12.000000
 -0.175808 -0.163989  0.031975     12.000000
 -0.201902 -0.120134  0.031975      6.000000
 -0.175806 -0.134297  0.031988     12.000000
 -0.175803 -0.104605  0.032000      6.000000
  0.009189  0.005468  0.042901      2.000000
  0.035286 -0.008695  0.042914      6.000000
  0.061382 -0.022857  0.042927      6.000000
 -0.251776  0.147092  0.042776      6.000000
 -0.225680  0.132930  0.042788      6.000000
 -0.199583  0.118767  0.042801      6.000000
  0.035288  0.020997  0.042927      6.000000
  0.061385  0.006834  0.042939     12.000000
 -0.251774  0.176784  0.042788     12.000000
 -0.225677  0.162622  0.042801     12.000000
 -0.199581  0.148459  0.042814     12.000000
  0.061387  0.036526  0.042952      6.000000
 -0.251771  0.206476  0.042801     12.000000
 -0.225674  0.192313  0.042814     12.000000
 -0.199578  0.178151  0.042826     12.000000
 -0.251803 -0.149826  0.042650      6.000000
 -0.225707 -0.163989  0.042663     12.000000
 -0.225704 -0.134297  0.042675      6.000000
  0.011486  0.006834  0.053627      2.000000
  0.037583 -0.007328  0.053639      6.000000
 -0.275576  0.162622  0.053489      6.000000
 -0.249479  0.148459  0.053501      6.000000
  0.037585  0.022364  0.053652      6.000000
 -0.275573  0.192313  0.053501     12.000000
 -0.249476  0.178151  0.053514     12.000000
 -0.275605 -0.163989  0.053350      6.000000
  0.013783  0.008201  0.064352      2.000000
 -0.299375  0.178151  0.064201      6.000000
 


--------------------------------------------------------------------------------------------------------




 Dimension of arrays:
   k-points           NKPTS =    231   k-points in BZ     NKDIM =    231   number of bands    NBANDS=     24
   number of dos      NEDOS =    301   number of ions     NIONS =      6
   non local maximal  LDIM  =      6   non local SUM 2l+1 LMDIM =     18
   total plane-waves  NPLWV = 216000
   max r-space proj   IRMAX =      1   max aug-charges    IRDMAX= ******
   dimension x,y,z NGX =    60 NGY =   60 NGZ =   60
   dimension x,y,z NGXF=   120 NGYF=  120 NGZF=  120
   support grid    NGXF=   240 NGYF=  240 NGZF=  240
   ions per type =               4   2
   NGX,Y,Z   is equivalent  to a cutoff of  13.90, 13.90, 13.90 a.u.
   NGXF,Y,Z  is equivalent  to a cutoff of  27.81, 27.81, 27.81 a.u.

 SYSTEM =  routine with relax: pwdword             
 POSCAR =  EA246                                   

 Startparameter for this run:
   NWRITE =      2    write-flag & timer
   PREC   = acc       normal or accurate (medium, high low for compatibility)
   ISTART =      0    job   : 0-new  1-cont  2-samecut
   ICHARG =      2    charge: 1-file 2-atom 10-const
   ISPIN  =      1    spin polarized calculation?
   LNONCOLLINEAR =      F non collinear calculations
   LSORBIT =      F    spin-orbit coupling
   INIWAV =      1    electr: 0-lowe 1-rand  2-diag
   LASPH  =      T    aspherical Exc in radial PAW
   METAGGA=      F    non-selfconsistent MetaGGA calc.

 Electronic Relaxation 1
   ENCUT  =  600.0 eV  44.10 Ry    6.64 a.u.  14.33 14.33 14.33*2*pi/ulx,y,z
   ENINI  =  600.0     initial cutoff
   ENAUG  =  535.5 eV  augmentation charge cutoff
   NELM   =    100;   NELMIN=  6; NELMDL= -5     # of ELM steps 
   EDIFF  = 0.1E-08   stopping-criterion for ELM
   LREAL  =      F    real-space projection
   NLSPLINE    = F    spline interpolate recip. space projectors
   LCOMPAT=      F    compatible to vasp.4.4
   GGA_COMPAT  = T    GGA compatible to vasp.4.4-vasp.4.6
   LMAXPAW     = -100 max onsite density
   LMAXMIX     =    2 max onsite mixed and CHGCAR
   VOSKOWN=      0    Vosko Wilk Nusair interpolation
   ROPT   =    0.00000   0.00000
 Ionic relaxation
   EDIFFG = 0.1E-07   stopping-criterion for IOM
   NSW    =      0    number of steps for IOM
   NBLOCK =      1;   KBLOCK =      1    inner block; outer block 
   IBRION =     -1    ionic relax: 0-MD 1-quasi-New 2-CG
   NFREE  =      0    steps in history (QN), initial steepest desc. (CG)
   ISIF   =     -1    stress and relaxation
   IWAVPR =     10    prediction:  0-non 1-charg 2-wave 3-comb
   ISYM   =      2    0-nonsym 1-usesym 2-fastsym
   LCORR  =      T    Harris-Foulkes like correction to forces

   POTIM  = 0.5000    time-step for ionic-motion
   TEIN   =    0.0    initial temperature
   TEBEG  =    0.0;   TEEND  =   0.0 temperature during run
   SMASS  =  -3.00    Nose mass-parameter (am)
   estimated Nose-frequenzy (Omega)   =  0.10E-29 period in steps = 0.13E+47 mass=  -0.118E-26a.u.
   SCALEE = 1.0000    scale energy and forces
   NPACO  =    256;   APACO  = 16.0  distance and # of slots for P.C.
   PSTRESS=    0.0 pullay stress

  Mass of Ions in am
   POMASS =  10.81 95.94
  Ionic Valenz
   ZVAL   =   3.00 14.00
  Atomic Wigner-Seitz radii
   RWIGS  =  -1.00 -1.00
  virtual crystal weights 
   VCA    =   1.00  1.00
   NELECT =      40.0000    total number of electrons
   NUPDOWN=      -1.0000    fix difference up-down

 DOS related values:
   EMIN   =  10.00;   EMAX   =-10.00  energy-range for DOS
   EFERMI =   0.00
   ISMEAR =     0;   SIGMA  =   0.02  broadening in eV -4-tet -1-fermi 0-gaus

 Electronic relaxation 2 (details)
   IALGO  =     58    algorithm
   LDIAG  =      T    sub-space diagonalisation (order eigenvalues)
   LSUBROT=      F    optimize rotation matrix (better conditioning)
   TURBO    =      0    0=normal 1=particle mesh
   IRESTART =      0    0=no restart 2=restart with 2 vectors
   NREBOOT  =      0    no. of reboots
   NMIN     =      0    reboot dimension
   EREF     =   0.00    reference energy to select bands
   IMIX   =      4    mixing-type and parameters
     AMIX     =   0.40;   BMIX     =  1.00
     AMIX_MAG =   1.60;   BMIX_MAG =  1.00
     AMIN     =   0.10
     WC   =   100.;   INIMIX=   1;  MIXPRE=   1;  MAXMIX= -45

 Intra band minimization:
   WEIMIN = 0.0000     energy-eigenvalue tresh-hold
   EBREAK =  0.10E-10  absolut break condition
   DEPER  =   0.30     relativ break condition  

   TIME   =   0.40     timestep for ELM

  volume/ion in A,a.u.               =       9.13        61.61
  Fermi-wavevector in a.u.,A,eV,Ry     =   1.474210  2.785852 29.569458  2.173294
  Thomas-Fermi vector in A             =   2.589009
 
 Write flags
   LWAVE        =      T    write WAVECAR
   LDOWNSAMPLE  =      F    k-point downsampling of WAVECAR
   LCHARG       =      T    write CHGCAR
   LVTOT        =      F    write LOCPOT, total local potential
   LVHAR        =      F    write LOCPOT, Hartree potential only
   LELF         =      F    write electronic localiz. function (ELF)
   LORBIT       =      0    0 simple, 1 ext, 2 COOP (PROOUT), +10 PAW based schemes


 Dipole corrections
   LMONO  =      F    monopole corrections only (constant potential shift)
   LDIPOL =      F    correct potential (dipole corrections)
   IDIPOL =      0    1-x, 2-y, 3-z, 4-all directions 
   EPSILON=  1.0000000 bulk dielectric constant

 Exchange correlation treatment:
   GGA     =    --    GGA type
   LEXCH   =     8    internal setting for exchange type
   VOSKOWN=      0    Vosko Wilk Nusair interpolation
   LHFCALC =     F    Hartree Fock is set to
   LHFONE  =     F    Hartree Fock one center treatment
   AEXX    =    0.0000 exact exchange contribution

 Linear response parameters
   LEPSILON=     F    determine dielectric tensor
   LRPA    =     F    only Hartree local field effects (RPA)
   LNABLA  =     F    use nabla operator in PAW spheres
   LVEL    =     F    velocity operator in full k-point grid
   LINTERFAST=   F  fast interpolation
   KINTER  =     0    interpolate to denser k-point grid
   CSHIFT  =0.1000    complex shift for real part using Kramers Kronig
   OMEGAMAX=  -1.0    maximum frequency
   DEG_THRESHOLD= 0.2000000E-02 threshold for treating states as degnerate
   RTIME   =   -0.100 relaxation time in fs
  (WPLASMAI=    0.000 imaginary part of plasma frequency in eV, 0.658/RTIME)
   DFIELD  = 0.0000000 0.0000000 0.0000000 field for delta impulse in time
 
 Orbital magnetization related:
   ORBITALMAG=     F  switch on orbital magnetization
   LCHIMAG   =     F  perturbation theory with respect to B field
   DQ        =  0.001000  dq finite difference perturbation B field
   LLRAUG    =     F  two centre corrections for induced B field



--------------------------------------------------------------------------------------------------------


 Static calculation
 charge density and potential will be updated during run
 non-spin polarized calculation
 Conjugate gradient for all bands (Freysoldt, et al. PRB 79, 241103 (2009))
 preconditioned conjugated gradient                                        
 perform sub-space diagonalisation
    before iterative eigenvector-optimisation
 modified Broyden-mixing scheme, WC =      100.0
 initial mixing is a Kerker type mixing with AMIX =  0.4000 and BMIX =      1.0000
 Hartree-type preconditioning will be used
 using additional bands            4
 reciprocal scheme for non local part
 use partial core corrections
 no Harris-corrections to forces 
 use gradient corrections 
 use of overlap-Matrix (Vanderbilt PP)
 Gauss-broadening in eV      SIGMA  =   0.02


--------------------------------------------------------------------------------------------------------


  energy-cutoff  :      600.00
  volume of cell :       54.78
      direct lattice vectors                 reciprocal lattice vectors
     2.942840200 -0.003035440  6.542142320     0.339254882 -0.184112041  0.000163285
     1.401249070  2.587820000  6.542142320     0.000034989  0.385993724  0.000163355
    -0.005099990 -0.003035440  7.173556490    -0.309425684 -0.184112121  0.139102978

  length of vectors
     7.173558656  7.173558214  7.173558945     0.385993711  0.385993760  0.385993737


 
 k-points in units of 2pi/SCALE and weight: EA                                      
   0.00000000  0.00000000  0.00000000       0.000
   0.02609653 -0.01416246  0.00001256       0.003
   0.05219306 -0.02832493  0.00002512       0.003
   0.07828959 -0.04248739  0.00003768       0.003
   0.10438612 -0.05664986  0.00005024       0.003
   0.13048265 -0.07081232  0.00006280       0.003
   0.15657918 -0.08497479  0.00007536       0.003
   0.02609922  0.01552936  0.00002513       0.003
   0.05219575  0.00136690  0.00003769       0.005
   0.07829228 -0.01279557  0.00005025       0.005
   0.10438881 -0.02695803  0.00006281       0.005
   0.13048534 -0.04112050  0.00007537       0.005
   0.15658187 -0.05528296  0.00008793       0.005
  -0.15657648  0.11466661 -0.00006280       0.005
  -0.13047996  0.10050415 -0.00005024       0.005
  -0.10438343  0.08634168 -0.00003768       0.005
  -0.07828690  0.07217922 -0.00002512       0.005
  -0.05219037  0.05801675 -0.00001255       0.005
  -0.02609384  0.04385429  0.00000001       0.003
   0.05219844  0.03105872  0.00005025       0.003
   0.07829497  0.01689626  0.00006281       0.005
   0.10439150  0.00273379  0.00007537       0.005
   0.13048803 -0.01142867  0.00008793       0.005
   0.15658456 -0.02559114  0.00010049       0.005
  -0.15657379  0.14435844 -0.00005023       0.005
  -0.13047726  0.13019597 -0.00003767       0.005
  -0.10438073  0.11603351 -0.00002511       0.005
  -0.07828421  0.10187104 -0.00001255       0.005
  -0.05218768  0.08770858  0.00000001       0.003
   0.07829766  0.04658808  0.00007538       0.003
   0.10439419  0.03242562  0.00008794       0.005
   0.13049072  0.01826315  0.00010050       0.005
   0.15658725  0.00410069  0.00011306       0.005
  -0.15657110  0.17405026 -0.00003766       0.005
  -0.13047457  0.15988780 -0.00002510       0.005
  -0.10437804  0.14572533 -0.00001254       0.005
  -0.07828151  0.13156287  0.00000002       0.003
   0.10439688  0.06211744  0.00010050       0.003
   0.13049341  0.04795498  0.00011307       0.005
   0.15658994  0.03379251  0.00012563       0.005
  -0.15656841  0.20374209 -0.00002510       0.005
  -0.13047188  0.18957962 -0.00001254       0.005
  -0.10437535  0.17541716  0.00000002       0.003
   0.13049610  0.07764680  0.00012563       0.003
   0.15659263  0.06348434  0.00013819       0.005
  -0.15656572  0.23343391 -0.00001253       0.005
  -0.13046919  0.21927145  0.00000003       0.003
   0.15659532  0.09317616  0.00015076       0.003
  -0.15656303  0.26312574  0.00000003       0.003
   0.00229725  0.00136689  0.01072536       0.001
   0.02839377 -0.01279558  0.01073792       0.003
   0.05449030 -0.02695804  0.01075048       0.003
   0.08058683 -0.04112050  0.01076304       0.003
   0.10668336 -0.05528297  0.01077560       0.003
   0.13277989 -0.06944543  0.01078816       0.003
  -0.18037846  0.10050414  0.01063743       0.003
  -0.15428193  0.08634168  0.01064999       0.003
  -0.12818540  0.07217921  0.01066255       0.003
  -0.10208887  0.05801675  0.01067511       0.003
  -0.07599234  0.04385428  0.01068767       0.003
  -0.04989581  0.02969182  0.01070023       0.003
   0.02839647  0.01689625  0.01075048       0.003
   0.05449300  0.00273378  0.01076304       0.005
   0.08058952 -0.01142868  0.01077560       0.005
   0.10668605 -0.02559114  0.01078816       0.005
   0.13278258 -0.03975361  0.01080072       0.005
  -0.18037577  0.13019597  0.01065000       0.005
  -0.15427924  0.11603350  0.01066256       0.005
  -0.12818271  0.10187104  0.01067512       0.005
  -0.10208618  0.08770857  0.01068768       0.005
  -0.07598965  0.07354611  0.01070024       0.005
  -0.04989312  0.05938364  0.01071280       0.005
   0.05449569  0.03242561  0.01077561       0.003
   0.08059222  0.01826315  0.01078817       0.005
   0.10668875  0.00410068  0.01080073       0.005
   0.13278527 -0.01006178  0.01081329       0.005
  -0.18037308  0.15988779  0.01066256       0.005
  -0.15427655  0.14572533  0.01067512       0.005
  -0.12818002  0.13156286  0.01068768       0.005
  -0.10208349  0.11740040  0.01070025       0.005
  -0.07598696  0.10323793  0.01071281       0.005
  -0.04989043  0.08907547  0.01072537       0.005
   0.08059491  0.04795497  0.01080073       0.003
   0.10669144  0.03379251  0.01081329       0.005
   0.13278797  0.01963004  0.01082585       0.005
  -0.18037039  0.18957962  0.01067513       0.005
  -0.15427386  0.17541715  0.01068769       0.005
  -0.12817733  0.16125469  0.01070025       0.005
  -0.10208080  0.14709222  0.01071281       0.005
  -0.07598427  0.13292976  0.01072537       0.005
  -0.04988774  0.11876729  0.01073793       0.005
   0.10669413  0.06348433  0.01082586       0.003
   0.13279066  0.04932187  0.01083842       0.005
  -0.18036769  0.21927144  0.01068770       0.005
  -0.15427117  0.20510898  0.01070026       0.005
  -0.12817464  0.19094651  0.01071282       0.005
  -0.10207811  0.17678405  0.01072538       0.005
  -0.07598158  0.16262158  0.01073794       0.005
  -0.04988505  0.14845912  0.01075050       0.005
   0.13279335  0.07901369  0.01085099       0.003
  -0.18036500  0.24896327  0.01070026       0.005
  -0.15426847  0.23480080  0.01071282       0.005
  -0.12817194  0.22063834  0.01072538       0.005
  -0.10207542  0.20647587  0.01073794       0.005
  -0.07597889  0.19231341  0.01075050       0.005
  -0.04988236  0.17815094  0.01076306       0.005
  -0.18039730 -0.10733863  0.01054947       0.003
  -0.15430077 -0.12150110  0.01056203       0.005
  -0.12820424 -0.13566356  0.01057459       0.005
  -0.10210771 -0.14982603  0.01058715       0.005
  -0.07601118 -0.16398849  0.01059971       0.005
  -0.15429808 -0.09180927  0.01057460       0.003
  -0.12820155 -0.10597174  0.01058716       0.005
  -0.10210502 -0.12013420  0.01059972       0.005
  -0.07600849 -0.13429667  0.01061228       0.005
  -0.12819886 -0.07627991  0.01059972       0.003
  -0.10210233 -0.09044238  0.01061228       0.005
  -0.07600580 -0.10460484  0.01062485       0.005
  -0.10209964 -0.06075055  0.01062485       0.003
  -0.07600311 -0.07491302  0.01063741       0.005
  -0.07600042 -0.04522119  0.01064998       0.003
   0.00459449  0.00273378  0.02145071       0.001
   0.03069102 -0.01142869  0.02146327       0.003
   0.05678755 -0.02559115  0.02147583       0.003
   0.08288408 -0.03975362  0.02148839       0.003
   0.10898061 -0.05391608  0.02150095       0.003
  -0.20417774  0.11603350  0.02135023       0.003
  -0.17808122  0.10187103  0.02136279       0.003
  -0.15198469  0.08770857  0.02137535       0.003
  -0.12588816  0.07354610  0.02138791       0.003
  -0.09979163  0.05938364  0.02140047       0.003
   0.03069371  0.01826314  0.02147584       0.003
   0.05679024  0.00410067  0.02148840       0.005
   0.08288677 -0.01006179  0.02150096       0.005
   0.10898330 -0.02422426  0.02151352       0.005
  -0.20417505  0.14572532  0.02136279       0.005
  -0.17807852  0.13156286  0.02137535       0.005
  -0.15198199  0.11740039  0.02138791       0.005
  -0.12588547  0.10323793  0.02140047       0.005
  -0.09978894  0.08907546  0.02141303       0.005
   0.05679293  0.03379250  0.02150096       0.003
   0.08288946  0.01963003  0.02151352       0.005
   0.10898599  0.00546757  0.02152608       0.005
  -0.20417236  0.17541715  0.02137536       0.005
  -0.17807583  0.16125468  0.02138792       0.005
  -0.15197930  0.14709222  0.02140048       0.005
  -0.12588277  0.13292975  0.02141304       0.005
  -0.09978624  0.11876729  0.02142560       0.005
   0.08289215  0.04932186  0.02152609       0.003
   0.10898868  0.03515939  0.02153865       0.005
  -0.20416967  0.20510897  0.02138792       0.005
  -0.17807314  0.19094651  0.02140049       0.005
  -0.15197661  0.17678404  0.02141305       0.005
  -0.12588008  0.16262158  0.02142561       0.005
  -0.09978355  0.14845911  0.02143817       0.005
   0.10899137  0.06485122  0.02155122       0.003
  -0.20416698  0.23480080  0.02140049       0.005
  -0.17807045  0.22063833  0.02141305       0.005
  -0.15197392  0.20647587  0.02142561       0.005
  -0.12587739  0.19231340  0.02143817       0.005
  -0.09978086  0.17815094  0.02145073       0.005
  -0.20419928 -0.12150110  0.02124970       0.003
  -0.17810275 -0.13566357  0.02126226       0.005
  -0.15200622 -0.14982603  0.02127482       0.005
  -0.12590969 -0.16398850  0.02128738       0.005
  -0.17810006 -0.10597174  0.02127483       0.003
  -0.15200353 -0.12013421  0.02128739       0.005
  -0.12590700 -0.13429667  0.02129995       0.005
  -0.15200083 -0.09044238  0.02129995       0.003
  -0.12590431 -0.10460485  0.02131251       0.005
  -0.12590161 -0.07491302  0.02132508       0.003
   0.00689174  0.00410067  0.03217607       0.001
   0.03298826 -0.01006180  0.03218863       0.003
   0.05908479 -0.02422426  0.03220119       0.003
   0.08518132 -0.03838673  0.03221375       0.003
  -0.22797703  0.13156285  0.03206302       0.003
  -0.20188050  0.11740039  0.03207558       0.003
  -0.17578397  0.10323792  0.03208814       0.003
  -0.14968744  0.08907546  0.03210070       0.003
   0.03299096  0.01963003  0.03220119       0.003
   0.05908749  0.00546756  0.03221375       0.005
   0.08518401 -0.00869490  0.03222631       0.005
  -0.22797434  0.16125468  0.03207559       0.005
  -0.20187781  0.14709221  0.03208815       0.005
  -0.17578128  0.13292975  0.03210071       0.005
  -0.14968475  0.11876728  0.03211327       0.005
   0.05909018  0.03515939  0.03222632       0.003
   0.08518671  0.02099692  0.03223888       0.005
  -0.22797165  0.19094650  0.03208815       0.005
  -0.20187512  0.17678404  0.03210071       0.005
  -0.17577859  0.16262157  0.03211327       0.005
  -0.14968206  0.14845911  0.03212584       0.005
   0.08518940  0.05068875  0.03225144       0.003
  -0.22796895  0.22063833  0.03210072       0.005
  -0.20187243  0.20647586  0.03211328       0.005
  -0.17577590  0.19231340  0.03212584       0.005
  -0.14967937  0.17815093  0.03213840       0.005
  -0.22800125 -0.13566357  0.03194993       0.003
  -0.20190472 -0.14982604  0.03196249       0.005
  -0.17580819 -0.16398850  0.03197505       0.005
  -0.20190203 -0.12013421  0.03197506       0.003
  -0.17580550 -0.13429668  0.03198762       0.005
  -0.17580281 -0.10460485  0.03200018       0.003
   0.00918898  0.00546756  0.04290142       0.001
   0.03528551 -0.00869491  0.04291398       0.003
   0.06138204 -0.02285737  0.04292654       0.003
  -0.25177631  0.14709220  0.04277582       0.003
  -0.22567978  0.13292974  0.04278838       0.003
  -0.19958325  0.11876728  0.04280094       0.003
   0.03528820  0.02099692  0.04292655       0.003
   0.06138473  0.00683445  0.04293911       0.005
  -0.25177362  0.17678403  0.04278838       0.005
  -0.22567709  0.16262156  0.04280094       0.005
  -0.19958056  0.14845910  0.04281350       0.005
   0.06138742  0.03652628  0.04295167       0.003
  -0.25177093  0.20647585  0.04280095       0.005
  -0.22567440  0.19231339  0.04281351       0.005
  -0.19957787  0.17815092  0.04282607       0.005
  -0.25180323 -0.14982604  0.04265016       0.003
  -0.22570670 -0.16398851  0.04266272       0.005
  -0.22570401 -0.13429668  0.04267529       0.003
   0.01148623  0.00683445  0.05362678       0.001
   0.03758276 -0.00732802  0.05363934       0.003
  -0.27557560  0.16262156  0.05348861       0.003
  -0.24947907  0.14845909  0.05350117       0.003
   0.03758545  0.02236381  0.05365190       0.003
  -0.27557291  0.19231338  0.05350118       0.005
  -0.24947638  0.17815092  0.05351374       0.005
  -0.27560520 -0.16398852  0.05335039       0.003
   0.01378347  0.00820134  0.06435213       0.001
  -0.29937488  0.17815091  0.06420141       0.003
 
 k-points in reciprocal lattice and weights: EA                                      
   0.00000000  0.00000000  0.00000000       0.000
   0.07692308  0.00000000 -0.00000000       0.003
   0.15384615  0.00000000  0.00000000       0.003
   0.23076923  0.00000000 -0.00000000       0.003
   0.30769231  0.00000000  0.00000000       0.003
   0.38461538  0.00000000  0.00000000       0.003
   0.46153846  0.00000000 -0.00000000       0.003
   0.07692308  0.07692308  0.00000000       0.003
   0.15384615  0.07692308  0.00000000       0.005
   0.23076923  0.07692308  0.00000000       0.005
   0.30769231  0.07692308  0.00000000       0.005
   0.38461538  0.07692308  0.00000000       0.005
   0.46153846  0.07692308  0.00000000       0.005
  -0.46153846  0.07692308  0.00000000       0.005
  -0.38461538  0.07692308  0.00000000       0.005
  -0.30769231  0.07692308  0.00000000       0.005
  -0.23076923  0.07692308  0.00000000       0.005
  -0.15384615  0.07692308 -0.00000000       0.005
  -0.07692308  0.07692308  0.00000000       0.003
   0.15384615  0.15384615  0.00000000       0.003
   0.23076923  0.15384615  0.00000000       0.005
   0.30769231  0.15384615  0.00000000       0.005
   0.38461538  0.15384615  0.00000000       0.005
   0.46153846  0.15384615  0.00000000       0.005
  -0.46153846  0.15384615  0.00000000       0.005
  -0.38461538  0.15384615  0.00000000       0.005
  -0.30769231  0.15384615 -0.00000000       0.005
  -0.23076923  0.15384615 -0.00000000       0.005
  -0.15384615  0.15384615 -0.00000000       0.003
   0.23076923  0.23076923  0.00000000       0.003
   0.30769231  0.23076923  0.00000000       0.005
   0.38461538  0.23076923  0.00000000       0.005
   0.46153846  0.23076923  0.00000000       0.005
  -0.46153846  0.23076923  0.00000000       0.005
  -0.38461538  0.23076923  0.00000000       0.005
  -0.30769231  0.23076923 -0.00000000       0.005
  -0.23076923  0.23076923 -0.00000000       0.003
   0.30769231  0.30769231  0.00000000       0.003
   0.38461538  0.30769231 -0.00000000       0.005
   0.46153846  0.30769231 -0.00000000       0.005
  -0.46153846  0.30769231  0.00000000       0.005
  -0.38461538  0.30769231 -0.00000000       0.005
  -0.30769231  0.30769231 -0.00000000       0.003
   0.38461538  0.38461538  0.00000000       0.003
   0.46153846  0.38461538  0.00000000       0.005
  -0.46153846  0.38461538  0.00000000       0.005
  -0.38461538  0.38461538 -0.00000000       0.003
   0.46153846  0.46153846  0.00000000       0.003
  -0.46153846  0.46153846  0.00000000       0.003
   0.07692308  0.07692308  0.07692308       0.001
   0.15384615  0.07692308  0.07692308       0.003
   0.23076923  0.07692308  0.07692308       0.003
   0.30769231  0.07692308  0.07692308       0.003
   0.38461538  0.07692308  0.07692308       0.003
   0.46153846  0.07692308  0.07692308       0.003
  -0.46153846  0.07692308  0.07692308       0.003
  -0.38461538  0.07692308  0.07692308       0.003
  -0.30769231  0.07692308  0.07692308       0.003
  -0.23076923  0.07692308  0.07692308       0.003
  -0.15384615  0.07692308  0.07692308       0.003
  -0.07692308  0.07692308  0.07692308       0.003
   0.15384615  0.15384615  0.07692308       0.003
   0.23076923  0.15384615  0.07692308       0.005
   0.30769231  0.15384615  0.07692308       0.005
   0.38461538  0.15384615  0.07692308       0.005
   0.46153846  0.15384615  0.07692308       0.005
  -0.46153846  0.15384615  0.07692308       0.005
  -0.38461538  0.15384615  0.07692308       0.005
  -0.30769231  0.15384615  0.07692308       0.005
  -0.23076923  0.15384615  0.07692308       0.005
  -0.15384615  0.15384615  0.07692308       0.005
  -0.07692308  0.15384615  0.07692308       0.005
   0.23076923  0.23076923  0.07692308       0.003
   0.30769231  0.23076923  0.07692308       0.005
   0.38461538  0.23076923  0.07692308       0.005
   0.46153846  0.23076923  0.07692308       0.005
  -0.46153846  0.23076923  0.07692308       0.005
  -0.38461538  0.23076923  0.07692308       0.005
  -0.30769231  0.23076923  0.07692308       0.005
  -0.23076923  0.23076923  0.07692308       0.005
  -0.15384615  0.23076923  0.07692308       0.005
  -0.07692308  0.23076923  0.07692308       0.005
   0.30769231  0.30769231  0.07692308       0.003
   0.38461538  0.30769231  0.07692308       0.005
   0.46153846  0.30769231  0.07692308       0.005
  -0.46153846  0.30769231  0.07692308       0.005
  -0.38461538  0.30769231  0.07692308       0.005
  -0.30769231  0.30769231  0.07692308       0.005
  -0.23076923  0.30769231  0.07692308       0.005
  -0.15384615  0.30769231  0.07692308       0.005
  -0.07692308  0.30769231  0.07692308       0.005
   0.38461538  0.38461538  0.07692308       0.003
   0.46153846  0.38461538  0.07692308       0.005
  -0.46153846  0.38461538  0.07692308       0.005
  -0.38461538  0.38461538  0.07692308       0.005
  -0.30769231  0.38461538  0.07692308       0.005
  -0.23076923  0.38461538  0.07692308       0.005
  -0.15384615  0.38461538  0.07692308       0.005
  -0.07692308  0.38461538  0.07692308       0.005
   0.46153846  0.46153846  0.07692308       0.003
  -0.46153846  0.46153846  0.07692308       0.005
  -0.38461538  0.46153846  0.07692308       0.005
  -0.30769231  0.46153846  0.07692308       0.005
  -0.23076923  0.46153846  0.07692308       0.005
  -0.15384615  0.46153846  0.07692308       0.005
  -0.07692308  0.46153846  0.07692308       0.005
  -0.46153846 -0.46153846  0.07692308       0.003
  -0.38461538 -0.46153846  0.07692308       0.005
  -0.30769231 -0.46153846  0.07692308       0.005
  -0.23076923 -0.46153846  0.07692308       0.005
  -0.15384615 -0.46153846  0.07692308       0.005
  -0.38461538 -0.38461538  0.07692308       0.003
  -0.30769231 -0.38461538  0.07692308       0.005
  -0.23076923 -0.38461538  0.07692308       0.005
  -0.15384615 -0.38461538  0.07692308       0.005
  -0.30769231 -0.30769231  0.07692308       0.003
  -0.23076923 -0.30769231  0.07692308       0.005
  -0.15384615 -0.30769231  0.07692308       0.005
  -0.23076923 -0.23076923  0.07692308       0.003
  -0.15384615 -0.23076923  0.07692308       0.005
  -0.15384615 -0.15384615  0.07692308       0.003
   0.15384615  0.15384615  0.15384615       0.001
   0.23076923  0.15384615  0.15384615       0.003
   0.30769231  0.15384615  0.15384615       0.003
   0.38461538  0.15384615  0.15384615       0.003
   0.46153846  0.15384615  0.15384615       0.003
  -0.46153846  0.15384615  0.15384615       0.003
  -0.38461538  0.15384615  0.15384615       0.003
  -0.30769231  0.15384615  0.15384615       0.003
  -0.23076923  0.15384615  0.15384615       0.003
  -0.15384615  0.15384615  0.15384615       0.003
   0.23076923  0.23076923  0.15384615       0.003
   0.30769231  0.23076923  0.15384615       0.005
   0.38461538  0.23076923  0.15384615       0.005
   0.46153846  0.23076923  0.15384615       0.005
  -0.46153846  0.23076923  0.15384615       0.005
  -0.38461538  0.23076923  0.15384615       0.005
  -0.30769231  0.23076923  0.15384615       0.005
  -0.23076923  0.23076923  0.15384615       0.005
  -0.15384615  0.23076923  0.15384615       0.005
   0.30769231  0.30769231  0.15384615       0.003
   0.38461538  0.30769231  0.15384615       0.005
   0.46153846  0.30769231  0.15384615       0.005
  -0.46153846  0.30769231  0.15384615       0.005
  -0.38461538  0.30769231  0.15384615       0.005
  -0.30769231  0.30769231  0.15384615       0.005
  -0.23076923  0.30769231  0.15384615       0.005
  -0.15384615  0.30769231  0.15384615       0.005
   0.38461538  0.38461538  0.15384615       0.003
   0.46153846  0.38461538  0.15384615       0.005
  -0.46153846  0.38461538  0.15384615       0.005
  -0.38461538  0.38461538  0.15384615       0.005
  -0.30769231  0.38461538  0.15384615       0.005
  -0.23076923  0.38461538  0.15384615       0.005
  -0.15384615  0.38461538  0.15384615       0.005
   0.46153846  0.46153846  0.15384615       0.003
  -0.46153846  0.46153846  0.15384615       0.005
  -0.38461538  0.46153846  0.15384615       0.005
  -0.30769231  0.46153846  0.15384615       0.005
  -0.23076923  0.46153846  0.15384615       0.005
  -0.15384615  0.46153846  0.15384615       0.005
  -0.46153846 -0.46153846  0.15384615       0.003
  -0.38461538 -0.46153846  0.15384615       0.005
  -0.30769231 -0.46153846  0.15384615       0.005
  -0.23076923 -0.46153846  0.15384615       0.005
  -0.38461538 -0.38461538  0.15384615       0.003
  -0.30769231 -0.38461538  0.15384615       0.005
  -0.23076923 -0.38461538  0.15384615       0.005
  -0.30769231 -0.30769231  0.15384615       0.003
  -0.23076923 -0.30769231  0.15384615       0.005
  -0.23076923 -0.23076923  0.15384615       0.003
   0.23076923  0.23076923  0.23076923       0.001
   0.30769231  0.23076923  0.23076923       0.003
   0.38461538  0.23076923  0.23076923       0.003
   0.46153846  0.23076923  0.23076923       0.003
  -0.46153846  0.23076923  0.23076923       0.003
  -0.38461538  0.23076923  0.23076923       0.003
  -0.30769231  0.23076923  0.23076923       0.003
  -0.23076923  0.23076923  0.23076923       0.003
   0.30769231  0.30769231  0.23076923       0.003
   0.38461538  0.30769231  0.23076923       0.005
   0.46153846  0.30769231  0.23076923       0.005
  -0.46153846  0.30769231  0.23076923       0.005
  -0.38461538  0.30769231  0.23076923       0.005
  -0.30769231  0.30769231  0.23076923       0.005
  -0.23076923  0.30769231  0.23076923       0.005
   0.38461538  0.38461538  0.23076923       0.003
   0.46153846  0.38461538  0.23076923       0.005
  -0.46153846  0.38461538  0.23076923       0.005
  -0.38461538  0.38461538  0.23076923       0.005
  -0.30769231  0.38461538  0.23076923       0.005
  -0.23076923  0.38461538  0.23076923       0.005
   0.46153846  0.46153846  0.23076923       0.003
  -0.46153846  0.46153846  0.23076923       0.005
  -0.38461538  0.46153846  0.23076923       0.005
  -0.30769231  0.46153846  0.23076923       0.005
  -0.23076923  0.46153846  0.23076923       0.005
  -0.46153846 -0.46153846  0.23076923       0.003
  -0.38461538 -0.46153846  0.23076923       0.005
  -0.30769231 -0.46153846  0.23076923       0.005
  -0.38461538 -0.38461538  0.23076923       0.003
  -0.30769231 -0.38461538  0.23076923       0.005
  -0.30769231 -0.30769231  0.23076923       0.003
   0.30769231  0.30769231  0.30769231       0.001
   0.38461538  0.30769231  0.30769231       0.003
   0.46153846  0.30769231  0.30769231       0.003
  -0.46153846  0.30769231  0.30769231       0.003
  -0.38461538  0.30769231  0.30769231       0.003
  -0.30769231  0.30769231  0.30769231       0.003
   0.38461538  0.38461538  0.30769231       0.003
   0.46153846  0.38461538  0.30769231       0.005
  -0.46153846  0.38461538  0.30769231       0.005
  -0.38461538  0.38461538  0.30769231       0.005
  -0.30769231  0.38461538  0.30769231       0.005
   0.46153846  0.46153846  0.30769231       0.003
  -0.46153846  0.46153846  0.30769231       0.005
  -0.38461538  0.46153846  0.30769231       0.005
  -0.30769231  0.46153846  0.30769231       0.005
  -0.46153846 -0.46153846  0.30769231       0.003
  -0.38461538 -0.46153846  0.30769231       0.005
  -0.38461538 -0.38461538  0.30769231       0.003
   0.38461538  0.38461538  0.38461538       0.001
   0.46153846  0.38461538  0.38461538       0.003
  -0.46153846  0.38461538  0.38461538       0.003
  -0.38461538  0.38461538  0.38461538       0.003
   0.46153846  0.46153846  0.38461538       0.003
  -0.46153846  0.46153846  0.38461538       0.005
  -0.38461538  0.46153846  0.38461538       0.005
  -0.46153846 -0.46153846  0.38461538       0.003
   0.46153846  0.46153846  0.46153846       0.001
  -0.46153846  0.46153846  0.46153846       0.003
 
 position of ions in fractional coordinates (direct lattice) 
   0.81833097  0.81833097  0.81833097
   0.18166903  0.18166903  0.18166903
   0.33210285  0.33210285  0.33210285
   0.66789715  0.66789715  0.66789715
   0.92434714  0.92434714  0.92434714
   0.07565286  0.07565286  0.07565286
 
 position of ions in cartesian coordinates  (Angst):
   3.55072931  2.11272526 16.57761878
   0.78825997  0.46902386  3.68022235
   1.44099071  0.85740624  6.72768677
   2.89799857  1.72434288 13.53015436
   4.01073233  2.38643242 18.72527751
   0.32825695  0.19531670  1.53256362
 


--------------------------------------------------------------------------------------------------------


 k-point   1 :   0.0000 0.0000 0.0000  plane waves:    1809
 k-point   2 :   0.0769 0.0000-0.0000  plane waves:    1812
 k-point   3 :   0.1538 0.0000 0.0000  plane waves:    1826
 k-point   4 :   0.2308 0.0000-0.0000  plane waves:    1826
 k-point   5 :   0.3077 0.0000 0.0000  plane waves:    1818
 k-point   6 :   0.3846 0.0000 0.0000  plane waves:    1831
 k-point   7 :   0.4615 0.0000-0.0000  plane waves:    1826
 k-point   8 :   0.0769 0.0769 0.0000  plane waves:    1808
 k-point   9 :   0.1538 0.0769 0.0000  plane waves:    1824
 k-point  10 :   0.2308 0.0769 0.0000  plane waves:    1826
 k-point  11 :   0.3077 0.0769 0.0000  plane waves:    1826
 k-point  12 :   0.3846 0.0769 0.0000  plane waves:    1817
 k-point  13 :   0.4615 0.0769 0.0000  plane waves:    1829
 k-point  14 :  -0.4615 0.0769 0.0000  plane waves:    1828
 k-point  15 :  -0.3846 0.0769 0.0000  plane waves:    1837
 k-point  16 :  -0.3077 0.0769 0.0000  plane waves:    1823
 k-point  17 :  -0.2308 0.0769 0.0000  plane waves:    1821
 k-point  18 :  -0.1538 0.0769-0.0000  plane waves:    1822
 k-point  19 :  -0.0769 0.0769 0.0000  plane waves:    1826
 k-point  20 :   0.1538 0.1538 0.0000  plane waves:    1820
 k-point  21 :   0.2308 0.1538 0.0000  plane waves:    1822
 k-point  22 :   0.3077 0.1538 0.0000  plane waves:    1825
 k-point  23 :   0.3846 0.1538 0.0000  plane waves:    1823
 k-point  24 :   0.4615 0.1538 0.0000  plane waves:    1824
 k-point  25 :  -0.4615 0.1538 0.0000  plane waves:    1840
 k-point  26 :  -0.3846 0.1538 0.0000  plane waves:    1834
 k-point  27 :  -0.3077 0.1538-0.0000  plane waves:    1836
 k-point  28 :  -0.2308 0.1538-0.0000  plane waves:    1825
 k-point  29 :  -0.1538 0.1538-0.0000  plane waves:    1816
 k-point  30 :   0.2308 0.2308 0.0000  plane waves:    1823
 k-point  31 :   0.3077 0.2308 0.0000  plane waves:    1828
 k-point  32 :   0.3846 0.2308 0.0000  plane waves:    1828
 k-point  33 :   0.4615 0.2308 0.0000  plane waves:    1842
 k-point  34 :  -0.4615 0.2308 0.0000  plane waves:    1842
 k-point  35 :  -0.3846 0.2308 0.0000  plane waves:    1847
 k-point  36 :  -0.3077 0.2308-0.0000  plane waves:    1837
 k-point  37 :  -0.2308 0.2308-0.0000  plane waves:    1832
 k-point  38 :   0.3077 0.3077 0.0000  plane waves:    1819
 k-point  39 :   0.3846 0.3077-0.0000  plane waves:    1827
 k-point  40 :   0.4615 0.3077-0.0000  plane waves:    1837
 k-point  41 :  -0.4615 0.3077 0.0000  plane waves:    1851
 k-point  42 :  -0.3846 0.3077-0.0000  plane waves:    1845
 k-point  43 :  -0.3077 0.3077-0.0000  plane waves:    1840
 k-point  44 :   0.3846 0.3846 0.0000  plane waves:    1817
 k-point  45 :   0.4615 0.3846 0.0000  plane waves:    1832
 k-point  46 :  -0.4615 0.3846 0.0000  plane waves:    1843
 k-point  47 :  -0.3846 0.3846-0.0000  plane waves:    1850
 k-point  48 :   0.4615 0.4615 0.0000  plane waves:    1829
 k-point  49 :  -0.4615 0.4615 0.0000  plane waves:    1834
 k-point  50 :   0.0769 0.0769 0.0769  plane waves:    1818
 k-point  51 :   0.1538 0.0769 0.0769  plane waves:    1816
 k-point  52 :   0.2308 0.0769 0.0769  plane waves:    1812
 k-point  53 :   0.3077 0.0769 0.0769  plane waves:    1829
 k-point  54 :   0.3846 0.0769 0.0769  plane waves:    1824
 k-point  55 :   0.4615 0.0769 0.0769  plane waves:    1827
 k-point  56 :  -0.4615 0.0769 0.0769  plane waves:    1824
 k-point  57 :  -0.3846 0.0769 0.0769  plane waves:    1823
 k-point  58 :  -0.3077 0.0769 0.0769  plane waves:    1830
 k-point  59 :  -0.2308 0.0769 0.0769  plane waves:    1819
 k-point  60 :  -0.1538 0.0769 0.0769  plane waves:    1813
 k-point  61 :  -0.0769 0.0769 0.0769  plane waves:    1828
 k-point  62 :   0.1538 0.1538 0.0769  plane waves:    1811
 k-point  63 :   0.2308 0.1538 0.0769  plane waves:    1819
 k-point  64 :   0.3077 0.1538 0.0769  plane waves:    1827
 k-point  65 :   0.3846 0.1538 0.0769  plane waves:    1827
 k-point  66 :   0.4615 0.1538 0.0769  plane waves:    1822
 k-point  67 :  -0.4615 0.1538 0.0769  plane waves:    1832
 k-point  68 :  -0.3846 0.1538 0.0769  plane waves:    1833
 k-point  69 :  -0.3077 0.1538 0.0769  plane waves:    1837
 k-point  70 :  -0.2308 0.1538 0.0769  plane waves:    1830
 k-point  71 :  -0.1538 0.1538 0.0769  plane waves:    1821
 k-point  72 :  -0.0769 0.1538 0.0769  plane waves:    1820
 k-point  73 :   0.2308 0.2308 0.0769  plane waves:    1823
 k-point  74 :   0.3077 0.2308 0.0769  plane waves:    1820
 k-point  75 :   0.3846 0.2308 0.0769  plane waves:    1823
 k-point  76 :   0.4615 0.2308 0.0769  plane waves:    1827
 k-point  77 :  -0.4615 0.2308 0.0769  plane waves:    1825
 k-point  78 :  -0.3846 0.2308 0.0769  plane waves:    1838
 k-point  79 :  -0.3077 0.2308 0.0769  plane waves:    1836
 k-point  80 :  -0.2308 0.2308 0.0769  plane waves:    1834
 k-point  81 :  -0.1538 0.2308 0.0769  plane waves:    1822
 k-point  82 :  -0.0769 0.2308 0.0769  plane waves:    1820
 k-point  83 :   0.3077 0.3077 0.0769  plane waves:    1822
 k-point  84 :   0.3846 0.3077 0.0769  plane waves:    1825
 k-point  85 :   0.4615 0.3077 0.0769  plane waves:    1832
 k-point  86 :  -0.4615 0.3077 0.0769  plane waves:    1835
 k-point  87 :  -0.3846 0.3077 0.0769  plane waves:    1844
 k-point  88 :  -0.3077 0.3077 0.0769  plane waves:    1842
 k-point  89 :  -0.2308 0.3077 0.0769  plane waves:    1841
 k-point  90 :  -0.1538 0.3077 0.0769  plane waves:    1830
 k-point  91 :  -0.0769 0.3077 0.0769  plane waves:    1825
 k-point  92 :   0.3846 0.3846 0.0769  plane waves:    1819
 k-point  93 :   0.4615 0.3846 0.0769  plane waves:    1829
 k-point  94 :  -0.4615 0.3846 0.0769  plane waves:    1837
 k-point  95 :  -0.3846 0.3846 0.0769  plane waves:    1849
 k-point  96 :  -0.3077 0.3846 0.0769  plane waves:    1845
 k-point  97 :  -0.2308 0.3846 0.0769  plane waves:    1852
 k-point  98 :  -0.1538 0.3846 0.0769  plane waves:    1835
 k-point  99 :  -0.0769 0.3846 0.0769  plane waves:    1829
 k-point 100 :   0.4615 0.4615 0.0769  plane waves:    1820
 k-point 101 :  -0.4615 0.4615 0.0769  plane waves:    1830
 k-point 102 :  -0.3846 0.4615 0.0769  plane waves:    1840
 k-point 103 :  -0.3077 0.4615 0.0769  plane waves:    1840
 k-point 104 :  -0.2308 0.4615 0.0769  plane waves:    1852
 k-point 105 :  -0.1538 0.4615 0.0769  plane waves:    1846
 k-point 106 :  -0.0769 0.4615 0.0769  plane waves:    1838
 k-point 107 :  -0.4615-0.4615 0.0769  plane waves:    1833
 k-point 108 :  -0.3846-0.4615 0.0769  plane waves:    1836
 k-point 109 :  -0.3077-0.4615 0.0769  plane waves:    1845
 k-point 110 :  -0.2308-0.4615 0.0769  plane waves:    1851
 k-point 111 :  -0.1538-0.4615 0.0769  plane waves:    1837
 k-point 112 :  -0.3846-0.3846 0.0769  plane waves:    1825
 k-point 113 :  -0.3077-0.3846 0.0769  plane waves:    1835
 k-point 114 :  -0.2308-0.3846 0.0769  plane waves:    1837
 k-point 115 :  -0.1538-0.3846 0.0769  plane waves:    1840
 k-point 116 :  -0.3077-0.3077 0.0769  plane waves:    1817
 k-point 117 :  -0.2308-0.3077 0.0769  plane waves:    1824
 k-point 118 :  -0.1538-0.3077 0.0769  plane waves:    1822
 k-point 119 :  -0.2308-0.2308 0.0769  plane waves:    1813
 k-point 120 :  -0.1538-0.2308 0.0769  plane waves:    1820
 k-point 121 :  -0.1538-0.1538 0.0769  plane waves:    1818
 k-point 122 :   0.1538 0.1538 0.1538  plane waves:    1813
 k-point 123 :   0.2308 0.1538 0.1538  plane waves:    1814
 k-point 124 :   0.3077 0.1538 0.1538  plane waves:    1822
 k-point 125 :   0.3846 0.1538 0.1538  plane waves:    1828
 k-point 126 :   0.4615 0.1538 0.1538  plane waves:    1828
 k-point 127 :  -0.4615 0.1538 0.1538  plane waves:    1824
 k-point 128 :  -0.3846 0.1538 0.1538  plane waves:    1828
 k-point 129 :  -0.3077 0.1538 0.1538  plane waves:    1824
 k-point 130 :  -0.2308 0.1538 0.1538  plane waves:    1832
 k-point 131 :  -0.1538 0.1538 0.1538  plane waves:    1821
 k-point 132 :   0.2308 0.2308 0.1538  plane waves:    1805
 k-point 133 :   0.3077 0.2308 0.1538  plane waves:    1810
 k-point 134 :   0.3846 0.2308 0.1538  plane waves:    1822
 k-point 135 :   0.4615 0.2308 0.1538  plane waves:    1825
 k-point 136 :  -0.4615 0.2308 0.1538  plane waves:    1828
 k-point 137 :  -0.3846 0.2308 0.1538  plane waves:    1829
 k-point 138 :  -0.3077 0.2308 0.1538  plane waves:    1836
 k-point 139 :  -0.2308 0.2308 0.1538  plane waves:    1836
 k-point 140 :  -0.1538 0.2308 0.1538  plane waves:    1827
 k-point 141 :   0.3077 0.3077 0.1538  plane waves:    1824
 k-point 142 :   0.3846 0.3077 0.1538  plane waves:    1819
 k-point 143 :   0.4615 0.3077 0.1538  plane waves:    1822
 k-point 144 :  -0.4615 0.3077 0.1538  plane waves:    1825
 k-point 145 :  -0.3846 0.3077 0.1538  plane waves:    1825
 k-point 146 :  -0.3077 0.3077 0.1538  plane waves:    1836
 k-point 147 :  -0.2308 0.3077 0.1538  plane waves:    1841
 k-point 148 :  -0.1538 0.3077 0.1538  plane waves:    1839
 k-point 149 :   0.3846 0.3846 0.1538  plane waves:    1826
 k-point 150 :   0.4615 0.3846 0.1538  plane waves:    1826
 k-point 151 :  -0.4615 0.3846 0.1538  plane waves:    1834
 k-point 152 :  -0.3846 0.3846 0.1538  plane waves:    1833
 k-point 153 :  -0.3077 0.3846 0.1538  plane waves:    1845
 k-point 154 :  -0.2308 0.3846 0.1538  plane waves:    1841
[...]
     16       7.2894      2.00000
     17       7.7935      2.00000
     18       8.4289      2.00000
     19       8.8275      2.00000
     20      10.7054      2.00000
     21      11.1882      1.82712
     22      12.2510      0.00000
     23      13.0397      0.00000
     24      13.8611      0.00000

 k-point   214 :      -0.3077    0.3846    0.3077
  band No.  band energies     occupation 
      1     -52.0846      2.00000
      2     -52.0718      2.00000
      3     -25.7410      2.00000
      4     -25.7035      2.00000
      5     -25.6968      2.00000
      6     -25.5513      2.00000
      7     -25.3506      2.00000
      8     -25.3272      2.00000
      9      -1.7117      2.00000
     10       0.3224      2.00000
     11       2.2911      2.00000
     12       4.4689      2.00000
     13       4.9018      2.00000
     14       5.4773      2.00000
     15       6.5907      2.00000
     16       6.7888      2.00000
     17       7.8289      2.00000
     18       8.3651      2.00000
     19       8.8190      2.00000
     20      11.0355      2.00000
     21      11.6986      0.00000
     22      12.8621      0.00000
     23      13.3350      0.00000
     24      14.0159      0.00000

 k-point   215 :       0.4615    0.4615    0.3077
  band No.  band energies     occupation 
      1     -52.1330      2.00000
      2     -52.1199      2.00000
      3     -25.7958      2.00000
      4     -25.6226      2.00000
      5     -25.3548      2.00000
      6     -25.3342      2.00000
      7     -25.2426      2.00000
      8     -25.2223      2.00000
      9      -3.1364      2.00000
     10      -1.2608      2.00000
     11       3.7983      2.00000
     12       5.0888      2.00000
     13       5.8901      2.00000
     14       6.5271      2.00000
     15       7.5691      2.00000
     16       8.0505      2.00000
     17       8.5744      2.00000
     18       8.7936      2.00000
     19       9.1539      2.00000
     20      10.1588      2.00000
     21      11.4978      0.00000
     22      11.7024      0.00000
     23      12.7054      0.00000
     24      13.0659      0.00000

 k-point   216 :      -0.4615    0.4615    0.3077
  band No.  band energies     occupation 
      1     -52.1215      2.00000
      2     -52.1085      2.00000
      3     -25.7770      2.00000
      4     -25.6067      2.00000
      5     -25.4425      2.00000
      6     -25.4203      2.00000
      7     -25.2708      2.00000
      8     -25.2496      2.00000
      9      -2.8499      2.00000
     10      -0.9796      2.00000
     11       4.1670      2.00000
     12       4.6573      2.00000
     13       5.3687      2.00000
     14       6.2273      2.00000
     15       7.6972      2.00000
     16       7.7456      2.00000
     17       8.2134      2.00000
     18       8.4106      2.00000
     19       9.0102      2.00000
     20      10.3844      2.00000
     21      11.0660      2.00000
     22      12.0650      0.00000
     23      12.6427      0.00000
     24      13.6394      0.00000

 k-point   217 :      -0.3846    0.4615    0.3077
  band No.  band energies     occupation 
      1     -52.1052      2.00000
      2     -52.0923      2.00000
      3     -25.7518      2.00000
      4     -25.5832      2.00000
      5     -25.5547      2.00000
      6     -25.5309      2.00000
      7     -25.3198      2.00000
      8     -25.2972      2.00000
      9      -2.4117      2.00000
     10      -0.5006      2.00000
     11       3.9721      2.00000
     12       4.5508      2.00000
     13       4.7141      2.00000
     14       5.8892      2.00000
     15       7.2691      2.00000
     16       7.6098      2.00000
     17       7.9025      2.00000
     18       8.1214      2.00000
     19       8.9458      2.00000
     20      10.5028      2.00000
     21      10.9012      2.00000
     22      12.2627      0.00000
     23      13.0059      0.00000
     24      14.3271      0.00000

 k-point   218 :      -0.3077    0.4615    0.3077
  band No.  band energies     occupation 
      1     -52.0879      2.00000
      2     -52.0750      2.00000
      3     -25.7288      2.00000
      4     -25.6643      2.00000
      5     -25.6432      2.00000
      6     -25.5568      2.00000
      7     -25.3762      2.00000
      8     -25.3520      2.00000
      9      -1.8486      2.00000
     10       0.1507      2.00000
     11       2.9074      2.00000
     12       4.2262      2.00000
     13       4.9939      2.00000
     14       5.3806      2.00000
     15       6.6261      2.00000
     16       7.2174      2.00000
     17       7.7843      2.00000
     18       8.0480      2.00000
     19       9.1350      2.00000
     20      10.6900      2.00000
     21      10.8090      2.00000
     22      12.8376      0.00000
     23      13.4988      0.00000
     24      14.4332      0.00000

 k-point   219 :      -0.4615   -0.4615    0.3077
  band No.  band energies     occupation 
      1     -52.1146      2.00000
      2     -52.1017      2.00000
      3     -25.7660      2.00000
      4     -25.5972      2.00000
      5     -25.5034      2.00000
      6     -25.4804      2.00000
      7     -25.2774      2.00000
      8     -25.2557      2.00000
      9      -2.6687      2.00000
     10      -0.7942      2.00000
     11       3.9929      2.00000
     12       4.3771      2.00000
     13       5.7443      2.00000
     14       5.9810      2.00000
     15       7.3092      2.00000
     16       7.4834      2.00000
     17       8.0170      2.00000
     18       8.6842      2.00000
     19       8.7087      2.00000
     20      10.8283      2.00000
     21      11.1783      1.96074
     22      11.8084      0.00000
     23      12.6862      0.00000
     24      13.6505      0.00000

 k-point   220 :      -0.3846   -0.4615    0.3077
  band No.  band energies     occupation 
      1     -52.1025      2.00000
      2     -52.0896      2.00000
      3     -25.7478      2.00000
      4     -25.5883      2.00000
      5     -25.5797      2.00000
      6     -25.5631      2.00000
      7     -25.3121      2.00000
      8     -25.2895      2.00000
      9      -2.3291      2.00000
     10      -0.4106      2.00000
     11       3.4416      2.00000
     12       4.6524      2.00000
     13       5.1293      2.00000
     14       5.7709      2.00000
     15       7.1676      2.00000
     16       7.3128      2.00000
     17       7.7436      2.00000
     18       8.4756      2.00000
     19       8.7515      2.00000
     20      10.9096      2.00000
     21      11.0218      2.00000
     22      12.2071      0.00000
     23      12.9096      0.00000
     24      14.2189      0.00000

 k-point   221 :      -0.3846   -0.3846    0.3077
  band No.  band energies     occupation 
      1     -52.0951      2.00000
      2     -52.0822      2.00000
      3     -25.7387      2.00000
      4     -25.6557      2.00000
      5     -25.6331      2.00000
      6     -25.5675      2.00000
      7     -25.3138      2.00000
      8     -25.2912      2.00000
      9      -2.0934      2.00000
     10      -0.1310      2.00000
     11       2.8064      2.00000
     12       4.6029      2.00000
     13       5.4895      2.00000
     14       5.5305      2.00000
     15       6.8459      2.00000
     16       6.9545      2.00000
     17       7.6907      2.00000
     18       8.6069      2.00000
     19       8.6859      2.00000
     20      11.0505      2.00000
     21      11.7662      0.00000
     22      12.2085      0.00000
     23      12.9142      0.00000
     24      13.8339      0.00000

 k-point   222 :       0.3846    0.3846    0.3846
  band No.  band energies     occupation 
      1     -52.1506      2.00000
      2     -52.1374      2.00000
      3     -25.8250      2.00000
      4     -25.6469      2.00000
      5     -25.2086      2.00000
      6     -25.2086      2.00000
      7     -25.1901      2.00000
      8     -25.1901      2.00000
      9      -3.5475      2.00000
     10      -1.6357      2.00000
     11       3.2144      2.00000
     12       5.3041      2.00000
     13       7.0264      2.00000
     14       7.0264      2.00000
     15       7.7442      2.00000
     16       8.6816      2.00000
     17       8.6816      2.00000
     18       9.6999      2.00000
     19       9.6999      2.00000
     20      10.0986      2.00000
     21      11.4535      0.00000
     22      11.4535      0.00000
     23      12.5299      0.00000
     24      12.5299      0.00000

 k-point   223 :       0.4615    0.3846    0.3846
  band No.  band energies     occupation 
      1     -52.1460      2.00000
      2     -52.1328      2.00000
      3     -25.8163      2.00000
      4     -25.6414      2.00000
      5     -25.2479      2.00000
      6     -25.2283      2.00000
      7     -25.2175      2.00000
      8     -25.1988      2.00000
      9      -3.4296      2.00000
     10      -1.5648      2.00000
     11       3.4105      2.00000
     12       5.3068      2.00000
     13       6.5959      2.00000
     14       6.8887      2.00000
     15       7.6383      2.00000
     16       8.5219      2.00000
     17       8.7062      2.00000
     18       9.4449      2.00000
     19       9.7220      2.00000
     20       9.8208      2.00000
     21      11.2184      0.43897
     22      12.4626      0.00000
     23      12.6835      0.00000
     24      12.8685      0.00000

 k-point   224 :      -0.4615    0.3846    0.3846
  band No.  band energies     occupation 
      1     -52.1330      2.00000
      2     -52.1199      2.00000
      3     -25.7950      2.00000
      4     -25.6234      2.00000
      5     -25.3553      2.00000
      6     -25.3337      2.00000
      7     -25.2423      2.00000
      8     -25.2227      2.00000
      9      -3.1275      2.00000
     10      -1.2780      2.00000
     11       3.8244      2.00000
     12       5.1233      2.00000
     13       5.8350      2.00000
     14       6.5099      2.00000
     15       7.4679      2.00000
     16       8.1006      2.00000
     17       8.7230      2.00000
     18       8.8555      2.00000
     19       9.1162      2.00000
     20      10.1507      2.00000
     21      11.0228      2.00000
     22      12.1182      0.00000
     23      12.9313      0.00000
     24      13.6464      0.00000

 k-point   225 :      -0.3846    0.3846    0.3846
  band No.  band energies     occupation 
      1     -52.1146      2.00000
      2     -52.1017      2.00000
      3     -25.7662      2.00000
      4     -25.5970      2.00000
      5     -25.5038      2.00000
      6     -25.4801      2.00000
      7     -25.2771      2.00000
      8     -25.2561      2.00000
      9      -2.6713      2.00000
     10      -0.7906      2.00000
     11       4.0087      2.00000
     12       4.3637      2.00000
     13       5.7403      2.00000
     14       5.9886      2.00000
     15       7.2226      2.00000
     16       7.5026      2.00000
     17       8.0871      2.00000
     18       8.7082      2.00000
     19       8.7269      2.00000
     20      10.7212      2.00000
     21      11.0856      2.00000
     22      11.8876      0.00000
     23      12.9034      0.00000
     24      14.1858      0.00000

 k-point   226 :       0.4615    0.4615    0.3846
  band No.  band energies     occupation 
      1     -52.1459      2.00000
      2     -52.1328      2.00000
      3     -25.8153      2.00000
      4     -25.6425      2.00000
      5     -25.2477      2.00000
      6     -25.2285      2.00000
      7     -25.2177      2.00000
      8     -25.1985      2.00000
      9      -3.4167      2.00000
     10      -1.5898      2.00000
     11       3.4601      2.00000
     12       5.2556      2.00000
     13       6.5770      2.00000
     14       6.9150      2.00000
     15       7.6775      2.00000
     16       8.5496      2.00000
     17       8.5830      2.00000
     18       9.5584      2.00000
     19       9.6508      2.00000
     20       9.7766      2.00000
     21      11.6564      0.00000
     22      11.7278      0.00000
     23      12.5713      0.00000
     24      13.1781      0.00000

 k-point   227 :      -0.4615    0.4615    0.3846
  band No.  band energies     occupation 
      1     -52.1371      2.00000
      2     -52.1241      2.00000
      3     -25.8009      2.00000
      4     -25.6302      2.00000
      5     -25.3193      2.00000
      6     -25.2986      2.00000
      7     -25.2363      2.00000
      8     -25.2166      2.00000
      9      -3.2140      2.00000
     10      -1.3959      2.00000
     11       3.7482      2.00000
     12       5.2557      2.00000
     13       5.9054      2.00000
     14       6.5731      2.00000
     15       7.7509      2.00000
     16       8.2945      2.00000
     17       8.3808      2.00000
     18       9.1649      2.00000
     19       9.3089      2.00000
     20       9.9431      2.00000
     21      11.2510      0.00207
     22      12.1680      0.00000
     23      12.6550      0.00000
     24      13.2495      0.00000

 k-point   228 :      -0.3846    0.4615    0.3846
  band No.  band energies     occupation 
      1     -52.1214      2.00000
      2     -52.1085      2.00000
      3     -25.7763      2.00000
      4     -25.6074      2.00000
      5     -25.4426      2.00000
      6     -25.4201      2.00000
      7     -25.2707      2.00000
      8     -25.2497      2.00000
      9      -2.8422      2.00000
     10      -0.9938      2.00000
     11       4.2074      2.00000
     12       4.6543      2.00000
     13       5.3246      2.00000
     14       6.2282      2.00000
     15       7.6625      2.00000
     16       7.7686      2.00000
     17       8.1517      2.00000
     18       8.6380      2.00000
     19       8.8939      2.00000
     20      10.3704      2.00000
     21      11.0239      2.00000
     22      12.0344      0.00000
     23      12.7660      0.00000
     24      13.9545      0.00000

 k-point   229 :      -0.4615   -0.4615    0.3846
  band No.  band energies     occupation 
      1     -52.1329      2.00000
      2     -52.1200      2.00000
      3     -25.7941      2.00000
      4     -25.6245      2.00000
      5     -25.3551      2.00000
      6     -25.3339      2.00000
      7     -25.2425      2.00000
      8     -25.2224      2.00000
      9      -3.1159      2.00000
     10      -1.2996      2.00000
     11       3.8833      2.00000
     12       5.0427      2.00000
     13       5.8522      2.00000
     14       6.5156      2.00000
     15       7.5315      2.00000
     16       8.0758      2.00000
     17       8.6369      2.00000
     18       8.8790      2.00000
     19       9.0823      2.00000
     20      10.1644      2.00000
     21      11.3061      0.00000
     22      11.8828      0.00000
     23      12.7741      0.00000
     24      13.3295      0.00000

 k-point   230 :       0.4615    0.4615    0.4615
  band No.  band energies     occupation 
      1     -52.1506      2.00000
      2     -52.1375      2.00000
      3     -25.8220      2.00000
      4     -25.6500      2.00000
      5     -25.2087      2.00000
      6     -25.2087      2.00000
      7     -25.1900      2.00000
      8     -25.1900      2.00000
      9      -3.5076      2.00000
     10      -1.7138      2.00000
     11       3.3575      2.00000
     12       5.1779      2.00000
     13       7.0311      2.00000
     14       7.0311      2.00000
     15       7.7598      2.00000
     16       8.6265      2.00000
     17       8.6265      2.00000
     18       9.7172      2.00000
     19       9.7172      2.00000
     20      10.0805      2.00000
     21      11.6722      0.00000
     22      11.6722      0.00000
     23      12.8637      0.00000
     24      12.8826      0.00000

 k-point   231 :      -0.4615    0.4615    0.4615
  band No.  band energies     occupation 
      1     -52.1459      2.00000
      2     -52.1329      2.00000
      3     -25.8143      2.00000
      4     -25.6435      2.00000
      5     -25.2479      2.00000
      6     -25.2284      2.00000
      7     -25.2177      2.00000
      8     -25.1986      2.00000
      9      -3.4035      2.00000
     10      -1.6150      2.00000
     11       3.5098      2.00000
     12       5.2117      2.00000
     13       6.5874      2.00000
     14       6.9018      2.00000
     15       7.6664      2.00000
     16       8.5199      2.00000
     17       8.6225      2.00000
     18       9.5063      2.00000
     19       9.6883      2.00000
     20       9.8055      2.00000
     21      11.5199      0.00000
     22      12.1907      0.00000
     23      12.8984      0.00000
     24      12.9910      0.00000


--------------------------------------------------------------------------------------------------------


 soft charge-density along one line, spin component           1
         0         1         2         3         4         5         6         7         8         9
 total charge-density along one line
 
 pseudopotential strength for first ion, spin component:           1
  5.811   8.791   0.000   0.000   0.000   0.000   0.000   0.000
  8.791  13.290   0.000   0.001   0.000   0.000   0.000   0.000
  0.000   0.000  -1.890  -0.001  -0.000  -3.131  -0.002  -0.000
  0.000   0.001  -0.001  -1.899  -0.002  -0.002  -3.146  -0.003
  0.000   0.000  -0.000  -0.002  -1.891  -0.000  -0.003  -3.132
  0.000   0.000  -3.131  -0.002  -0.000  -4.972  -0.003  -0.001
  0.000   0.000  -0.002  -3.146  -0.003  -0.003  -4.998  -0.006
  0.000   0.000  -0.000  -0.003  -3.132  -0.001  -0.006  -4.973
 total augmentation occupancy for first ion, spin component:           1
  3.566  -0.944   0.028   0.220   0.047  -0.011  -0.089  -0.019
 -0.944   0.262  -0.012  -0.095  -0.020   0.004   0.034   0.007
  0.028  -0.012   2.771   0.034   0.007  -0.753  -0.005  -0.001
  0.220  -0.095   0.034   3.030   0.056  -0.005  -0.788  -0.008
  0.047  -0.020   0.007   0.056   2.779  -0.001  -0.008  -0.754
 -0.011   0.004  -0.753  -0.005  -0.001   0.210   0.000   0.000
 -0.089   0.034  -0.005  -0.788  -0.008   0.000   0.210   0.000
 -0.019   0.007  -0.001  -0.008  -0.754   0.000   0.000   0.210


------------------------ aborting loop because EDIFF is reached ----------------------------------------




--------------------------------------------------------------------------------------------------------



  FREE ENERGIE OF THE ION-ELECTRON SYSTEM (eV)
  ---------------------------------------------------
  free  energy   TOTEN  =       -84.19661147 eV

  energy  without entropy=      -84.19619713  energy(sigma->0) =      -84.19640430
 


--------------------------------------------------------------------------------------------------------


    POTLOK:  cpu time    0.9726: real time    0.9809


--------------------------------------------------------------------------------------------------------


 writing wavefunctions
     LOOP+:  cpu time 1122.4370: real time 1134.5188
    4ORBIT:  cpu time    0.0000: real time    0.0000

 total amount of memory used by VASP MPI-rank0   176907. kBytes
=======================================================================

   base      :      30000. kBytes
   nonl-proj :      62360. kBytes
   fftplans  :      24256. kBytes
   grid      :      17135. kBytes
   one-center:         46. kBytes
   wavefun   :      43110. kBytes
 
  
  
 General timing and accounting informations for this job:
 ========================================================
  
                  Total CPU time used (sec):     1126.938
                            User time (sec):     1118.460
                          System time (sec):        8.479
                         Elapsed time (sec):     1139.907
  
                   Maximum memory used (kb):      468684.
                   Average memory used (kb):          N/A
  
                          Minor page faults:      2729868
                          Major page faults:           28
                 Voluntary context switches:         1345
