<?xml version="1.0" encoding="ISO-8859-1"?>
<modeling>
 <generator>
  <i name="program" type="string">vasp </i>
  <i name="version" type="string">6.2.0  </i>
  <i name="subversion" type="string">18Jan21 (build Jan 05 2022 15:41:44) complex                          parallel </i>
  <i name="platform" type="string">LinuxIFC </i>
  <i name="date" type="string">2025 05 07 </i>
  <i name="time" type="string">15:35:44 </i>
 </generator>
 <incar>
  <i type="string" name="SYSTEM">routine with relax: pwdword</i>
  <i type="string" name="PREC">Acc</i>
  <i type="int" name="IALGO">    38</i>
  <i type="string" name="ALGO">A</i>
  <i type="logical" name="ADDGRID"> T  </i>
  <i type="int" name="ICHARG">     2</i>
  <i type="int" name="NELM">   100</i>
  <i type="int" name="NELMIN">     6</i>
  <i name="EDIFF">      0.00000000</i>
  <i type="int" name="NSW">     0</i>
  <i type="int" name="ISIF">    -1</i>
  <i name="SYMPREC">      0.00010000</i>
  <i name="ENCUT">    600.00000000</i>
  <i type="logical" name="LREAL"> F  </i>
  <i type="int" name="ISMEAR">     0</i>
  <i name="SIGMA">      0.02000000</i>
  <i type="logical" name="LASPH"> T  </i>
  <i type="string" name="METAGGA">R2SCAN</i>
  <i type="logical" name="LMIXTAU"> F  </i>
 </incar>
 <primitive_cell>
  <structure name="primitive_cell" >
   <crystal>
    <varray name="basis" >
     <v>       4.85277622       0.00000000      -5.86391467 </v>
     <v>      -0.62926891       4.81180399      -5.86391467 </v>
     <v>       0.00000000       0.00000000       7.61150000 </v>
    </varray>
    <i name="volume">    177.73315265 </i>
    <varray name="rec_basis" >
     <v>       0.20606761       0.02694872       0.00000000 </v>
     <v>       0.00000000       0.20782226       0.00000000 </v>
     <v>       0.15875490       0.18086803       0.13138015 </v>
    </varray>
   </crystal>
   <varray name="positions" >
    <v>       0.75138000       0.25138000       0.00275000 </v>
    <v>       0.24862000       0.74862000       0.99725000 </v>
    <v>       0.25138000       0.24862000       0.50000000 </v>
    <v>       0.74862000       0.75138000       0.50000000 </v>
    <v>       0.89260000       0.39260000       0.50000000 </v>
    <v>       0.10054000       0.10054000       0.00000000 </v>
    <v>       0.10740000       0.60740000       0.50000000 </v>
    <v>       0.89946000       0.89946000       0.00000000 </v>
    <v>       0.39260000       0.89260000       0.50000000 </v>
    <v>       0.60740000       0.10740000       0.50000000 </v>
    <v>       0.39946000       0.39946000       0.00000000 </v>
    <v>       0.60054000       0.60054000       0.00000000 </v>
    <v>       0.50000000       0.00000000       0.00000000 </v>
    <v>       0.00000000       0.00000000       0.50000000 </v>
    <v>       0.00000000       0.50000000       0.00000000 </v>
    <v>       0.50000000       0.50000000       0.50000000 </v>
   </varray>
  </structure>
  <varray name="primitive_index" >
   <v type="int" >        1 </v>
   <v type="int" >        2 </v>
   <v type="int" >        3 </v>
   <v type="int" >        4 </v>
   <v type="int" >        5 </v>
   <v type="int" >        6 </v>
   <v type="int" >        7 </v>
   <v type="int" >        8 </v>
   <v type="int" >        9 </v>
   <v type="int" >       10 </v>
   <v type="int" >       11 </v>
   <v type="int" >       12 </v>
   <v type="int" >       13 </v>
   <v type="int" >       14 </v>
   <v type="int" >       15 </v>
   <v type="int" >       16 </v>
  </varray>
 </primitive_cell>
 <kpoints>
  <generation param="Gamma">
   <v type="int" name="divisions">       7        7       10 </v>
   <v name="usershift">      0.00000000       0.00000000       0.00000000 </v>
   <v name="genvec1">      0.14285714       0.00000000       0.00000000 </v>
   <v name="genvec2">      0.00000000       0.14285714       0.00000000 </v>
   <v name="genvec3">     -0.00000000      -0.00000000       0.10000000 </v>
   <v name="shift">      0.00000000       0.00000000       0.00000000 </v>
  </generation>
  <varray name="kpointlist" >
   <v>       0.00000000       0.00000000       0.00000000 </v>
   <v>       0.14285714      -0.00000000       0.00000000 </v>
   <v>       0.28571429      -0.00000000       0.00000000 </v>
   <v>       0.42857143      -0.00000000       0.00000000 </v>
   <v>       0.14285714       0.14285714       0.00000000 </v>
   <v>       0.28571429       0.14285714       0.00000000 </v>
   <v>       0.42857143       0.14285714       0.00000000 </v>
   <v>      -0.42857143       0.14285714       0.00000000 </v>
   <v>      -0.28571429       0.14285714       0.00000000 </v>
   <v>      -0.14285714       0.14285714       0.00000000 </v>
   <v>       0.28571429       0.28571429       0.00000000 </v>
   <v>       0.42857143       0.28571429       0.00000000 </v>
   <v>      -0.42857143       0.28571429       0.00000000 </v>
   <v>      -0.28571429       0.28571429       0.00000000 </v>
   <v>       0.42857143       0.42857143       0.00000000 </v>
   <v>      -0.42857143       0.42857143       0.00000000 </v>
   <v>      -0.00000000      -0.00000000       0.10000000 </v>
   <v>       0.14285714      -0.00000000       0.10000000 </v>
   <v>       0.28571429      -0.00000000       0.10000000 </v>
   <v>       0.42857143      -0.00000000       0.10000000 </v>
   <v>      -0.42857143      -0.00000000       0.10000000 </v>
   <v>      -0.28571429      -0.00000000       0.10000000 </v>
   <v>      -0.14285714      -0.00000000       0.10000000 </v>
   <v>       0.14285714       0.14285714       0.10000000 </v>
   <v>       0.28571429       0.14285714       0.10000000 </v>
   <v>       0.42857143       0.14285714       0.10000000 </v>
   <v>      -0.42857143       0.14285714       0.10000000 </v>
   <v>      -0.28571429       0.14285714       0.10000000 </v>
   <v>      -0.14285714       0.14285714       0.10000000 </v>
   <v>       0.28571429       0.28571429       0.10000000 </v>
   <v>       0.42857143       0.28571429       0.10000000 </v>
   <v>      -0.42857143       0.28571429       0.10000000 </v>
   <v>      -0.28571429       0.28571429       0.10000000 </v>
   <v>      -0.14285714       0.28571429       0.10000000 </v>
   <v>       0.42857143       0.42857143       0.10000000 </v>
   <v>      -0.42857143       0.42857143       0.10000000 </v>
   <v>      -0.28571429       0.42857143       0.10000000 </v>
   <v>      -0.14285714       0.42857143       0.10000000 </v>
   <v>      -0.42857143      -0.42857143       0.10000000 </v>
   <v>      -0.28571429      -0.42857143       0.10000000 </v>
   <v>      -0.14285714      -0.42857143       0.10000000 </v>
   <v>      -0.28571429      -0.28571429       0.10000000 </v>
   <v>      -0.14285714      -0.28571429       0.10000000 </v>
   <v>      -0.14285714      -0.14285714       0.10000000 </v>
   <v>      -0.00000000      -0.00000000       0.20000000 </v>
   <v>       0.14285714      -0.00000000       0.20000000 </v>
   <v>       0.28571429      -0.00000000       0.20000000 </v>
   <v>       0.42857143      -0.00000000       0.20000000 </v>
   <v>      -0.42857143      -0.00000000       0.20000000 </v>
   <v>      -0.28571429      -0.00000000       0.20000000 </v>
   <v>      -0.14285714      -0.00000000       0.20000000 </v>
   <v>       0.14285714       0.14285714       0.20000000 </v>
   <v>       0.28571429       0.14285714       0.20000000 </v>
   <v>       0.42857143       0.14285714       0.20000000 </v>
   <v>      -0.42857143       0.14285714       0.20000000 </v>
   <v>      -0.28571429       0.14285714       0.20000000 </v>
   <v>      -0.14285714       0.14285714       0.20000000 </v>
   <v>       0.28571429       0.28571429       0.20000000 </v>
   <v>       0.42857143       0.28571429       0.20000000 </v>
   <v>      -0.42857143       0.28571429       0.20000000 </v>
   <v>      -0.28571429       0.28571429       0.20000000 </v>
   <v>      -0.14285714       0.28571429       0.20000000 </v>
   <v>       0.42857143       0.42857143       0.20000000 </v>
   <v>      -0.42857143       0.42857143       0.20000000 </v>
   <v>      -0.28571429       0.42857143       0.20000000 </v>
   <v>      -0.14285714       0.42857143       0.20000000 </v>
   <v>      -0.42857143      -0.42857143       0.20000000 </v>
   <v>      -0.28571429      -0.42857143       0.20000000 </v>
   <v>      -0.14285714      -0.42857143       0.20000000 </v>
   <v>      -0.28571429      -0.28571429       0.20000000 </v>
   <v>      -0.14285714      -0.28571429       0.20000000 </v>
   <v>      -0.14285714      -0.14285714       0.20000000 </v>
   <v>      -0.00000000      -0.00000000       0.30000000 </v>
   <v>       0.14285714      -0.00000000       0.30000000 </v>
   <v>       0.28571429      -0.00000000       0.30000000 </v>
   <v>       0.42857143      -0.00000000       0.30000000 </v>
   <v>      -0.42857143       0.00000000       0.30000000 </v>
   <v>      -0.28571429      -0.00000000       0.30000000 </v>
   <v>      -0.14285714       0.00000000       0.30000000 </v>
   <v>       0.14285714       0.14285714       0.30000000 </v>
   <v>       0.28571429       0.14285714       0.30000000 </v>
   <v>       0.42857143       0.14285714       0.30000000 </v>
   <v>      -0.42857143       0.14285714       0.30000000 </v>
   <v>      -0.28571429       0.14285714       0.30000000 </v>
   <v>      -0.14285714       0.14285714       0.30000000 </v>
   <v>       0.28571429       0.28571429       0.30000000 </v>
   <v>       0.42857143       0.28571429       0.30000000 </v>
   <v>      -0.42857143       0.28571429       0.30000000 </v>
   <v>      -0.28571429       0.28571429       0.30000000 </v>
   <v>      -0.14285714       0.28571429       0.30000000 </v>
   <v>       0.42857143       0.42857143       0.30000000 </v>
   <v>      -0.42857143       0.42857143       0.30000000 </v>
   <v>      -0.28571429       0.42857143       0.30000000 </v>
   <v>      -0.14285714       0.42857143       0.30000000 </v>
   <v>      -0.42857143      -0.42857143       0.30000000 </v>
   <v>      -0.28571429      -0.42857143       0.30000000 </v>
   <v>      -0.14285714      -0.42857143       0.30000000 </v>
   <v>      -0.28571429      -0.28571429       0.30000000 </v>
   <v>      -0.14285714      -0.28571429       0.30000000 </v>
   <v>      -0.14285714      -0.14285714       0.30000000 </v>
   <v>      -0.00000000      -0.00000000       0.40000000 </v>
   <v>       0.14285714      -0.00000000       0.40000000 </v>
   <v>       0.28571429      -0.00000000       0.40000000 </v>
   <v>       0.42857143      -0.00000000       0.40000000 </v>
   <v>      -0.42857143      -0.00000000       0.40000000 </v>
   <v>      -0.28571429      -0.00000000       0.40000000 </v>
   <v>      -0.14285714      -0.00000000       0.40000000 </v>
   <v>       0.14285714       0.14285714       0.40000000 </v>
   <v>       0.28571429       0.14285714       0.40000000 </v>
   <v>       0.42857143       0.14285714       0.40000000 </v>
   <v>      -0.42857143       0.14285714       0.40000000 </v>
   <v>      -0.28571429       0.14285714       0.40000000 </v>
   <v>      -0.14285714       0.14285714       0.40000000 </v>
   <v>       0.28571429       0.28571429       0.40000000 </v>
   <v>       0.42857143       0.28571429       0.40000000 </v>
   <v>      -0.42857143       0.28571429       0.40000000 </v>
   <v>      -0.28571429       0.28571429       0.40000000 </v>
   <v>      -0.14285714       0.28571429       0.40000000 </v>
   <v>       0.42857143       0.42857143       0.40000000 </v>
   <v>      -0.42857143       0.42857143       0.40000000 </v>
   <v>      -0.28571429       0.42857143       0.40000000 </v>
   <v>      -0.14285714       0.42857143       0.40000000 </v>
   <v>      -0.42857143      -0.42857143       0.40000000 </v>
   <v>      -0.28571429      -0.42857143       0.40000000 </v>
   <v>      -0.14285714      -0.42857143       0.40000000 </v>
   <v>      -0.28571429      -0.28571429       0.40000000 </v>
   <v>      -0.14285714      -0.28571429       0.40000000 </v>
   <v>      -0.14285714      -0.14285714       0.40000000 </v>
   <v>      -0.00000000       0.00000000       0.50000000 </v>
   <v>       0.14285714      -0.00000000       0.50000000 </v>
   <v>       0.28571429       0.00000000       0.50000000 </v>
   <v>       0.42857143       0.00000000       0.50000000 </v>
   <v>       0.14285714       0.14285714       0.50000000 </v>
   <v>       0.28571429       0.14285714       0.50000000 </v>
   <v>       0.42857143       0.14285714       0.50000000 </v>
   <v>      -0.42857143       0.14285714       0.50000000 </v>
   <v>      -0.28571429       0.14285714       0.50000000 </v>
   <v>      -0.14285714       0.14285714       0.50000000 </v>
   <v>       0.28571429       0.28571429       0.50000000 </v>
   <v>       0.42857143       0.28571429       0.50000000 </v>
   <v>      -0.42857143       0.28571429       0.50000000 </v>
   <v>      -0.28571429       0.28571429       0.50000000 </v>
   <v>       0.42857143       0.42857143       0.50000000 </v>
   <v>      -0.42857143       0.42857143       0.50000000 </v>
  </varray>
  <varray name="weights" >
   <v>       0.00204082 </v>
   <v>       0.00816327 </v>
   <v>       0.00816327 </v>
   <v>       0.00816327 </v>
   <v>       0.00408163 </v>
   <v>       0.00816327 </v>
   <v>       0.00816327 </v>
   <v>       0.00816327 </v>
   <v>       0.00816327 </v>
   <v>       0.00408163 </v>
   <v>       0.00408163 </v>
   <v>       0.00816327 </v>
   <v>       0.00816327 </v>
   <v>       0.00408163 </v>
   <v>       0.00408163 </v>
   <v>       0.00408163 </v>
   <v>       0.00408163 </v>
   <v>       0.00816327 </v>
   <v>       0.00816327 </v>
   <v>       0.00816327 </v>
   <v>       0.00816327 </v>
   <v>       0.00816327 </v>
   <v>       0.00816327 </v>
   <v>       0.00408163 </v>
   <v>       0.00816327 </v>
   <v>       0.00816327 </v>
   <v>       0.00816327 </v>
   <v>       0.00816327 </v>
   <v>       0.00816327 </v>
   <v>       0.00408163 </v>
   <v>       0.00816327 </v>
   <v>       0.00816327 </v>
   <v>       0.00816327 </v>
   <v>       0.00816327 </v>
   <v>       0.00408163 </v>
   <v>       0.00816327 </v>
   <v>       0.00816327 </v>
   <v>       0.00816327 </v>
   <v>       0.00408163 </v>
   <v>       0.00816327 </v>
   <v>       0.00816327 </v>
   <v>       0.00408163 </v>
   <v>       0.00816327 </v>
   <v>       0.00408163 </v>
   <v>       0.00408163 </v>
   <v>       0.00816327 </v>
   <v>       0.00816327 </v>
   <v>       0.00816327 </v>
   <v>       0.00816327 </v>
   <v>       0.00816327 </v>
   <v>       0.00816327 </v>
   <v>       0.00408163 </v>
   <v>       0.00816327 </v>
   <v>       0.00816327 </v>
   <v>       0.00816327 </v>
   <v>       0.00816327 </v>
   <v>       0.00816327 </v>
   <v>       0.00408163 </v>
   <v>       0.00816327 </v>
   <v>       0.00816327 </v>
   <v>       0.00816327 </v>
   <v>       0.00816327 </v>
   <v>       0.00408163 </v>
   <v>       0.00816327 </v>
   <v>       0.00816327 </v>
   <v>       0.00816327 </v>
   <v>       0.00408163 </v>
   <v>       0.00816327 </v>
   <v>       0.00816327 </v>
   <v>       0.00408163 </v>
   <v>       0.00816327 </v>
   <v>       0.00408163 </v>
   <v>       0.00408163 </v>
   <v>       0.00816327 </v>
   <v>       0.00816327 </v>
   <v>       0.00816327 </v>
   <v>       0.00816327 </v>
   <v>       0.00816327 </v>
   <v>       0.00816327 </v>
   <v>       0.00408163 </v>
   <v>       0.00816327 </v>
   <v>       0.00816327 </v>
   <v>       0.00816327 </v>
   <v>       0.00816327 </v>
   <v>       0.00816327 </v>
   <v>       0.00408163 </v>
   <v>       0.00816327 </v>
   <v>       0.00816327 </v>
   <v>       0.00816327 </v>
   <v>       0.00816327 </v>
   <v>       0.00408163 </v>
   <v>       0.00816327 </v>
   <v>       0.00816327 </v>
   <v>       0.00816327 </v>
   <v>       0.00408163 </v>
   <v>       0.00816327 </v>
   <v>       0.00816327 </v>
   <v>       0.00408163 </v>
   <v>       0.00816327 </v>
   <v>       0.00408163 </v>
   <v>       0.00408163 </v>
   <v>       0.00816327 </v>
   <v>       0.00816327 </v>
   <v>       0.00816327 </v>
   <v>       0.00816327 </v>
   <v>       0.00816327 </v>
   <v>       0.00816327 </v>
   <v>       0.00408163 </v>
   <v>       0.00816327 </v>
   <v>       0.00816327 </v>
   <v>       0.00816327 </v>
   <v>       0.00816327 </v>
   <v>       0.00816327 </v>
   <v>       0.00408163 </v>
   <v>       0.00816327 </v>
   <v>       0.00816327 </v>
   <v>       0.00816327 </v>
   <v>       0.00816327 </v>
   <v>       0.00408163 </v>
   <v>       0.00816327 </v>
   <v>       0.00816327 </v>
   <v>       0.00816327 </v>
   <v>       0.00408163 </v>
   <v>       0.00816327 </v>
   <v>       0.00816327 </v>
   <v>       0.00408163 </v>
   <v>       0.00816327 </v>
   <v>       0.00408163 </v>
   <v>       0.00204082 </v>
   <v>       0.00816327 </v>
   <v>       0.00816327 </v>
   <v>       0.00816327 </v>
   <v>       0.00408163 </v>
   <v>       0.00816327 </v>
   <v>       0.00816327 </v>
   <v>       0.00816327 </v>
   <v>       0.00816327 </v>
   <v>       0.00408163 </v>
   <v>       0.00408163 </v>
   <v>       0.00816327 </v>
   <v>       0.00816327 </v>
   <v>       0.00408163 </v>
   <v>       0.00408163 </v>
   <v>       0.00408163 </v>
  </varray>
 </kpoints>
 <parameters>
  <separator name="general" >
   <i type="string" name="SYSTEM">routine with relax: pwdword</i>
   <i type="logical" name="LCOMPAT"> F  </i>
  </separator>
  <separator name="electronic" >
   <i type="string" name="PREC">acc</i>
   <i name="ENMAX">    600.00000000</i>
   <i name="ENAUG">    535.51400000</i>
   <i name="EDIFF">      0.00000000</i>
   <i type="int" name="IALGO">    58</i>
   <i type="int" name="IWAVPR">    10</i>
   <i type="int" name="NBANDS">    84</i>
   <i type="int" name="NBANDSLOW">    -1</i>
   <i type="int" name="NBANDSHIGH">    -1</i>
   <i name="NELECT">    140.00000000</i>
   <i type="int" name="TURBO">     0</i>
   <i type="int" name="IRESTART">     0</i>
   <i type="int" name="NREBOOT">     0</i>
   <i type="int" name="NMIN">     0</i>
   <i name="EREF">      0.00000000</i>
   <separator name="electronic smearing" >
    <i type="int" name="ISMEAR">     0</i>
    <i name="SIGMA">      0.02000000</i>
    <i name="KSPACING">      0.50000000</i>
    <i type="logical" name="KGAMMA"> T  </i>
    <i type="logical" name="KBLOWUP"> F  </i>
   </separator>
   <separator name="electronic projectors" >
    <i type="logical" name="LREAL"> F  </i>
    <v name="ROPT">      0.00000000      0.00000000      0.00000000</v>
    <i type="int" name="LMAXPAW">  -100</i>
    <i type="int" name="LMAXMIX">     2</i>
    <i type="logical" name="NLSPLINE"> F  </i>
   </separator>
   <separator name="electronic startup" >
    <i type="int" name="ISTART">     0</i>
    <i type="int" name="ICHARG">     2</i>
    <i type="int" name="INIWAV">     1</i>
   </separator>
   <separator name="electronic spin" >
    <i type="int" name="ISPIN">     1</i>
    <i type="logical" name="LNONCOLLINEAR"> F  </i>
    <v name="MAGMOM">      1.00000000      1.00000000      1.00000000      1.00000000      1.00000000      1.00000000      1.00000000      1.00000000      1.00000000      1.00000000      1.00000000      1.00000000      1.00000000      1.00000000      1.00000000      1.00000000</v>
    <i name="NUPDOWN">     -1.00000000</i>
    <i type="logical" name="LSORBIT"> F  </i>
    <v name="SAXIS">      0.00000000      0.00000000      1.00000000</v>
    <i type="logical" name="LSPIRAL"> F  </i>
    <v name="QSPIRAL">      0.00000000      0.00000000      0.00000000</v>
    <i type="logical" name="LZEROZ"> F  </i>
   </separator>
   <separator name="electronic exchange-correlation" >
    <i type="logical" name="LASPH"> T  </i>
    <i type="logical" name="LMETAGGA"> F  </i>
   </separator>
   <separator name="electronic convergence" >
    <i type="int" name="NELM">   100</i>
    <i type="int" name="NELMDL">    -5</i>
    <i type="int" name="NELMIN">     6</i>
    <i name="ENINI">    600.00000000</i>
    <separator name="electronic convergence detail" >
     <i type="logical" name="LDIAG"> T  </i>
     <i type="logical" name="LSUBROT"> F  </i>
     <i name="WEIMIN">      0.00000000</i>
     <i name="EBREAK">      0.00000000</i>
     <i name="DEPER">      0.30000000</i>
     <i type="int" name="NRMM">     4</i>
     <i name="TIME">      0.40000000</i>
    </separator>
   </separator>
   <separator name="electronic mixer" >
    <i name="AMIX">      0.40000000</i>
    <i name="BMIX">      1.00000000</i>
    <i name="AMIN">      0.10000000</i>
    <i name="AMIX_MAG">      1.60000000</i>
    <i name="BMIX_MAG">      1.00000000</i>
    <separator name="electronic mixer details" >
     <i type="int" name="IMIX">     4</i>
     <i type="logical" name="MIXFIRST"> F  </i>
     <i type="int" name="MAXMIX">   -45</i>
     <i name="WC">    100.00000000</i>
     <i type="int" name="INIMIX">     1</i>
     <i type="int" name="MIXPRE">     1</i>
     <i type="int" name="MREMOVE">     5</i>
    </separator>
   </separator>
   <separator name="electronic dipolcorrection" >
    <i type="logical" name="LDIPOL"> F  </i>
    <i type="logical" name="LMONO"> F  </i>
    <i type="int" name="IDIPOL">     0</i>
    <i name="EPSILON">      1.00000000</i>
    <v name="DIPOL">   -100.00000000   -100.00000000   -100.00000000</v>
    <i name="EFIELD">      0.00000000</i>
   </separator>
  </separator>
  <separator name="grids" >
   <i type="int" name="NGX">    64</i>
   <i type="int" name="NGY">    64</i>
   <i type="int" name="NGZ">    64</i>
   <i type="int" name="NGXF">   128</i>
   <i type="int" name="NGYF">   128</i>
   <i type="int" name="NGZF">   128</i>
   <i type="logical" name="ADDGRID"> T  </i>
  </separator>
  <separator name="ionic" >
   <i type="int" name="NSW">     0</i>
   <i type="int" name="IBRION">    -1</i>
   <i type="int" name="MDALGO">     0</i>
   <i type="int" name="ISIF">    -1</i>
   <i name="PSTRESS">      0.00000000</i>
   <i name="EDIFFG">      0.00000001</i>
   <i type="int" name="NFREE">     0</i>
   <i name="POTIM">      0.50000000</i>
   <i name="SMASS">     -3.00000000</i>
   <i name="SCALEE">      1.00000000</i>
  </separator>
  <separator name="ionic md" >
   <i name="TEBEG">      0.00010000</i>
   <i name="TEEND">      0.00010000</i>
   <i type="int" name="NBLOCK">     1</i>
   <i type="int" name="KBLOCK">     1</i>
   <i type="int" name="NPACO">   256</i>
   <i name="APACO">     16.00000000</i>
  </separator>
  <separator name="symmetry" >
   <i type="int" name="ISYM">     2</i>
   <i name="SYMPREC">      0.00010000</i>
  </separator>
  <separator name="dos" >
   <i type="int" name="LORBIT">     0</i>
   <v name="RWIGS">     -1.00000000     -1.00000000     -1.00000000</v>
   <i type="int" name="NEDOS">   301</i>
   <i name="EMIN">     10.00000000</i>
   <i name="EMAX">    -10.00000000</i>
   <i name="EFERMI">      0.00000000</i>
  </separator>
  <separator name="writing" >
   <i type="int" name="NWRITE">     2</i>
   <i type="logical" name="LWAVE"> T  </i>
   <i type="logical" name="LDOWNSAMPLE"> F  </i>
   <i type="logical" name="LCHARG"> T  </i>
   <i type="logical" name="LPARD"> F  </i>
   <i type="logical" name="LVTOT"> F  </i>
   <i type="logical" name="LVHAR"> F  </i>
   <i type="logical" name="LELF"> F  </i>
   <i type="logical" name="LOPTICS"> F  </i>
   <v name="STM">      0.00000000      0.00000000      0.00000000      0.00000000      0.00000000      0.00000000      0.00000000</v>
  </separator>
  <separator name="performance" >
   <i type="int" name="NPAR">     6</i>
   <i type="int" name="NSIM">     4</i>
   <i type="int" name="NBLK">    -1</i>
   <i type="logical" name="LPLANE"> T  </i>
   <i type="logical" name="LSCALAPACK"> T  </i>
   <i type="logical" name="LSCAAWARE"> F  </i>
   <i type="logical" name="LSCALU"> F  </i>
   <i type="logical" name="LASYNC"> F  </i>
   <i type="logical" name="LORBITALREAL"> F  </i>
  </separator>
  <separator name="miscellaneous" >
   <i type="int" name="IDIOT">     3</i>
   <i type="int" name="PHON_NSTRUCT">    -1</i>
   <i type="logical" name="LMUSIC"> F  </i>
   <v name="POMASS">     10.81100000     95.94000000     28.08500000</v>
   <v name="DARWINR">      0.00000000      0.00000000      0.00000000</v>
   <v name="DARWINV">      1.00000000      1.00000000      1.00000000</v>
   <i type="logical" name="LCORR"> T  </i>
  </separator>
  <i type="logical" name="GGA_COMPAT"> T  </i>
  <i type="logical" name="LBERRY"> F  </i>
  <i type="int" name="ICORELEVEL">     0</i>
  <i type="logical" name="LDAU"> F  </i>
  <i type="int" name="I_CONSTRAINED_M">     0</i>
  <separator name="electronic exchange-correlation" >
   <i type="string" name="GGA">--</i>
   <i type="int" name="VOSKOWN">     0</i>
   <i type="logical" name="LHFCALC"> F  </i>
   <i type="string" name="PRECFOCK"></i>
   <i type="logical" name="LSYMGRAD"> F  </i>
   <i type="logical" name="LHFONE"> F  </i>
   <i type="logical" name="LRHFCALC"> F  </i>
   <i type="logical" name="LTHOMAS"> F  </i>
   <i type="logical" name="LMODELHF"> F  </i>
   <i type="logical" name="LFOCKACE"> F  </i>
   <i name="ENCUT4O">     -1.00000000</i>
   <i type="int" name="EXXOEP">     0</i>
   <i type="int" name="FOURORBIT">     0</i>
   <i name="AEXX">      0.00000000</i>
   <i name="HFALPHA">      0.00000000</i>
   <i name="MCALPHA">      0.00000000</i>
   <i name="ALDAX">      1.00000000</i>
   <i name="AGGAX">      1.00000000</i>
   <i name="ALDAC">      1.00000000</i>
   <i name="AGGAC">      1.00000000</i>
   <i type="int" name="NKREDX">     1</i>
   <i type="int" name="NKREDY">     1</i>
   <i type="int" name="NKREDZ">     1</i>
   <i type="logical" name="SHIFTRED"> F  </i>
   <i type="logical" name="ODDONLY"> F  </i>
   <i type="logical" name="EVENONLY"> F  </i>
   <i type="int" name="LMAXFOCK">     0</i>
   <i type="int" name="NMAXFOCKAE">     0</i>
   <i type="logical" name="LFOCKAEDFT"> F  </i>
   <i name="HFSCREEN">      0.00000000</i>
   <i name="HFSCREENC">      0.00000000</i>
   <i type="int" name="NBANDSGWLOW">     0</i>
  </separator>
  <separator name="vdW DFT" >
   <i type="logical" name="LUSE_VDW"> F  </i>
   <i name="Zab_VDW">     -0.84910000</i>
   <i name="PARAM1">      0.12340000</i>
   <i name="PARAM2">      1.00000000</i>
   <i name="PARAM3">      0.00000000</i>
  </separator>
  <separator name="model GW" >
   <i type="int" name="MODEL_GW">     0</i>
   <i name="MODEL_EPS0">      6.66499322</i>
   <i name="MODEL_ALPHA">      1.00000000</i>
  </separator>
  <separator name="linear response parameters" >
   <i type="logical" name="LEPSILON"> F  </i>
   <i type="logical" name="LRPA"> F  </i>
   <i type="logical" name="LNABLA"> F  </i>
   <i type="logical" name="LVEL"> F  </i>
   <i type="int" name="KINTER">     0</i>
   <i name="CSHIFT">      0.10000000</i>
   <i name="OMEGAMAX">     -1.00000000</i>
   <i name="DEG_THRESHOLD">      0.00200000</i>
   <i name="RTIME">     -0.10000000</i>
   <i name="WPLASMAI">      0.00000000</i>
   <v name="DFIELD">      0.00000000      0.00000000      0.00000000</v>
   <v name="WPLASMA">      0.00000000      0.00000000      0.00000000      0.00000000      0.00000000      0.00000000      0.00000000      0.00000000      0.00000000</v>
  </separator>
  <separator name="orbital magnetization" >
   <i type="logical" name="NUCIND"> F  </i>
   <v name="MAGPOS">      0.00000000      0.00000000      0.00000000</v>
   <i type="logical" name="LNICSALL"> T  </i>
   <i type="logical" name="ORBITALMAG"> F  </i>
   <i type="logical" name="LMAGBLOCH"> F  </i>
   <i type="logical" name="LCHIMAG"> F  </i>
   <i type="logical" name="LGAUGE"> T  </i>
   <i type="int" name="MAGATOM">     0</i>
   <v name="MAGDIPOL">      0.00000000      0.00000000      0.00000000</v>
   <v name="AVECCONST">      0.00000000      0.00000000      0.00000000</v>
  </separator>
  <separator name="response functions" >
   <i type="logical" name="LFINITE_TEMPERATURE"> F  </i>
   <i type="logical" name="LADDER"> F  </i>
   <i type="logical" name="LRPAFORCE"> F  </i>
   <i type="logical" name="LFXC"> F  </i>
   <i type="logical" name="LHARTREE"> T  </i>
   <i type="int" name="IBSE">     0</i>
   <v type="int" name="KPOINT">    -1     0     0     0</v>
   <i type="logical" name="LTCTC"> F  </i>
   <i type="logical" name="LTCTE"> F  </i>
   <i type="logical" name="LTETE"> F  </i>
   <i type="logical" name="LTRIPLET"> F  </i>
   <i type="logical" name="LFXCEPS"> F  </i>
   <i type="logical" name="LFXHEG"> F  </i>
   <i type="int" name="NATURALO">     2</i>
   <i type="logical" name="LHOLEGF"> F  </i>
   <i type="logical" name="L2ORDER"> F  </i>
   <i type="logical" name="LDMP1"> F  </i>
   <i type="logical" name="LMP2LT"> F  </i>
   <i type="logical" name="LSMP2LT"> F  </i>
   <i type="logical" name="LGWLF"> F  </i>
   <i name="ENCUTGW">     -2.00000000</i>
   <i name="ENCUTGWSOFT">     -2.00000000</i>
   <i name="ENCUTLF">     -1.00000000</i>
   <i type="logical" name="LESF_SPLINES"> F  </i>
   <i type="int" name="LMAXMP2">    -1</i>
   <i name="SCISSOR">      0.00000000</i>
   <i type="int" name="NOMEGA">     0</i>
   <i type="int" name="NOMEGAR">     0</i>
   <i type="int" name="NBANDSGW">    -1</i>
   <i type="int" name="NBANDSO">    -1</i>
   <i type="int" name="NBANDSV">    -1</i>
   <i type="int" name="NELM">   100</i>
   <i type="int" name="NELMHF">     1</i>
   <i type="int" name="DIM">     3</i>
   <i type="int" name="IESPILON">     4</i>
   <i type="int" name="ANTIRES">     0</i>
   <i name="OMEGAMAX">    -30.00000000</i>
   <i name="OMEGAMIN">    -30.00000000</i>
   <i name="OMEGATL">   -200.00000000</i>
   <i type="int" name="OMEGAGRID">     0</i>
   <i name="CSHIFT">     -0.10000000</i>
   <i type="logical" name="LSELFENERGY"> F  </i>
   <i type="logical" name="LSPECTRAL"> F  </i>
   <i type="logical" name="LSPECTRALGW"> F  </i>
   <i type="logical" name="LSINGLES"> F  </i>
   <i type="logical" name="LFERMIGW"> F  </i>
   <i type="logical" name="ODDONLYGW"> F  </i>
   <i type="logical" name="EVENONLYGW"> F  </i>
   <i type="int" name="NKREDLFX">     1</i>
   <i type="int" name="NKREDLFY">     1</i>
   <i type="int" name="NKREDLFZ">     1</i>
   <i type="int" name="MAXMEM">  2800</i>
   <i type="int" name="TELESCOPE">     0</i>
   <i type="int" name="NTAUPAR">    -1</i>
   <i type="int" name="NOMEGAPAR">    -1</i>
   <i name="DAMP_NEWTON">      0.80000001</i>
   <i name="LAMBDA">      1.00000000</i>
  </separator>
  <separator name="External order field" >
   <i name="OFIELD_KAPPA">      0.00000000</i>
   <v name="OFIELD_K">      0.00000000      0.00000000      0.00000000</v>
   <i name="OFIELD_Q6_NEAR">      0.00000000</i>
   <i name="OFIELD_Q6_FAR">      0.00000000</i>
   <i name="OFIELD_A">      0.00000000</i>
  </separator>
 </parameters>
 <atominfo>
  <atoms>      16 </atoms>
  <types>       3 </types>
  <array name="atoms" >
   <dimension dim="1">ion</dimension>
   <field type="string">element</field>
   <field type="int">atomtype</field>
   <set>
    <rc><c>B </c><c>   1</c></rc>
    <rc><c>B </c><c>   1</c></rc>
    <rc><c>B </c><c>   1</c></rc>
    <rc><c>B </c><c>   1</c></rc>
    <rc><c>Mo</c><c>   2</c></rc>
    <rc><c>Mo</c><c>   2</c></rc>
    <rc><c>Mo</c><c>   2</c></rc>
    <rc><c>Mo</c><c>   2</c></rc>
    <rc><c>Mo</c><c>   2</c></rc>
    <rc><c>Mo</c><c>   2</c></rc>
    <rc><c>Mo</c><c>   2</c></rc>
    <rc><c>Mo</c><c>   2</c></rc>
    <rc><c>Si</c><c>   3</c></rc>
    <rc><c>Si</c><c>   3</c></rc>
    <rc><c>Si</c><c>   3</c></rc>
    <rc><c>Si</c><c>   3</c></rc>
   </set>
  </array>
  <array name="atomtypes" >
   <dimension dim="1">type</dimension>
   <field type="int">atomspertype</field>
   <field type="string">element</field>
   <field>mass</field>
   <field>valence</field>
   <field type="string">pseudopotential</field>
   <set>
    <rc><c>   4</c><c>B </c><c>     10.81100000</c><c>      3.00000000</c><c>  PAW_PBE B 06Sep2000                   </c></rc>
    <rc><c>   8</c><c>Mo</c><c>     95.94000000</c><c>     14.00000000</c><c>  PAW_PBE Mo_sv 02Feb2006               </c></rc>
    <rc><c>   4</c><c>Si</c><c>     28.08500000</c><c>      4.00000000</c><c>  PAW_PBE Si 05Jan2001                  </c></rc>
   </set>
  </array>
 </atominfo>
 <structure name="initialpos" >
  <crystal>
   <varray name="basis" >
    <v>       4.85277622       0.00000000      -5.86391467 </v>
    <v>      -0.62926891       4.81180399      -5.86391467 </v>
    <v>       0.00000000       0.00000000       7.61150000 </v>
   </varray>
   <i name="volume">    177.73315265 </i>
   <varray name="rec_basis" >
    <v>       0.20606761       0.02694872       0.00000000 </v>
    <v>       0.00000000       0.20782226       0.00000000 </v>
    <v>       0.15875490       0.18086803       0.13138015 </v>
   </varray>
  </crystal>
  <varray name="positions" >
   <v>       0.75138000       0.25138000       0.00275000 </v>
   <v>       0.24862000       0.74862000       0.99725000 </v>
   <v>       0.25138000       0.24862000       0.50000000 </v>
   <v>       0.74862000       0.75138000       0.50000000 </v>
   <v>       0.89260000       0.39260000       0.50000000 </v>
   <v>       0.10054000       0.10054000       0.00000000 </v>
   <v>       0.10740000       0.60740000       0.50000000 </v>
   <v>       0.89946000       0.89946000       0.00000000 </v>
   <v>       0.39260000       0.89260000       0.50000000 </v>
   <v>       0.60740000       0.10740000       0.50000000 </v>
   <v>       0.39946000       0.39946000       0.00000000 </v>
   <v>       0.60054000       0.60054000       0.00000000 </v>
   <v>       0.50000000       0.00000000       0.00000000 </v>
   <v>       0.00000000       0.00000000       0.50000000 </v>
   <v>       0.00000000       0.50000000       0.00000000 </v>
   <v>       0.50000000       0.50000000       0.50000000 </v>
  </varray>
 </structure>
 <calculation>
  <scstep>
   <time name="total">  110.36  111.27</time>
   <energy>
    <i name="alphaZ">    928.26692653 </i>
    <i name="ewald"> -13162.03743582 </i>
    <i name="hartreedc">  -3321.57703237 </i>
    <i name="XCdc">    640.28373367 </i>
    <i name="pawpsdc">  12389.31429867 </i>
    <i name="pawaedc"> -12320.88645853 </i>
    <i name="eentropy">     -0.00088668 </i>
    <i name="bandstr">    802.70458982 </i>
    <i name="atom">  15595.20480735 </i>
    <i name="e_fr_energy">   1551.27254266 </i>
    <i name="e_wo_entrp">   1551.27342934 </i>
    <i name="e_0_energy">   1551.27298600 </i>
   </energy>
  </scstep>
  <scstep>
   <time name="total">  113.11  114.10</time>
   <energy>
    <i name="e_fr_energy">   -239.78405643 </i>
    <i name="e_wo_entrp">   -239.78249479 </i>
    <i name="e_0_energy">   -239.78327561 </i>
   </energy>
  </scstep>
  <scstep>
   <time name="total">  126.29  127.39</time>
   <energy>
    <i name="e_fr_energy">   -325.09760675 </i>
    <i name="e_wo_entrp">   -325.09591216 </i>
    <i name="e_0_energy">   -325.09675946 </i>
   </energy>
  </scstep>
  <scstep>
   <time name="total">  121.25  122.39</time>
   <energy>
    <i name="e_fr_energy">   -327.15476119 </i>
    <i name="e_wo_entrp">   -327.15289002 </i>
    <i name="e_0_energy">   -327.15382561 </i>
   </energy>
  </scstep>
  <scstep>
   <time name="total">  128.70  129.81</time>
   <energy>
    <i name="e_fr_energy">   -327.18990060 </i>
    <i name="e_wo_entrp">   -327.18802530 </i>
    <i name="e_0_energy">   -327.18896295 </i>
   </energy>
  </scstep>
  <scstep>
   <time name="total">  139.83  141.01</time>
   <energy>
    <i name="e_fr_energy">   -231.78211644 </i>
    <i name="e_wo_entrp">   -231.78046826 </i>
    <i name="e_0_energy">   -231.78129235 </i>
   </energy>
  </scstep>
  <scstep>
   <time name="total">  140.00  141.20</time>
   <energy>
    <i name="e_fr_energy">   -261.91304152 </i>
    <i name="e_wo_entrp">   -261.91113965 </i>
    <i name="e_0_energy">   -261.91209059 </i>
   </energy>
  </scstep>
  <scstep>
   <time name="total">  140.01  141.21</time>
   <energy>
    <i name="e_fr_energy">   -266.35869420 </i>
    <i name="e_wo_entrp">   -266.35727546 </i>
    <i name="e_0_energy">   -266.35798483 </i>
   </energy>
  </scstep>
  <scstep>
   <time name="total">  140.22  141.42</time>
   <energy>
    <i name="e_fr_energy">   -267.32295604 </i>
    <i name="e_wo_entrp">   -267.32173964 </i>
    <i name="e_0_energy">   -267.32234784 </i>
   </energy>
  </scstep>
  <scstep>
   <time name="total">  140.24  141.44</time>
   <energy>
    <i name="e_fr_energy">   -267.60307346 </i>
    <i name="e_wo_entrp">   -267.60188647 </i>
    <i name="e_0_energy">   -267.60247996 </i>
   </energy>
  </scstep>
  <scstep>
   <time name="total">  140.19  141.40</time>
   <energy>
    <i name="e_fr_energy">   -267.70444545 </i>
    <i name="e_wo_entrp">   -267.70323484 </i>
    <i name="e_0_energy">   -267.70384014 </i>
   </energy>
  </scstep>
  <scstep>
   <time name="total">  140.00  141.19</time>
   <energy>
    <i name="e_fr_energy">   -267.73787002 </i>
    <i name="e_wo_entrp">   -267.73663178 </i>
    <i name="e_0_energy">   -267.73725090 </i>
   </energy>
  </scstep>
  <scstep>
   <time name="total">  139.15  140.36</time>
   <energy>
    <i name="e_fr_energy">   -267.75124342 </i>
    <i name="e_wo_entrp">   -267.74995825 </i>
    <i name="e_0_energy">   -267.75060084 </i>
   </energy>
  </scstep>
  <scstep>
   <time name="total">  138.57  139.78</time>
   <energy>
    <i name="e_fr_energy">   -267.75648961 </i>
    <i name="e_wo_entrp">   -267.75513193 </i>
    <i name="e_0_energy">   -267.75581077 </i>
   </energy>
  </scstep>
  <scstep>
   <time name="total">  139.42  140.62</time>
   <energy>
    <i name="e_fr_energy">   -267.75825679 </i>
    <i name="e_wo_entrp">   -267.75686805 </i>
    <i name="e_0_energy">   -267.75756242 </i>
   </energy>
  </scstep>
  <scstep>
   <time name="total">  139.96  141.14</time>
   <energy>
    <i name="e_fr_energy">   -267.75893445 </i>
    <i name="e_wo_entrp">   -267.75752469 </i>
    <i name="e_0_energy">   -267.75822957 </i>
   </energy>
  </scstep>
  <scstep>
   <time name="total">  139.62  140.81</time>
   <energy>
    <i name="e_fr_energy">   -267.75921494 </i>
    <i name="e_wo_entrp">   -267.75780316 </i>
    <i name="e_0_energy">   -267.75850905 </i>
   </energy>
  </scstep>
  <scstep>
