<?xml version="1.0" encoding="ISO-8859-1"?>
<modeling>
 <generator>
  <i name="program" type="string">vasp </i>
  <i name="version" type="string">6.2.0  </i>
  <i name="subversion" type="string">18Jan21 (build Jan 05 2022 15:41:44) complex                          parallel </i>
  <i name="platform" type="string">LinuxIFC </i>
  <i name="date" type="string">2025 05 07 </i>
  <i name="time" type="string">21:23:14 </i>
 </generator>
 <incar>
  <i type="string" name="SYSTEM">routine with relax: pwdword</i>
  <i type="string" name="PREC">Acc</i>
  <i type="int" name="IALGO">    38</i>
  <i type="string" name="ALGO">A</i>
  <i type="logical" name="ADDGRID"> T  </i>
  <i type="int" name="ICHARG">     2</i>
  <i type="int" name="NELM">   100</i>
  <i type="int" name="NELMIN">     6</i>
  <i name="EDIFF">      0.00000000</i>
  <i type="int" name="NSW">     0</i>
  <i type="int" name="ISIF">    -1</i>
  <i name="ENCUT">    600.00000000</i>
  <i type="logical" name="LREAL"> F  </i>
  <i type="int" name="ISMEAR">     0</i>
  <i name="SIGMA">      0.02000000</i>
  <i type="logical" name="LASPH"> T  </i>
  <i type="string" name="METAGGA">R2SCAN</i>
  <i type="logical" name="LMIXTAU"> F  </i>
 </incar>
 <primitive_cell>
  <structure name="primitive_cell" >
   <crystal>
    <varray name="basis" >
     <v>       3.06664442      -0.00038134      -0.55373681 </v>
     <v>      -0.10025803       3.06500317      -0.55373626 </v>
     <v>      -0.00026793      -0.00027625       8.77640622 </v>
    </varray>
    <i name="volume">     82.49057965 </i>
    <varray name="rec_basis" >
     <v>       0.32609251       0.01066853       0.00001029 </v>
     <v>       0.00004243       0.32626718       0.00001027 </v>
     <v>       0.02057709       0.02125853       0.11394315 </v>
    </varray>
   </crystal>
   <varray name="positions" >
    <v>       0.46953659       0.71955242       0.43932981 </v>
    <v>       0.21955950       0.96954297       0.93934429 </v>
    <v>       0.53045977       0.28044325       0.56066121 </v>
    <v>       0.78044672       0.03046257       0.06066847 </v>
    <v>       0.32170548       0.57176868       0.14366857 </v>
    <v>       0.07176437       0.82170183       0.64366060 </v>
    <v>       0.67831043       0.42824793       0.85636391 </v>
    <v>       0.92821716       0.17828036       0.35630315 </v>
   </varray>
  </structure>
  <varray name="primitive_index" >
   <v type="int" >        1 </v>
   <v type="int" >        2 </v>
   <v type="int" >        3 </v>
   <v type="int" >        4 </v>
   <v type="int" >        5 </v>
   <v type="int" >        6 </v>
   <v type="int" >        7 </v>
   <v type="int" >        8 </v>
  </varray>
 </primitive_cell>
 <kpoints>
  <generation param="Gamma">
   <v type="int" name="divisions">      11       11        4 </v>
   <v name="usershift">      0.00000000       0.00000000       0.00000000 </v>
   <v name="genvec1">      0.09090909       0.00000000       0.00000000 </v>
   <v name="genvec2">     -0.00000000       0.09090909      -0.00000000 </v>
   <v name="genvec3">      0.00000000       0.00000000       0.25000000 </v>
   <v name="shift">      0.00000000       0.00000000       0.00000000 </v>
  </generation>
  <varray name="kpointlist" >
   <v>       0.00000000       0.00000000       0.00000000 </v>
   <v>       0.09090909       0.00000000       0.00000000 </v>
   <v>       0.00000000      -0.09090909       0.00000000 </v>
   <v>       0.18181818       0.00000000       0.00000000 </v>
   <v>       0.00000000      -0.18181818      -0.00000000 </v>
   <v>       0.27272727      -0.00000000       0.00000000 </v>
   <v>       0.00000000      -0.27272727      -0.00000000 </v>
   <v>       0.36363636       0.00000000       0.00000000 </v>
   <v>       0.00000000      -0.36363636       0.00000000 </v>
   <v>       0.45454545      -0.00000000       0.00000000 </v>
   <v>       0.00000000      -0.45454545      -0.00000000 </v>
   <v>       0.09090909       0.09090909       0.00000000 </v>
   <v>       0.18181818       0.09090909       0.00000000 </v>
   <v>      -0.09090909      -0.18181818      -0.00000000 </v>
   <v>       0.27272727       0.09090909       0.00000000 </v>
   <v>      -0.09090909      -0.27272727      -0.00000000 </v>
   <v>       0.36363636       0.09090909       0.00000000 </v>
   <v>      -0.09090909      -0.36363636      -0.00000000 </v>
   <v>       0.45454545       0.09090909       0.00000000 </v>
   <v>      -0.09090909      -0.45454545      -0.00000000 </v>
   <v>      -0.45454545       0.09090909      -0.00000000 </v>
   <v>      -0.09090909       0.45454545       0.00000000 </v>
   <v>      -0.36363636       0.09090909      -0.00000000 </v>
   <v>      -0.09090909       0.36363636      -0.00000000 </v>
   <v>      -0.27272727       0.09090909      -0.00000000 </v>
   <v>      -0.09090909       0.27272727       0.00000000 </v>
   <v>      -0.18181818       0.09090909      -0.00000000 </v>
   <v>      -0.09090909       0.18181818       0.00000000 </v>
   <v>      -0.09090909       0.09090909       0.00000000 </v>
   <v>       0.18181818       0.18181818       0.00000000 </v>
   <v>       0.27272727       0.18181818       0.00000000 </v>
   <v>      -0.18181818      -0.27272727      -0.00000000 </v>
   <v>       0.36363636       0.18181818       0.00000000 </v>
   <v>      -0.18181818      -0.36363636      -0.00000000 </v>
   <v>       0.45454545       0.18181818       0.00000000 </v>
   <v>      -0.18181818      -0.45454545      -0.00000000 </v>
   <v>      -0.45454545       0.18181818      -0.00000000 </v>
   <v>      -0.18181818       0.45454545       0.00000000 </v>
   <v>      -0.36363636       0.18181818      -0.00000000 </v>
   <v>      -0.18181818       0.36363636       0.00000000 </v>
   <v>      -0.27272727       0.18181818      -0.00000000 </v>
   <v>      -0.18181818       0.27272727       0.00000000 </v>
   <v>      -0.18181818       0.18181818       0.00000000 </v>
   <v>       0.27272727       0.27272727       0.00000000 </v>
   <v>       0.36363636       0.27272727       0.00000000 </v>
   <v>      -0.27272727      -0.36363636      -0.00000000 </v>
   <v>       0.45454545       0.27272727       0.00000000 </v>
   <v>      -0.27272727      -0.45454545      -0.00000000 </v>
   <v>      -0.45454545       0.27272727      -0.00000000 </v>
   <v>      -0.27272727       0.45454545       0.00000000 </v>
   <v>      -0.36363636       0.27272727      -0.00000000 </v>
   <v>      -0.27272727       0.36363636       0.00000000 </v>
   <v>      -0.27272727       0.27272727       0.00000000 </v>
   <v>       0.36363636       0.36363636       0.00000000 </v>
   <v>       0.45454545       0.36363636       0.00000000 </v>
   <v>      -0.36363636      -0.45454545      -0.00000000 </v>
   <v>      -0.45454545       0.36363636      -0.00000000 </v>
   <v>      -0.36363636       0.45454545       0.00000000 </v>
   <v>      -0.36363636       0.36363636      -0.00000000 </v>
   <v>       0.45454545       0.45454545       0.00000000 </v>
   <v>      -0.45454545       0.45454545      -0.00000000 </v>
   <v>      -0.00000000      -0.00000000       0.25000000 </v>
   <v>       0.09090909       0.00000000       0.25000000 </v>
   <v>       0.00000000      -0.09090909      -0.25000000 </v>
   <v>       0.18181818       0.00000000       0.25000000 </v>
   <v>       0.00000000      -0.18181818      -0.25000000 </v>
   <v>       0.27272727      -0.00000000       0.25000000 </v>
   <v>       0.00000000      -0.27272727      -0.25000000 </v>
   <v>       0.36363636      -0.00000000       0.25000000 </v>
   <v>       0.00000000      -0.36363636      -0.25000000 </v>
   <v>       0.45454545      -0.00000000       0.25000000 </v>
   <v>       0.00000000      -0.45454545      -0.25000000 </v>
   <v>      -0.45454545      -0.00000000       0.25000000 </v>
   <v>       0.00000000       0.45454545      -0.25000000 </v>
   <v>      -0.36363636      -0.00000000       0.25000000 </v>
   <v>       0.00000000       0.36363636      -0.25000000 </v>
   <v>      -0.27272727      -0.00000000       0.25000000 </v>
   <v>       0.00000000       0.27272727      -0.25000000 </v>
   <v>      -0.18181818      -0.00000000       0.25000000 </v>
   <v>      -0.00000000       0.18181818      -0.25000000 </v>
   <v>      -0.09090909      -0.00000000       0.25000000 </v>
   <v>       0.00000000       0.09090909      -0.25000000 </v>
   <v>       0.09090909       0.09090909       0.25000000 </v>
   <v>       0.18181818       0.09090909       0.25000000 </v>
   <v>      -0.09090909      -0.18181818      -0.25000000 </v>
   <v>       0.27272727       0.09090909       0.25000000 </v>
   <v>      -0.09090909      -0.27272727      -0.25000000 </v>
   <v>       0.36363636       0.09090909       0.25000000 </v>
   <v>      -0.09090909      -0.36363636      -0.25000000 </v>
   <v>       0.45454545       0.09090909       0.25000000 </v>
   <v>      -0.09090909      -0.45454545      -0.25000000 </v>
   <v>      -0.45454545       0.09090909       0.25000000 </v>
   <v>      -0.09090909       0.45454545      -0.25000000 </v>
   <v>      -0.36363636       0.09090909       0.25000000 </v>
   <v>      -0.09090909       0.36363636      -0.25000000 </v>
   <v>      -0.27272727       0.09090909       0.25000000 </v>
   <v>      -0.09090909       0.27272727      -0.25000000 </v>
   <v>      -0.18181818       0.09090909       0.25000000 </v>
   <v>      -0.09090909       0.18181818      -0.25000000 </v>
   <v>      -0.09090909       0.09090909       0.25000000 </v>
   <v>      -0.09090909       0.09090909      -0.25000000 </v>
   <v>       0.18181818       0.18181818       0.25000000 </v>
   <v>       0.27272727       0.18181818       0.25000000 </v>
   <v>      -0.18181818      -0.27272727      -0.25000000 </v>
   <v>       0.36363636       0.18181818       0.25000000 </v>
   <v>      -0.18181818      -0.36363636      -0.25000000 </v>
   <v>       0.45454545       0.18181818       0.25000000 </v>
   <v>      -0.18181818      -0.45454545      -0.25000000 </v>
   <v>      -0.45454545       0.18181818       0.25000000 </v>
   <v>      -0.18181818       0.45454545      -0.25000000 </v>
   <v>      -0.36363636       0.18181818       0.25000000 </v>
   <v>      -0.18181818       0.36363636      -0.25000000 </v>
   <v>      -0.27272727       0.18181818       0.25000000 </v>
   <v>      -0.18181818       0.27272727      -0.25000000 </v>
   <v>      -0.18181818       0.18181818       0.25000000 </v>
   <v>      -0.18181818       0.18181818      -0.25000000 </v>
   <v>      -0.09090909       0.18181818       0.25000000 </v>
   <v>      -0.18181818       0.09090909      -0.25000000 </v>
   <v>       0.27272727       0.27272727       0.25000000 </v>
   <v>       0.36363636       0.27272727       0.25000000 </v>
   <v>      -0.27272727      -0.36363636      -0.25000000 </v>
   <v>       0.45454545       0.27272727       0.25000000 </v>
   <v>      -0.27272727      -0.45454545      -0.25000000 </v>
   <v>      -0.45454545       0.27272727       0.25000000 </v>
   <v>      -0.27272727       0.45454545      -0.25000000 </v>
   <v>      -0.36363636       0.27272727       0.25000000 </v>
   <v>      -0.27272727       0.36363636      -0.25000000 </v>
   <v>      -0.27272727       0.27272727       0.25000000 </v>
   <v>      -0.27272727       0.27272727      -0.25000000 </v>
   <v>      -0.18181818       0.27272727       0.25000000 </v>
   <v>      -0.27272727       0.18181818      -0.25000000 </v>
   <v>      -0.09090909       0.27272727       0.25000000 </v>
   <v>      -0.27272727       0.09090909      -0.25000000 </v>
   <v>       0.36363636       0.36363636       0.25000000 </v>
   <v>       0.45454545       0.36363636       0.25000000 </v>
   <v>      -0.36363636      -0.45454545      -0.25000000 </v>
   <v>      -0.45454545       0.36363636       0.25000000 </v>
   <v>      -0.36363636       0.45454545      -0.25000000 </v>
   <v>      -0.36363636       0.36363636       0.25000000 </v>
   <v>      -0.36363636       0.36363636      -0.25000000 </v>
   <v>      -0.27272727       0.36363636       0.25000000 </v>
   <v>      -0.36363636       0.27272727      -0.25000000 </v>
   <v>      -0.18181818       0.36363636       0.25000000 </v>
   <v>      -0.36363636       0.18181818      -0.25000000 </v>
   <v>      -0.09090909       0.36363636       0.25000000 </v>
   <v>      -0.36363636       0.09090909      -0.25000000 </v>
   <v>       0.45454545       0.45454545       0.25000000 </v>
   <v>      -0.45454545       0.45454545       0.25000000 </v>
   <v>      -0.45454545       0.45454545      -0.25000000 </v>
   <v>      -0.36363636       0.45454545       0.25000000 </v>
   <v>      -0.45454545       0.36363636      -0.25000000 </v>
   <v>      -0.27272727       0.45454545       0.25000000 </v>
   <v>      -0.45454545       0.27272727      -0.25000000 </v>
   <v>      -0.18181818       0.45454545       0.25000000 </v>
   <v>      -0.45454545       0.18181818      -0.25000000 </v>
   <v>      -0.09090909       0.45454545       0.25000000 </v>
   <v>      -0.45454545       0.09090909      -0.25000000 </v>
   <v>      -0.45454545      -0.45454545       0.25000000 </v>
   <v>      -0.36363636      -0.45454545       0.25000000 </v>
   <v>       0.45454545       0.36363636      -0.25000000 </v>
   <v>      -0.27272727      -0.45454545       0.25000000 </v>
   <v>       0.45454545       0.27272727      -0.25000000 </v>
   <v>      -0.18181818      -0.45454545       0.25000000 </v>
   <v>       0.45454545       0.18181818      -0.25000000 </v>
   <v>      -0.09090909      -0.45454545       0.25000000 </v>
   <v>       0.45454545       0.09090909      -0.25000000 </v>
   <v>      -0.36363636      -0.36363636       0.25000000 </v>
   <v>      -0.27272727      -0.36363636       0.25000000 </v>
   <v>       0.36363636       0.27272727      -0.25000000 </v>
   <v>      -0.18181818      -0.36363636       0.25000000 </v>
   <v>       0.36363636       0.18181818      -0.25000000 </v>
   <v>      -0.09090909      -0.36363636       0.25000000 </v>
   <v>       0.36363636       0.09090909      -0.25000000 </v>
   <v>      -0.27272727      -0.27272727       0.25000000 </v>
   <v>      -0.18181818      -0.27272727       0.25000000 </v>
   <v>       0.27272727       0.18181818      -0.25000000 </v>
   <v>      -0.09090909      -0.27272727       0.25000000 </v>
   <v>       0.27272727       0.09090909      -0.25000000 </v>
   <v>      -0.18181818      -0.18181818       0.25000000 </v>
   <v>      -0.09090909      -0.18181818       0.25000000 </v>
   <v>       0.18181818       0.09090909      -0.25000000 </v>
   <v>      -0.09090909      -0.09090909       0.25000000 </v>
   <v>      -0.00000000      -0.00000000       0.50000000 </v>
   <v>       0.09090909       0.00000000       0.50000000 </v>
   <v>      -0.00000000      -0.09090909       0.50000000 </v>
   <v>       0.18181818      -0.00000000       0.50000000 </v>
   <v>      -0.00000000      -0.18181818       0.50000000 </v>
   <v>       0.27272727       0.00000000       0.50000000 </v>
   <v>       0.00000000      -0.27272727       0.50000000 </v>
   <v>       0.36363636      -0.00000000       0.50000000 </v>
   <v>      -0.00000000      -0.36363636       0.50000000 </v>
   <v>       0.45454545      -0.00000000       0.50000000 </v>
   <v>      -0.00000000      -0.45454545       0.50000000 </v>
   <v>       0.09090909       0.09090909       0.50000000 </v>
   <v>       0.18181818       0.09090909       0.50000000 </v>
   <v>      -0.09090909      -0.18181818       0.50000000 </v>
   <v>       0.27272727       0.09090909       0.50000000 </v>
   <v>      -0.09090909      -0.27272727       0.50000000 </v>
   <v>       0.36363636       0.09090909       0.50000000 </v>
   <v>      -0.09090909      -0.36363636       0.50000000 </v>
   <v>       0.45454545       0.09090909       0.50000000 </v>
   <v>      -0.09090909      -0.45454545       0.50000000 </v>
   <v>      -0.45454545       0.09090909       0.50000000 </v>
   <v>      -0.09090909       0.45454545       0.50000000 </v>
   <v>      -0.36363636       0.09090909       0.50000000 </v>
   <v>      -0.09090909       0.36363636       0.50000000 </v>
   <v>      -0.27272727       0.09090909       0.50000000 </v>
   <v>      -0.09090909       0.27272727       0.50000000 </v>
   <v>      -0.18181818       0.09090909       0.50000000 </v>
   <v>      -0.09090909       0.18181818       0.50000000 </v>
   <v>      -0.09090909       0.09090909       0.50000000 </v>
   <v>       0.18181818       0.18181818       0.50000000 </v>
   <v>       0.27272727       0.18181818       0.50000000 </v>
   <v>      -0.18181818      -0.27272727       0.50000000 </v>
   <v>       0.36363636       0.18181818       0.50000000 </v>
   <v>      -0.18181818      -0.36363636       0.50000000 </v>
   <v>       0.45454545       0.18181818       0.50000000 </v>
   <v>      -0.18181818      -0.45454545       0.50000000 </v>
   <v>      -0.45454545       0.18181818       0.50000000 </v>
   <v>      -0.18181818       0.45454545       0.50000000 </v>
   <v>      -0.36363636       0.18181818       0.50000000 </v>
   <v>      -0.18181818       0.36363636       0.50000000 </v>
   <v>      -0.27272727       0.18181818       0.50000000 </v>
   <v>      -0.18181818       0.27272727       0.50000000 </v>
   <v>      -0.18181818       0.18181818       0.50000000 </v>
   <v>       0.27272727       0.27272727       0.50000000 </v>
   <v>       0.36363636       0.27272727       0.50000000 </v>
   <v>      -0.27272727      -0.36363636       0.50000000 </v>
   <v>       0.45454545       0.27272727       0.50000000 </v>
   <v>      -0.27272727      -0.45454545       0.50000000 </v>
   <v>      -0.45454545       0.27272727       0.50000000 </v>
   <v>      -0.27272727       0.45454545       0.50000000 </v>
   <v>      -0.36363636       0.27272727       0.50000000 </v>
   <v>      -0.27272727       0.36363636       0.50000000 </v>
   <v>      -0.27272727       0.27272727       0.50000000 </v>
   <v>       0.36363636       0.36363636       0.50000000 </v>
   <v>       0.45454545       0.36363636       0.50000000 </v>
   <v>      -0.36363636      -0.45454545       0.50000000 </v>
   <v>      -0.45454545       0.36363636       0.50000000 </v>
   <v>      -0.36363636       0.45454545       0.50000000 </v>
   <v>      -0.36363636       0.36363636       0.50000000 </v>
   <v>       0.45454545       0.45454545       0.50000000 </v>
   <v>      -0.45454545       0.45454545       0.50000000 </v>
  </varray>
  <varray name="weights" >
   <v>       0.00206612 </v>
   <v>       0.00413223 </v>
   <v>       0.00413223 </v>
   <v>       0.00413223 </v>
   <v>       0.00413223 </v>
   <v>       0.00413223 </v>
   <v>       0.00413223 </v>
   <v>       0.00413223 </v>
   <v>       0.00413223 </v>
   <v>       0.00413223 </v>
   <v>       0.00413223 </v>
   <v>       0.00413223 </v>
   <v>       0.00413223 </v>
   <v>       0.00413223 </v>
   <v>       0.00413223 </v>
   <v>       0.00413223 </v>
   <v>       0.00413223 </v>
   <v>       0.00413223 </v>
   <v>       0.00413223 </v>
   <v>       0.00413223 </v>
   <v>       0.00413223 </v>
   <v>       0.00413223 </v>
   <v>       0.00413223 </v>
   <v>       0.00413223 </v>
   <v>       0.00413223 </v>
   <v>       0.00413223 </v>
   <v>       0.00413223 </v>
   <v>       0.00413223 </v>
   <v>       0.00413223 </v>
   <v>       0.00413223 </v>
   <v>       0.00413223 </v>
   <v>       0.00413223 </v>
   <v>       0.00413223 </v>
   <v>       0.00413223 </v>
   <v>       0.00413223 </v>
   <v>       0.00413223 </v>
   <v>       0.00413223 </v>
   <v>       0.00413223 </v>
   <v>       0.00413223 </v>
   <v>       0.00413223 </v>
   <v>       0.00413223 </v>
   <v>       0.00413223 </v>
   <v>       0.00413223 </v>
   <v>       0.00413223 </v>
   <v>       0.00413223 </v>
   <v>       0.00413223 </v>
   <v>       0.00413223 </v>
   <v>       0.00413223 </v>
   <v>       0.00413223 </v>
   <v>       0.00413223 </v>
   <v>       0.00413223 </v>
   <v>       0.00413223 </v>
   <v>       0.00413223 </v>
   <v>       0.00413223 </v>
   <v>       0.00413223 </v>
   <v>       0.00413223 </v>
   <v>       0.00413223 </v>
   <v>       0.00413223 </v>
   <v>       0.00413223 </v>
   <v>       0.00413223 </v>
   <v>       0.00413223 </v>
   <v>       0.00413223 </v>
   <v>       0.00413223 </v>
   <v>       0.00413223 </v>
   <v>       0.00413223 </v>
   <v>       0.00413223 </v>
   <v>       0.00413223 </v>
   <v>       0.00413223 </v>
   <v>       0.00413223 </v>
   <v>       0.00413223 </v>
   <v>       0.00413223 </v>
   <v>       0.00413223 </v>
   <v>       0.00413223 </v>
   <v>       0.00413223 </v>
   <v>       0.00413223 </v>
   <v>       0.00413223 </v>
   <v>       0.00413223 </v>
   <v>       0.00413223 </v>
   <v>       0.00413223 </v>
   <v>       0.00413223 </v>
   <v>       0.00413223 </v>
   <v>       0.00413223 </v>
   <v>       0.00413223 </v>
   <v>       0.00413223 </v>
   <v>       0.00413223 </v>
   <v>       0.00413223 </v>
   <v>       0.00413223 </v>
   <v>       0.00413223 </v>
   <v>       0.00413223 </v>
   <v>       0.00413223 </v>
   <v>       0.00413223 </v>
   <v>       0.00413223 </v>
   <v>       0.00413223 </v>
   <v>       0.00413223 </v>
   <v>       0.00413223 </v>
   <v>       0.00413223 </v>
   <v>       0.00413223 </v>
   <v>       0.00413223 </v>
   <v>       0.00413223 </v>
   <v>       0.00413223 </v>
   <v>       0.00413223 </v>
   <v>       0.00413223 </v>
   <v>       0.00413223 </v>
   <v>       0.00413223 </v>
   <v>       0.00413223 </v>
   <v>       0.00413223 </v>
   <v>       0.00413223 </v>
   <v>       0.00413223 </v>
   <v>       0.00413223 </v>
   <v>       0.00413223 </v>
   <v>       0.00413223 </v>
   <v>       0.00413223 </v>
   <v>       0.00413223 </v>
   <v>       0.00413223 </v>
   <v>       0.00413223 </v>
   <v>       0.00413223 </v>
   <v>       0.00413223 </v>
   <v>       0.00413223 </v>
   <v>       0.00413223 </v>
   <v>       0.00413223 </v>
   <v>       0.00413223 </v>
   <v>       0.00413223 </v>
   <v>       0.00413223 </v>
   <v>       0.00413223 </v>
   <v>       0.00413223 </v>
   <v>       0.00413223 </v>
   <v>       0.00413223 </v>
   <v>       0.00413223 </v>
   <v>       0.00413223 </v>
   <v>       0.00413223 </v>
   <v>       0.00413223 </v>
   <v>       0.00413223 </v>
   <v>       0.00413223 </v>
   <v>       0.00413223 </v>
   <v>       0.00413223 </v>
   <v>       0.00413223 </v>
   <v>       0.00413223 </v>
   <v>       0.00413223 </v>
   <v>       0.00413223 </v>
   <v>       0.00413223 </v>
   <v>       0.00413223 </v>
   <v>       0.00413223 </v>
   <v>       0.00413223 </v>
   <v>       0.00413223 </v>
   <v>       0.00413223 </v>
   <v>       0.00413223 </v>
   <v>       0.00413223 </v>
   <v>       0.00413223 </v>
   <v>       0.00413223 </v>
   <v>       0.00413223 </v>
   <v>       0.00413223 </v>
   <v>       0.00413223 </v>
   <v>       0.00413223 </v>
   <v>       0.00413223 </v>
   <v>       0.00413223 </v>
   <v>       0.00413223 </v>
   <v>       0.00413223 </v>
   <v>       0.00413223 </v>
   <v>       0.00413223 </v>
   <v>       0.00413223 </v>
   <v>       0.00413223 </v>
   <v>       0.00413223 </v>
   <v>       0.00413223 </v>
   <v>       0.00413223 </v>
   <v>       0.00413223 </v>
   <v>       0.00413223 </v>
   <v>       0.00413223 </v>
   <v>       0.00413223 </v>
   <v>       0.00413223 </v>
   <v>       0.00413223 </v>
   <v>       0.00413223 </v>
   <v>       0.00413223 </v>
   <v>       0.00413223 </v>
   <v>       0.00413223 </v>
   <v>       0.00413223 </v>
   <v>       0.00413223 </v>
   <v>       0.00413223 </v>
   <v>       0.00413223 </v>
   <v>       0.00413223 </v>
   <v>       0.00413223 </v>
   <v>       0.00413223 </v>
   <v>       0.00413223 </v>
   <v>       0.00206612 </v>
   <v>       0.00413223 </v>
   <v>       0.00413223 </v>
   <v>       0.00413223 </v>
   <v>       0.00413223 </v>
   <v>       0.00413223 </v>
   <v>       0.00413223 </v>
   <v>       0.00413223 </v>
   <v>       0.00413223 </v>
   <v>       0.00413223 </v>
   <v>       0.00413223 </v>
   <v>       0.00413223 </v>
   <v>       0.00413223 </v>
   <v>       0.00413223 </v>
   <v>       0.00413223 </v>
   <v>       0.00413223 </v>
   <v>       0.00413223 </v>
   <v>       0.00413223 </v>
   <v>       0.00413223 </v>
   <v>       0.00413223 </v>
   <v>       0.00413223 </v>
   <v>       0.00413223 </v>
   <v>       0.00413223 </v>
   <v>       0.00413223 </v>
   <v>       0.00413223 </v>
   <v>       0.00413223 </v>
   <v>       0.00413223 </v>
   <v>       0.00413223 </v>
   <v>       0.00413223 </v>
   <v>       0.00413223 </v>
   <v>       0.00413223 </v>
   <v>       0.00413223 </v>
   <v>       0.00413223 </v>
   <v>       0.00413223 </v>
   <v>       0.00413223 </v>
   <v>       0.00413223 </v>
   <v>       0.00413223 </v>
   <v>       0.00413223 </v>
   <v>       0.00413223 </v>
   <v>       0.00413223 </v>
   <v>       0.00413223 </v>
   <v>       0.00413223 </v>
   <v>       0.00413223 </v>
   <v>       0.00413223 </v>
   <v>       0.00413223 </v>
   <v>       0.00413223 </v>
   <v>       0.00413223 </v>
   <v>       0.00413223 </v>
   <v>       0.00413223 </v>
   <v>       0.00413223 </v>
   <v>       0.00413223 </v>
   <v>       0.00413223 </v>
   <v>       0.00413223 </v>
   <v>       0.00413223 </v>
   <v>       0.00413223 </v>
   <v>       0.00413223 </v>
   <v>       0.00413223 </v>
   <v>       0.00413223 </v>
   <v>       0.00413223 </v>
   <v>       0.00413223 </v>
   <v>       0.00413223 </v>
  </varray>
 </kpoints>
 <parameters>
  <separator name="general" >
   <i type="string" name="SYSTEM">routine with relax: pwdword</i>
   <i type="logical" name="LCOMPAT"> F  </i>
  </separator>
  <separator name="electronic" >
   <i type="string" name="PREC">acc</i>
   <i name="ENMAX">    600.00000000</i>
   <i name="ENAUG">    535.51400000</i>
   <i name="EDIFF">      0.00000000</i>
   <i type="int" name="IALGO">    58</i>
   <i type="int" name="IWAVPR">    10</i>
   <i type="int" name="NBANDS">    42</i>
   <i type="int" name="NBANDSLOW">    -1</i>
   <i type="int" name="NBANDSHIGH">    -1</i>
   <i name="NELECT">     68.00000000</i>
   <i type="int" name="TURBO">     0</i>
   <i type="int" name="IRESTART">     0</i>
   <i type="int" name="NREBOOT">     0</i>
   <i type="int" name="NMIN">     0</i>
   <i name="EREF">      0.00000000</i>
   <separator name="electronic smearing" >
    <i type="int" name="ISMEAR">     0</i>
    <i name="SIGMA">      0.02000000</i>
    <i name="KSPACING">      0.50000000</i>
    <i type="logical" name="KGAMMA"> T  </i>
    <i type="logical" name="KBLOWUP"> T  </i>
   </separator>
   <separator name="electronic projectors" >
    <i type="logical" name="LREAL"> F  </i>
    <v name="ROPT">      0.00000000      0.00000000</v>
    <i type="int" name="LMAXPAW">  -100</i>
    <i type="int" name="LMAXMIX">     2</i>
    <i type="logical" name="NLSPLINE"> F  </i>
   </separator>
   <separator name="electronic startup" >
    <i type="int" name="ISTART">     0</i>
    <i type="int" name="ICHARG">     2</i>
    <i type="int" name="INIWAV">     1</i>
   </separator>
   <separator name="electronic spin" >
    <i type="int" name="ISPIN">     1</i>
    <i type="logical" name="LNONCOLLINEAR"> F  </i>
    <v name="MAGMOM">      1.00000000      1.00000000      1.00000000      1.00000000      1.00000000      1.00000000      1.00000000      1.00000000</v>
    <i name="NUPDOWN">     -1.00000000</i>
    <i type="logical" name="LSORBIT"> F  </i>
    <v name="SAXIS">      0.00000000      0.00000000      1.00000000</v>
    <i type="logical" name="LSPIRAL"> F  </i>
    <v name="QSPIRAL">      0.00000000      0.00000000      0.00000000</v>
    <i type="logical" name="LZEROZ"> F  </i>
   </separator>
   <separator name="electronic exchange-correlation" >
    <i type="logical" name="LASPH"> T  </i>
    <i type="logical" name="LMETAGGA"> F  </i>
   </separator>
   <separator name="electronic convergence" >
    <i type="int" name="NELM">   100</i>
    <i type="int" name="NELMDL">    -5</i>
    <i type="int" name="NELMIN">     6</i>
    <i name="ENINI">    600.00000000</i>
    <separator name="electronic convergence detail" >
     <i type="logical" name="LDIAG"> T  </i>
     <i type="logical" name="LSUBROT"> F  </i>
     <i name="WEIMIN">      0.00000000</i>
     <i name="EBREAK">      0.00000000</i>
     <i name="DEPER">      0.30000000</i>
     <i type="int" name="NRMM">     4</i>
     <i name="TIME">      0.40000000</i>
    </separator>
   </separator>
   <separator name="electronic mixer" >
    <i name="AMIX">      0.40000000</i>
    <i name="BMIX">      1.00000000</i>
    <i name="AMIN">      0.10000000</i>
    <i name="AMIX_MAG">      1.60000000</i>
    <i name="BMIX_MAG">      1.00000000</i>
    <separator name="electronic mixer details" >
     <i type="int" name="IMIX">     4</i>
     <i type="logical" name="MIXFIRST"> F  </i>
     <i type="int" name="MAXMIX">   -45</i>
     <i name="WC">    100.00000000</i>
     <i type="int" name="INIMIX">     1</i>
     <i type="int" name="MIXPRE">     1</i>
     <i type="int" name="MREMOVE">     5</i>
    </separator>
   </separator>
   <separator name="electronic dipolcorrection" >
    <i type="logical" name="LDIPOL"> F  </i>
    <i type="logical" name="LMONO"> F  </i>
    <i type="int" name="IDIPOL">     0</i>
    <i name="EPSILON">      1.00000000</i>
    <v name="DIPOL">   -100.00000000   -100.00000000   -100.00000000</v>
    <i name="EFIELD">      0.00000000</i>
   </separator>
  </separator>
  <separator name="grids" >
   <i type="int" name="NGX">    28</i>
   <i type="int" name="NGY">    28</i>
   <i type="int" name="NGZ">    70</i>
   <i type="int" name="NGXF">    56</i>
   <i type="int" name="NGYF">    56</i>
   <i type="int" name="NGZF">   140</i>
   <i type="logical" name="ADDGRID"> T  </i>
  </separator>
  <separator name="ionic" >
   <i type="int" name="NSW">     0</i>
   <i type="int" name="IBRION">    -1</i>
   <i type="int" name="MDALGO">     0</i>
   <i type="int" name="ISIF">    -1</i>
   <i name="PSTRESS">      0.00000000</i>
   <i name="EDIFFG">      0.00000001</i>
   <i type="int" name="NFREE">     0</i>
   <i name="POTIM">      0.50000000</i>
   <i name="SMASS">     -3.00000000</i>
   <i name="SCALEE">      1.00000000</i>
  </separator>
  <separator name="ionic md" >
   <i name="TEBEG">      0.00010000</i>
   <i name="TEEND">      0.00010000</i>
   <i type="int" name="NBLOCK">     1</i>
   <i type="int" name="KBLOCK">     1</i>
   <i type="int" name="NPACO">   256</i>
   <i name="APACO">     16.00000000</i>
  </separator>
  <separator name="symmetry" >
   <i type="int" name="ISYM">     2</i>
   <i name="SYMPREC">      0.00001000</i>
  </separator>
  <separator name="dos" >
   <i type="int" name="LORBIT">     0</i>
   <v name="RWIGS">     -1.00000000     -1.00000000</v>
   <i type="int" name="NEDOS">   301</i>
   <i name="EMIN">     10.00000000</i>
   <i name="EMAX">    -10.00000000</i>
   <i name="EFERMI">      0.00000000</i>
  </separator>
  <separator name="writing" >
   <i type="int" name="NWRITE">     2</i>
   <i type="logical" name="LWAVE"> T  </i>
   <i type="logical" name="LDOWNSAMPLE"> F  </i>
   <i type="logical" name="LCHARG"> T  </i>
   <i type="logical" name="LPARD"> F  </i>
   <i type="logical" name="LVTOT"> F  </i>
   <i type="logical" name="LVHAR"> F  </i>
   <i type="logical" name="LELF"> F  </i>
   <i type="logical" name="LOPTICS"> F  </i>
   <v name="STM">      0.00000000      0.00000000      0.00000000      0.00000000      0.00000000      0.00000000      0.00000000</v>
  </separator>
  <separator name="performance" >
   <i type="int" name="NPAR">     6</i>
   <i type="int" name="NSIM">     4</i>
   <i type="int" name="NBLK">    -1</i>
   <i type="logical" name="LPLANE"> T  </i>
   <i type="logical" name="LSCALAPACK"> T  </i>
   <i type="logical" name="LSCAAWARE"> F  </i>
   <i type="logical" name="LSCALU"> F  </i>
   <i type="logical" name="LASYNC"> F  </i>
   <i type="logical" name="LORBITALREAL"> F  </i>
  </separator>
  <separator name="miscellaneous" >
   <i type="int" name="IDIOT">     3</i>
   <i type="int" name="PHON_NSTRUCT">    -1</i>
   <i type="logical" name="LMUSIC"> F  </i>
   <v name="POMASS">     10.81100000     95.94000000</v>
   <v name="DARWINR">      0.00000000      0.00000000</v>
   <v name="DARWINV">      1.00000000      1.00000000</v>
   <i type="logical" name="LCORR"> T  </i>
  </separator>
  <i type="logical" name="GGA_COMPAT"> T  </i>
  <i type="logical" name="LBERRY"> F  </i>
  <i type="int" name="ICORELEVEL">     0</i>
  <i type="logical" name="LDAU"> F  </i>
  <i type="int" name="I_CONSTRAINED_M">     0</i>
  <separator name="electronic exchange-correlation" >
   <i type="string" name="GGA">--</i>
   <i type="int" name="VOSKOWN">     0</i>
   <i type="logical" name="LHFCALC"> F  </i>
   <i type="string" name="PRECFOCK"></i>
   <i type="logical" name="LSYMGRAD"> F  </i>
   <i type="logical" name="LHFONE"> F  </i>
   <i type="logical" name="LRHFCALC"> F  </i>
   <i type="logical" name="LTHOMAS"> F  </i>
   <i type="logical" name="LMODELHF"> F  </i>
   <i type="logical" name="LFOCKACE"> F  </i>
   <i name="ENCUT4O">     -1.00000000</i>
   <i type="int" name="EXXOEP">     0</i>
   <i type="int" name="FOURORBIT">     0</i>
   <i name="AEXX">      0.00000000</i>
   <i name="HFALPHA">      0.00000000</i>
   <i name="MCALPHA">      0.00000000</i>
   <i name="ALDAX">      1.00000000</i>
   <i name="AGGAX">      1.00000000</i>
   <i name="ALDAC">      1.00000000</i>
   <i name="AGGAC">      1.00000000</i>
   <i type="int" name="NKREDX">     1</i>
   <i type="int" name="NKREDY">     1</i>
   <i type="int" name="NKREDZ">     1</i>
   <i type="logical" name="SHIFTRED"> F  </i>
   <i type="logical" name="ODDONLY"> F  </i>
   <i type="logical" name="EVENONLY"> F  </i>
   <i type="int" name="LMAXFOCK">     0</i>
   <i type="int" name="NMAXFOCKAE">     0</i>
   <i type="logical" name="LFOCKAEDFT"> F  </i>
   <i name="HFSCREEN">      0.00000000</i>
   <i name="HFSCREENC">      0.00000000</i>
   <i type="int" name="NBANDSGWLOW">     0</i>
  </separator>
  <separator name="vdW DFT" >
   <i type="logical" name="LUSE_VDW"> F  </i>
   <i name="Zab_VDW">     -0.84910000</i>
   <i name="PARAM1">      0.12340000</i>
   <i name="PARAM2">      1.00000000</i>
   <i name="PARAM3">      0.00000000</i>
  </separator>
  <separator name="model GW" >
   <i type="int" name="MODEL_GW">     0</i>
   <i name="MODEL_EPS0">      6.18679347</i>
   <i name="MODEL_ALPHA">      1.00000000</i>
  </separator>
  <separator name="linear response parameters" >
   <i type="logical" name="LEPSILON"> F  </i>
   <i type="logical" name="LRPA"> F  </i>
   <i type="logical" name="LNABLA"> F  </i>
   <i type="logical" name="LVEL"> F  </i>
   <i type="int" name="KINTER">     0</i>
   <i name="CSHIFT">      0.10000000</i>
   <i name="OMEGAMAX">     -1.00000000</i>
   <i name="DEG_THRESHOLD">      0.00200000</i>
   <i name="RTIME">     -0.10000000</i>
   <i name="WPLASMAI">      0.00000000</i>
   <v name="DFIELD">      0.00000000      0.00000000      0.00000000</v>
   <v name="WPLASMA">      0.00000000      0.00000000      0.00000000      0.00000000      0.00000000      0.00000000      0.00000000      0.00000000      0.00000000</v>
  </separator>
  <separator name="orbital magnetization" >
   <i type="logical" name="NUCIND"> F  </i>
   <v name="MAGPOS">      0.00000000      0.00000000      0.00000000</v>
   <i type="logical" name="LNICSALL"> T  </i>
   <i type="logical" name="ORBITALMAG"> F  </i>
   <i type="logical" name="LMAGBLOCH"> F  </i>
   <i type="logical" name="LCHIMAG"> F  </i>
   <i type="logical" name="LGAUGE"> T  </i>
   <i type="int" name="MAGATOM">     0</i>
   <v name="MAGDIPOL">      0.00000000      0.00000000      0.00000000</v>
   <v name="AVECCONST">      0.00000000      0.00000000      0.00000000</v>
  </separator>
  <separator name="response functions" >
   <i type="logical" name="LFINITE_TEMPERATURE"> F  </i>
   <i type="logical" name="LADDER"> F  </i>
   <i type="logical" name="LRPAFORCE"> F  </i>
   <i type="logical" name="LFXC"> F  </i>
   <i type="logical" name="LHARTREE"> T  </i>
   <i type="int" name="IBSE">     0</i>
   <v type="int" name="KPOINT">    -1     0     0     0</v>
   <i type="logical" name="LTCTC"> F  </i>
   <i type="logical" name="LTCTE"> F  </i>
   <i type="logical" name="LTETE"> F  </i>
   <i type="logical" name="LTRIPLET"> F  </i>
   <i type="logical" name="LFXCEPS"> F  </i>
   <i type="logical" name="LFXHEG"> F  </i>
   <i type="int" name="NATURALO">     2</i>
   <i type="logical" name="LHOLEGF"> F  </i>
   <i type="logical" name="L2ORDER"> F  </i>
   <i type="logical" name="LDMP1"> F  </i>
   <i type="logical" name="LMP2LT"> F  </i>
   <i type="logical" name="LSMP2LT"> F  </i>
   <i type="logical" name="LGWLF"> F  </i>
   <i name="ENCUTGW">     -2.00000000</i>
   <i name="ENCUTGWSOFT">     -2.00000000</i>
   <i name="ENCUTLF">     -1.00000000</i>
   <i type="logical" name="LESF_SPLINES"> F  </i>
   <i type="int" name="LMAXMP2">    -1</i>
   <i name="SCISSOR">      0.00000000</i>
   <i type="int" name="NOMEGA">     0</i>
   <i type="int" name="NOMEGAR">     0</i>
   <i type="int" name="NBANDSGW">    -1</i>
   <i type="int" name="NBANDSO">    -1</i>
   <i type="int" name="NBANDSV">    -1</i>
   <i type="int" name="NELM">   100</i>
   <i type="int" name="NELMHF">     1</i>
   <i type="int" name="DIM">     3</i>
   <i type="int" name="IESPILON">     4</i>
   <i type="int" name="ANTIRES">     0</i>
   <i name="OMEGAMAX">    -30.00000000</i>
   <i name="OMEGAMIN">    -30.00000000</i>
   <i name="OMEGATL">   -200.00000000</i>
   <i type="int" name="OMEGAGRID">     0</i>
   <i name="CSHIFT">     -0.10000000</i>
   <i type="logical" name="LSELFENERGY"> F  </i>
   <i type="logical" name="LSPECTRAL"> F  </i>
   <i type="logical" name="LSPECTRALGW"> F  </i>
   <i type="logical" name="LSINGLES"> F  </i>
   <i type="logical" name="LFERMIGW"> F  </i>
   <i type="logical" name="ODDONLYGW"> F  </i>
   <i type="logical" name="EVENONLYGW"> F  </i>
   <i type="int" name="NKREDLFX">     1</i>
   <i type="int" name="NKREDLFY">     1</i>
   <i type="int" name="NKREDLFZ">     1</i>
   <i type="int" name="MAXMEM">  2800</i>
   <i type="int" name="TELESCOPE">     0</i>
   <i type="int" name="NTAUPAR">    -1</i>
   <i type="int" name="NOMEGAPAR">    -1</i>
   <i name="DAMP_NEWTON">      0.80000001</i>
   <i name="LAMBDA">      1.00000000</i>
  </separator>
  <separator name="External order field" >
   <i name="OFIELD_KAPPA">      0.00000000</i>
   <v name="OFIELD_K">      0.00000000      0.00000000      0.00000000</v>
   <i name="OFIELD_Q6_NEAR">      0.00000000</i>
   <i name="OFIELD_Q6_FAR">      0.00000000</i>
   <i name="OFIELD_A">      0.00000000</i>
  </separator>
 </parameters>
 <atominfo>
  <atoms>       8 </atoms>
  <types>       2 </types>
  <array name="atoms" >
   <dimension dim="1">ion</dimension>
   <field type="string">element</field>
   <field type="int">atomtype</field>
   <set>
    <rc><c>B </c><c>   1</c></rc>
    <rc><c>B </c><c>   1</c></rc>
    <rc><c>B </c><c>   1</c></rc>
    <rc><c>B </c><c>   1</c></rc>
    <rc><c>Mo</c><c>   2</c></rc>
    <rc><c>Mo</c><c>   2</c></rc>
    <rc><c>Mo</c><c>   2</c></rc>
    <rc><c>Mo</c><c>   2</c></rc>
   </set>
  </array>
  <array name="atomtypes" >
   <dimension dim="1">type</dimension>
   <field type="int">atomspertype</field>
   <field type="string">element</field>
   <field>mass</field>
   <field>valence</field>
   <field type="string">pseudopotential</field>
   <set>
    <rc><c>   4</c><c>B </c><c>     10.81100000</c><c>      3.00000000</c><c>  PAW_PBE B 06Sep2000                   </c></rc>
    <rc><c>   4</c><c>Mo</c><c>     95.94000000</c><c>     14.00000000</c><c>  PAW_PBE Mo_sv 02Feb2006               </c></rc>
   </set>
  </array>
 </atominfo>
 <structure name="initialpos" >
  <crystal>
   <varray name="basis" >
    <v>       3.06664442      -0.00038134      -0.55373681 </v>
    <v>      -0.10025803       3.06500317      -0.55373626 </v>
    <v>      -0.00026793      -0.00027625       8.77640622 </v>
   </varray>
   <i name="volume">     82.49057965 </i>
   <varray name="rec_basis" >
    <v>       0.32609251       0.01066853       0.00001029 </v>
    <v>       0.00004243       0.32626718       0.00001027 </v>
    <v>       0.02057709       0.02125853       0.11394315 </v>
   </varray>
  </crystal>
  <varray name="positions" >
   <v>       0.46953659       0.71955242       0.43932981 </v>
   <v>       0.21955950       0.96954297       0.93934429 </v>
   <v>       0.53045977       0.28044325       0.56066121 </v>
   <v>       0.78044672       0.03046257       0.06066847 </v>
   <v>       0.32170548       0.57176868       0.14366857 </v>
   <v>       0.07176437       0.82170183       0.64366060 </v>
   <v>       0.67831043       0.42824793       0.85636391 </v>
   <v>       0.92821716       0.17828036       0.35630315 </v>
  </varray>
 </structure>
 <calculation>
  <scstep>
   <time name="total">    9.30    9.36</time>
   <energy>
    <i name="alphaZ">    509.65408253 </i>
    <i name="ewald">  -6843.75675332 </i>
    <i name="hartreedc">  -1285.94222237 </i>
    <i name="XCdc">    343.58115105 </i>
    <i name="pawpsdc">   6111.62835843 </i>
    <i name="pawaedc">  -6100.11823605 </i>
    <i name="eentropy">     -0.00044589 </i>
    <i name="bandstr">    232.73420880 </i>
    <i name="atom">   7733.80848608 </i>
    <i name="e_fr_energy">    701.58862927 </i>
    <i name="e_wo_entrp">    701.58907515 </i>
    <i name="e_0_energy">    701.58885221 </i>
   </energy>
  </scstep>
  <scstep>
   <time name="total">    8.97    9.03</time>
   <energy>
    <i name="e_fr_energy">   -134.40189166 </i>
    <i name="e_wo_entrp">   -134.40131413 </i>
    <i name="e_0_energy">   -134.40160290 </i>
   </energy>
  </scstep>
  <scstep>
   <time name="total">    9.99   10.06</time>
   <energy>
    <i name="e_fr_energy">   -169.13539816 </i>
    <i name="e_wo_entrp">   -169.13484301 </i>
    <i name="e_0_energy">   -169.13512058 </i>
   </energy>
  </scstep>
  <scstep>
   <time name="total">    9.74    9.81</time>
   <energy>
    <i name="e_fr_energy">   -169.68129472 </i>
    <i name="e_wo_entrp">   -169.68078509 </i>
    <i name="e_0_energy">   -169.68103991 </i>
   </energy>
  </scstep>
  <scstep>
   <time name="total">   10.64   10.71</time>
   <energy>
    <i name="e_fr_energy">   -169.68852914 </i>
    <i name="e_wo_entrp">   -169.68802900 </i>
    <i name="e_0_energy">   -169.68827907 </i>
   </energy>
  </scstep>
  <scstep>
   <time name="total">   11.57   11.64</time>
   <energy>
    <i name="e_fr_energy">   -118.81438772 </i>
    <i name="e_wo_entrp">   -118.81378349 </i>
    <i name="e_0_energy">   -118.81408560 </i>
   </energy>
  </scstep>
  <scstep>
   <time name="total">   11.63   11.70</time>
   <energy>
    <i name="e_fr_energy">   -133.88400832 </i>
    <i name="e_wo_entrp">   -133.88339625 </i>
    <i name="e_0_energy">   -133.88370229 </i>
   </energy>
  </scstep>
  <scstep>
   <time name="total">   11.56   11.64</time>
   <energy>
    <i name="e_fr_energy">   -136.62252674 </i>
    <i name="e_wo_entrp">   -136.62188871 </i>
    <i name="e_0_energy">   -136.62220772 </i>
   </energy>
  </scstep>
  <scstep>
   <time name="total">   11.58   11.65</time>
   <energy>
    <i name="e_fr_energy">   -137.47823152 </i>
    <i name="e_wo_entrp">   -137.47730815 </i>
    <i name="e_0_energy">   -137.47776984 </i>
   </energy>
  </scstep>
  <scstep>
   <time name="total">   11.61   11.69</time>
   <energy>
    <i name="e_fr_energy">   -137.72762520 </i>
    <i name="e_wo_entrp">   -137.72673880 </i>
    <i name="e_0_energy">   -137.72718200 </i>
   </energy>
  </scstep>
  <scstep>
   <time name="total">   11.56   11.64</time>
   <energy>
    <i name="e_fr_energy">   -137.80194442 </i>
    <i name="e_wo_entrp">   -137.80112876 </i>
    <i name="e_0_energy">   -137.80153659 </i>
   </energy>
  </scstep>
  <scstep>
   <time name="total">   11.56   11.64</time>
   <energy>
    <i name="e_fr_energy">   -137.82423641 </i>
    <i name="e_wo_entrp">   -137.82344923 </i>
    <i name="e_0_energy">   -137.82384282 </i>
   </energy>
  </scstep>
  <scstep>
   <time name="total">   11.59   11.67</time>
   <energy>
    <i name="e_fr_energy">   -137.83050193 </i>
    <i name="e_wo_entrp">   -137.82973160 </i>
    <i name="e_0_energy">   -137.83011677 </i>
   </energy>
  </scstep>
  <scstep>
   <time name="total">   11.65   11.73</time>
   <energy>
    <i name="e_fr_energy">   -137.83344926 </i>
    <i name="e_wo_entrp">   -137.83269794 </i>
    <i name="e_0_energy">   -137.83307360 </i>
   </energy>
  </scstep>
  <scstep>
   <time name="total">   11.57   11.65</time>
   <energy>
    <i name="e_fr_energy">   -137.83600764 </i>
    <i name="e_wo_entrp">   -137.83526173 </i>
    <i name="e_0_energy">   -137.83563468 </i>
   </energy>
  </scstep>
  <scstep>
   <time name="total">   11.63   11.71</time>
   <energy>
    <i name="e_fr_energy">   -137.83677366 </i>
    <i name="e_wo_entrp">   -137.83602922 </i>
    <i name="e_0_energy">   -137.83640144 </i>
   </energy>
  </scstep>
  <scstep>
   <time name="total">   11.46   11.53</time>
   <energy>
    <i name="e_fr_energy">   -137.83706415 </i>
    <i name="e_wo_entrp">   -137.83631993 </i>
    <i name="e_0_energy">   -137.83669204 </i>
   </energy>
  </scstep>
  <scstep>
   <time name="total">   11.66   11.73</time>
   <energy>
    <i name="e_fr_energy">   -137.83724024 </i>
    <i name="e_wo_entrp">   -137.83649647 </i>
    <i name="e_0_energy">   -137.83686835 </i>
   </energy>
  </scstep>
  <scstep>
   <time name="total">   11.62   11.70</time>
   <energy>
    <i name="e_fr_energy">   -137.83729641 </i>
    <i name="e_wo_entrp">   -137.83655282 </i>
    <i name="e_0_energy">   -137.83692461 </i>
   </energy>
  </scstep>
  <scstep>
   <time name="total">   11.62   11.70</time>
   <energy>
    <i name="e_fr_energy">   -137.83732034 </i>
    <i name="e_wo_entrp">   -137.83657665 </i>
    <i name="e_0_energy">   -137.83694849 </i>
   </energy>
  </scstep>
  <scstep>
   <time name="total">   11.56   11.64</time>
   <energy>
    <i name="e_fr_energy">   -137.83733912 </i>
    <i name="e_wo_entrp">   -137.83659535 </i>
    <i name="e_0_energy">   -137.83696724 </i>
   </energy>
  </scstep>
  <scstep>
   <time name="total">   11.54   11.61</time>
   <energy>
    <i name="e_fr_energy">   -137.83734424 </i>
    <i name="e_wo_entrp">   -137.83660044 </i>
    <i name="e_0_energy">   -137.83697234 </i>
   </energy>
  </scstep>
  <scstep>
   <time name="total">   11.58   11.65</time>
   <energy>
    <i name="e_fr_energy">   -137.83734626 </i>
    <i name="e_wo_entrp">   -137.83660243 </i>
    <i name="e_0_energy">   -137.83697434 </i>
   </energy>
  </scstep>
  <scstep>
   <time name="total">   11.55   11.63</time>
   <energy>
    <i name="e_fr_energy">   -137.83734774 </i>
    <i name="e_wo_entrp">   -137.83660385 </i>
    <i name="e_0_energy">   -137.83697580 </i>
   </energy>
  </scstep>
  <scstep>
   <time name="total">   11.59   11.66</time>
   <energy>
    <i name="e_fr_energy">   -137.83734808 </i>
    <i name="e_wo_entrp">   -137.83660406 </i>
    <i name="e_0_energy">   -137.83697607 </i>
   </energy>
  </scstep>
  <scstep>
   <time name="total">   11.51   11.59</time>
   <energy>
    <i name="e_fr_energy">   -137.83734846 </i>
    <i name="e_wo_entrp">   -137.83660440 </i>
    <i name="e_0_energy">   -137.83697643 </i>
   </energy>
  </scstep>
  <scstep>
   <time name="total">   11.52   11.60</time>
   <energy>
    <i name="e_fr_energy">   -137.83734859 </i>
    <i name="e_wo_entrp">   -137.83660449 </i>
    <i name="e_0_energy">   -137.83697654 </i>
   </energy>
  </scstep>
  <scstep>
   <time name="total">   11.62   11.69</time>
   <energy>
    <i name="e_fr_energy">   -137.83734871 </i>
    <i name="e_wo_entrp">   -137.83660460 </i>
    <i name="e_0_energy">   -137.83697665 </i>
   </energy>
  </scstep>
  <scstep>
   <time name="total">   11.52   11.60</time>
   <energy>
    <i name="e_fr_energy">   -137.83734873 </i>
    <i name="e_wo_entrp">   -137.83660460 </i>
    <i name="e_0_energy">   -137.83697666 </i>
   </energy>
  </scstep>
  <scstep>
   <time name="total">   11.48   11.56</time>
   <energy>
    <i name="e_fr_energy">   -137.83734874 </i>
    <i name="e_wo_entrp">   -137.83660461 </i>
    <i name="e_0_energy">   -137.83697668 </i>
   </energy>
  </scstep>
  <scstep>
   <time name="total">   11.59   11.67</time>
   <energy>
    <i name="e_fr_energy">   -137.83734875 </i>
    <i name="e_wo_entrp">   -137.83660461 </i>
    <i name="e_0_energy">   -137.83697668 </i>
   </energy>
  </scstep>
  <scstep>
   <time name="total">   11.16   11.24</time>
   <energy>
    <i name="e_fr_energy">   -137.83734876 </i>
    <i name="e_wo_entrp">   -137.83660462 </i>
    <i name="e_0_energy">   -137.83697669 </i>
   </energy>
  </scstep>
  <scstep>
   <time name="total">   11.58   11.66</time>
   <energy>
    <i name="e_fr_energy">   -137.83734877 </i>
    <i name="e_wo_entrp">   -137.83660462 </i>
    <i name="e_0_energy">   -137.83697669 </i>
   </energy>
  </scstep>
  <scstep>
   <time name="total">   11.63   11.71</time>
   <energy>
    <i name="e_fr_energy">   -137.83734878 </i>
    <i name="e_wo_entrp">   -137.83660463 </i>
    <i name="e_0_energy">   -137.83697670 </i>
   </energy>
  </scstep>
  <scstep>
   <time name="total">   13.34   13.43</time>
   <energy>
    <i name="alphaZ">    509.65408253 </i>
    <i name="ewald">  -6843.75675332 </i>
    <i name="hartreedc">  -1165.96551118 </i>
    <i name="XCdc">    348.90201785 </i>
    <i name="pawpsdc">   8168.88784815 </i>
    <i name="pawaedc">  -8172.32742237 </i>
    <i name="eentropy">     -0.00074415 </i>
    <i name="bandstr">   -717.03935237 </i>
    <i name="atom">   7733.80848608 </i>
    <i name="e_fr_energy">   -137.83734878 </i>
    <i name="e_wo_entrp">   -137.83660463 </i>
    <i name="e_0_energy">   -137.83697670 </i>
   </energy>
  </scstep>
  <structure>
   <crystal>
    <varray name="basis" >
     <v>       3.06664442      -0.00038134      -0.55373681 </v>
     <v>      -0.10025803       3.06500317      -0.55373626 </v>
     <v>      -0.00026793      -0.00027625       8.77640622 </v>
    </varray>
    <i name="volume">     82.49057965 </i>
    <varray name="rec_basis" >
     <v>       0.32609251       0.01066853       0.00001029 </v>
     <v>       0.00004243       0.32626718       0.00001027 </v>
     <v>       0.02057709       0.02125853       0.11394315 </v>
    </varray>
   </crystal>
   <varray name="positions" >
    <v>       0.46953659       0.71955242       0.43932981 </v>
    <v>       0.21955950       0.96954297       0.93934429 </v>
    <v>       0.53045977       0.28044325       0.56066121 </v>
    <v>       0.78044672       0.03046257       0.06066847 </v>
    <v>       0.32170548       0.57176868       0.14366857 </v>
    <v>       0.07176437       0.82170183       0.64366060 </v>
    <v>       0.67831043       0.42824793       0.85636391 </v>
    <v>       0.92821716       0.17828036       0.35630315 </v>
   </varray>
  </structure>
  <varray name="forces" >
   <v>       0.00000000       0.00000000       0.00000000 </v>
   <v>       0.00000000       0.00000000       0.00000000 </v>
   <v>       0.00000000       0.00000000       0.00000000 </v>
   <v>       0.00000000       0.00000000       0.00000000 </v>
   <v>       0.00000000       0.00000000       0.00000000 </v>
   <v>       0.00000000       0.00000000       0.00000000 </v>
   <v>       0.00000000       0.00000000       0.00000000 </v>
   <v>       0.00000000       0.00000000       0.00000000 </v>
  </varray>
  <varray name="stress" >
   <v>       0.00000000       0.00000000       0.00000000 </v>
   <v>       0.00000000       0.00000000       0.00000000 </v>
   <v>       0.00000000       0.00000000       0.00000000 </v>
  </varray>
  <energy>
   <i name="e_fr_energy">   -137.83734878 </i>
   <i name="e_wo_entrp">   -137.83660463 </i>
   <i name="e_0_energy">   -137.83697670 </i>
  </energy>
  <time name="totalsc">  399.29  401.95</time>
  <eigenvalues>
   <array>
    <dimension dim="1">band</dimension>
    <dimension dim="2">kpoint</dimension>
    <dimension dim="3">spin</dimension>
    <field>eigene</field>
    <field>occ</field>
    <set>
     <set comment="spin 1">
      <set comment="kpoint 1">
       <r>  -50.8278    1.0000 </r>
       <r>  -50.7594    1.0000 </r>
       <r>  -50.6745    1.0000 </r>
       <r>  -50.6047    1.0000 </r>
       <r>  -24.6294    1.0000 </r>
       <r>  -24.1951    1.0000 </r>
       <r>  -24.1787    1.0000 </r>
       <r>  -24.1556    1.0000 </r>
       <r>  -24.1546    1.0000 </r>
       <r>  -24.1449    1.0000 </r>
       <r>  -24.1442    1.0000 </r>
       <r>  -23.8405    1.0000 </r>
       <r>  -23.8392    1.0000 </r>
       <r>  -23.7928    1.0000 </r>
       <r>  -23.7916    1.0000 </r>
       <r>  -23.7097    1.0000 </r>
       <r>   -0.9624    1.0000 </r>
       <r>    0.0142    1.0000 </r>
       <r>    3.5882    1.0000 </r>
       <r>    4.0154    1.0000 </r>
       <r>    7.3277    1.0000 </r>
       <r>    7.4143    1.0000 </r>
       <r>    7.4482    1.0000 </r>
       <r>    8.1339    1.0000 </r>
       <r>    8.1350    1.0000 </r>
       <r>    8.3226    1.0000 </r>
       <r>    8.3238    1.0000 </r>
       <r>    9.2532    1.0000 </r>
       <r>    9.4929    1.0000 </r>
       <r>    9.8532    1.0000 </r>
       <r>   11.7749    1.0000 </r>
       <r>   11.7770    1.0000 </r>
       <r>   11.9082    1.0000 </r>
       <r>   12.4955    1.0000 </r>
       <r>   12.8668    0.0000 </r>
       <r>   12.8675    0.0000 </r>
       <r>   13.0567    0.0000 </r>
       <r>   13.2960    0.0000 </r>
       <r>   13.4290    0.0000 </r>
       <r>   14.2322    0.0000 </r>
       <r>   15.2837    0.0000 </r>
       <r>   15.2870    0.0000 </r>
      </set>
      <set comment="kpoint 2">
       <r>  -50.8216    1.0000 </r>
       <r>  -50.7554    1.0000 </r>
       <r>  -50.6740    1.0000 </r>
       <r>  -50.6065    1.0000 </r>
       <r>  -24.6162    1.0000 </r>
       <r>  -24.2921    1.0000 </r>
       <r>  -24.2187    1.0000 </r>
       <r>  -24.1621    1.0000 </r>
       <r>  -24.1497    1.0000 </r>
       <r>  -24.1315    1.0000 </r>
       <r>  -24.0782    1.0000 </r>
       <r>  -23.8501    1.0000 </r>
       <r>  -23.8450    1.0000 </r>
       <r>  -23.8179    1.0000 </r>
       <r>  -23.7935    1.0000 </r>
       <r>  -23.7100    1.0000 </r>
       <r>   -0.8266    1.0000 </r>
       <r>    0.0825    1.0000 </r>
       <r>    3.7589    1.0000 </r>
       <r>    4.1398    1.0000 </r>
       <r>    7.0872    1.0000 </r>
       <r>    7.1354    1.0000 </r>
       <r>    7.5198    1.0000 </r>
       <r>    8.0158    1.0000 </r>
       <r>    8.0554    1.0000 </r>
       <r>    8.2156    1.0000 </r>
       <r>    8.3099    1.0000 </r>
       <r>    9.4046    1.0000 </r>
       <r>    9.8128    1.0000 </r>
       <r>   10.0545    1.0000 </r>
       <r>   11.1933    1.0000 </r>
       <r>   11.7552    1.0000 </r>
       <r>   11.8211    1.0000 </r>
       <r>   12.1373    1.0000 </r>
       <r>   12.7756    0.0000 </r>
       <r>   12.8247    0.0000 </r>
       <r>   12.9236    0.0000 </r>
       <r>   13.3877    0.0000 </r>
       <r>   13.7381    0.0000 </r>
       <r>   14.2640    0.0000 </r>
       <r>   14.9544    0.0000 </r>
       <r>   15.4324    0.0000 </r>
      </set>
      <set comment="kpoint 3">
       <r>  -50.8216    1.0000 </r>
       <r>  -50.7554    1.0000 </r>
       <r>  -50.6740    1.0000 </r>
       <r>  -50.6065    1.0000 </r>
       <r>  -24.6162    1.0000 </r>
       <r>  -24.2921    1.0000 </r>
       <r>  -24.2186    1.0000 </r>
       <r>  -24.1621    1.0000 </r>
       <r>  -24.1498    1.0000 </r>
       <r>  -24.1314    1.0000 </r>
       <r>  -24.0783    1.0000 </r>
       <r>  -23.8501    1.0000 </r>
       <r>  -23.8451    1.0000 </r>
       <r>  -23.8179    1.0000 </r>
       <r>  -23.7935    1.0000 </r>
       <r>  -23.7100    1.0000 </r>
       <r>   -0.8266    1.0000 </r>
       <r>    0.0825    1.0000 </r>
       <r>    3.7589    1.0000 </r>
       <r>    4.1398    1.0000 </r>
       <r>    7.0877    1.0000 </r>
       <r>    7.1350    1.0000 </r>
       <r>    7.5197    1.0000 </r>
       <r>    8.0159    1.0000 </r>
       <r>    8.0545    1.0000 </r>
       <r>    8.2152    1.0000 </r>
       <r>    8.3109    1.0000 </r>
       <r>    9.4046    1.0000 </r>
       <r>    9.8129    1.0000 </r>
       <r>   10.0545    1.0000 </r>
       <r>   11.1929    1.0000 </r>
       <r>   11.7555    1.0000 </r>
       <r>   11.8215    1.0000 </r>
       <r>   12.1376    1.0000 </r>
       <r>   12.7756    0.0000 </r>
       <r>   12.8240    0.0000 </r>
       <r>   12.9236    0.0000 </r>
       <r>   13.3876    0.0000 </r>
       <r>   13.7376    0.0000 </r>
       <r>   14.2644    0.0000 </r>
       <r>   14.9551    0.0000 </r>
       <r>   15.4144    0.0000 </r>
      </set>
      <set comment="kpoint 4">
       <r>  -50.8040    1.0000 </r>
       <r>  -50.7443    1.0000 </r>
       <r>  -50.6731    1.0000 </r>
       <r>  -50.6123    1.0000 </r>
       <r>  -24.5836    1.0000 </r>
       <r>  -24.4172    1.0000 </r>
       <r>  -24.2969    1.0000 </r>
       <r>  -24.2239    1.0000 </r>
       <r>  -24.1292    1.0000 </r>
       <r>  -24.0995    1.0000 </r>
       <r>  -24.0410    1.0000 </r>
       <r>  -23.8958    1.0000 </r>
       <r>  -23.8601    1.0000 </r>
       <r>  -23.8325    1.0000 </r>
       <r>  -23.7989    1.0000 </r>
       <r>  -23.7216    1.0000 </r>
       <r>   -0.4430    1.0000 </r>
       <r>    0.2780    1.0000 </r>
       <r>    4.2232    1.0000 </r>
       <r>    4.4825    1.0000 </r>
       <r>    6.1894    1.0000 </r>
       <r>    6.5568    1.0000 </r>
       <r>    7.7160    1.0000 </r>
       <r>    7.8058    1.0000 </r>
       <r>    8.1363    1.0000 </r>
       <r>    8.2805    1.0000 </r>
       <r>    8.3688    1.0000 </r>
       <r>    9.5953    1.0000 </r>
       <r>    9.9978    1.0000 </r>
       <r>   10.3248    1.0000 </r>
       <r>   10.4392    1.0000 </r>
       <r>   11.4064    1.0000 </r>
       <r>   11.7668    1.0000 </r>
       <r>   11.8952    1.0000 </r>
       <r>   12.1841    1.0000 </r>
       <r>   12.5130    1.0000 </r>
       <r>   12.9363    0.0000 </r>
       <r>   13.4984    0.0000 </r>
       <r>   13.9734    0.0000 </r>
       <r>   14.3646    0.0000 </r>
       <r>   14.6924    0.0000 </r>
       <r>   15.8956    0.0000 </r>
      </set>
      <set comment="kpoint 5">
       <r>  -50.8040    1.0000 </r>
       <r>  -50.7442    1.0000 </r>
       <r>  -50.6731    1.0000 </r>
       <r>  -50.6123    1.0000 </r>
       <r>  -24.5836    1.0000 </r>
       <r>  -24.4173    1.0000 </r>
       <r>  -24.2967    1.0000 </r>
       <r>  -24.2240    1.0000 </r>
       <r>  -24.1293    1.0000 </r>
       <r>  -24.0995    1.0000 </r>
       <r>  -24.0410    1.0000 </r>
       <r>  -23.8957    1.0000 </r>
       <r>  -23.8601    1.0000 </r>
       <r>  -23.8325    1.0000 </r>
       <r>  -23.7989    1.0000 </r>
       <r>  -23.7216    1.0000 </r>
       <r>   -0.4430    1.0000 </r>
       <r>    0.2781    1.0000 </r>
       <r>    4.2231    1.0000 </r>
       <r>    4.4827    1.0000 </r>
       <r>    6.1900    1.0000 </r>
       <r>    6.5562    1.0000 </r>
       <r>    7.7160    1.0000 </r>
       <r>    7.8049    1.0000 </r>
       <r>    8.1361    1.0000 </r>
       <r>    8.2815    1.0000 </r>
       <r>    8.3688    1.0000 </r>
       <r>    9.5954    1.0000 </r>
       <r>    9.9980    1.0000 </r>
       <r>   10.3250    1.0000 </r>
       <r>   10.4393    1.0000 </r>
       <r>   11.4065    1.0000 </r>
       <r>   11.7669    1.0000 </r>
       <r>   11.8954    1.0000 </r>
       <r>   12.1840    1.0000 </r>
       <r>   12.5134    1.0000 </r>
       <r>   12.9355    0.0000 </r>
       <r>   13.4981    0.0000 </r>
       <r>   13.9729    0.0000 </r>
       <r>   14.3649    0.0000 </r>
       <r>   14.6931    0.0000 </r>
       <r>   15.8966    0.0000 </r>
      </set>
      <set comment="kpoint 6">
       <r>  -50.7782    1.0000 </r>
       <r>  -50.7282    1.0000 </r>
       <r>  -50.6733    1.0000 </r>
       <r>  -50.6226    1.0000 </r>
       <r>  -24.5623    1.0000 </r>
       <r>  -24.5264    1.0000 </r>
       <r>  -24.3764    1.0000 </r>
       <r>  -24.3226    1.0000 </r>
       <r>  -24.0945    1.0000 </r>
       <r>  -24.0751    1.0000 </r>
       <r>  -24.0565    1.0000 </r>
       <r>  -23.9353    1.0000 </r>
       <r>  -23.8838    1.0000 </r>
       <r>  -23.8109    1.0000 </r>
       <r>  -23.8103    1.0000 </r>
       <r>  -23.7489    1.0000 </r>
       <r>    0.1064    1.0000 </r>
       <r>    0.5914    1.0000 </r>
       <r>    4.5439    1.0000 </r>
       <r>    4.9965    1.0000 </r>
       <r>    5.4654    1.0000 </r>
       <r>    5.9828    1.0000 </r>
       <r>    7.4444    1.0000 </r>
       <r>    7.9728    1.0000 </r>
       <r>    8.2507    1.0000 </r>
       <r>    8.3044    1.0000 </r>
       <r>    8.5774    1.0000 </r>
       <r>    9.4888    1.0000 </r>
       <r>    9.5971    1.0000 </r>
       <r>    9.9688    1.0000 </r>
       <r>   10.5829    1.0000 </r>
       <r>   10.9263    1.0000 </r>
       <r>   11.2852    1.0000 </r>
       <r>   11.7762    1.0000 </r>
       <r>   12.2529    1.0000 </r>
       <r>   12.6851    0.3722 </r>
       <r>   13.2563    0.0000 </r>
       <r>   13.5935    0.0000 </r>
       <r>   13.6925    0.0000 </r>
       <r>   14.0671    0.0000 </r>
       <r>   14.9920    0.0000 </r>
       <r>   15.4228    0.0000 </r>
      </set>
      <set comment="kpoint 7">
       <r>  -50.7782    1.0000 </r>
       <r>  -50.7281    1.0000 </r>
       <r>  -50.6733    1.0000 </r>
       <r>  -50.6226    1.0000 </r>
       <r>  -24.5622    1.0000 </r>
       <r>  -24.5265    1.0000 </r>
       <r>  -24.3762    1.0000 </r>
       <r>  -24.3227    1.0000 </r>
       <r>  -24.0945    1.0000 </r>
       <r>  -24.0750    1.0000 </r>
       <r>  -24.0564    1.0000 </r>
       <r>  -23.9354    1.0000 </r>
       <r>  -23.8838    1.0000 </r>
       <r>  -23.8110    1.0000 </r>
       <r>  -23.8103    1.0000 </r>
       <r>  -23.7488    1.0000 </r>
       <r>    0.1063    1.0000 </r>
       <r>    0.5916    1.0000 </r>
       <r>    4.5441    1.0000 </r>
       <r>    4.9968    1.0000 </r>
       <r>    5.4653    1.0000 </r>
       <r>    5.9824    1.0000 </r>
       <r>    7.4434    1.0000 </r>
       <r>    7.9728    1.0000 </r>
       <r>    8.2517    1.0000 </r>
       <r>    8.3040    1.0000 </r>
       <r>    8.5777    1.0000 </r>
       <r>    9.4895    1.0000 </r>
       <r>    9.5971    1.0000 </r>
       <r>    9.9693    1.0000 </r>
       <r>   10.5831    1.0000 </r>
       <r>   10.9262    1.0000 </r>
       <r>   11.2849    1.0000 </r>
       <r>   11.7763    1.0000 </r>
       <r>   12.2528    1.0000 </r>
       <r>   12.6858    0.3554 </r>
       <r>   13.2555    0.0000 </r>
       <r>   13.5930    0.0000 </r>
       <r>   13.6921    0.0000 </r>
       <r>   14.0669    0.0000 </r>
       <r>   15.2856    0.0000 </r>
       <r>   15.5056    0.0000 </r>
      </set>
      <set comment="kpoint 8">
       <r>  -50.7493    1.0000 </r>
       <r>  -50.7103    1.0000 </r>
       <r>  -50.6767    1.0000 </r>
       <r>  -50.6370    1.0000 </r>
       <r>  -24.6186    1.0000 </r>
       <r>  -24.5726    1.0000 </r>
       <r>  -24.4407    1.0000 </r>
       <r>  -24.3989    1.0000 </r>
       <r>  -24.1153    1.0000 </r>
       <r>  -24.0504    1.0000 </r>
       <r>  -24.0112    1.0000 </r>
       <r>  -23.9468    1.0000 </r>
       <r>  -23.9158    1.0000 </r>
       <r>  -23.8293    1.0000 </r>
       <r>  -23.8240    1.0000 </r>
       <r>  -23.7528    1.0000 </r>
       <r>    0.5935    1.0000 </r>
       <r>    1.1197    1.0000 </r>
       <r>    3.7711    1.0000 </r>
       <r>    5.1368    1.0000 </r>
       <r>    5.8975    1.0000 </r>
       <r>    6.1287    1.0000 </r>
       <r>    7.1166    1.0000 </r>
       <r>    8.0348    1.0000 </r>
       <r>    8.1856    1.0000 </r>
       <r>    8.2254    1.0000 </r>
       <r>    8.6393    1.0000 </r>
       <r>    8.8525    1.0000 </r>
       <r>    9.3526    1.0000 </r>
       <r>    9.9906    1.0000 </r>
       <r>   10.3362    1.0000 </r>
       <r>   10.6651    1.0000 </r>
       <r>   11.2643    1.0000 </r>
       <r>   11.3339    1.0000 </r>
       <r>   12.5884    1.0000 </r>
       <r>   13.2963    0.0000 </r>
       <r>   13.5222    0.0000 </r>
       <r>   13.6476    0.0000 </r>
       <r>   13.8239    0.0000 </r>
       <r>   14.2904    0.0000 </r>
       <r>   15.1795    0.0000 </r>
       <r>   15.6284    0.0000 </r>
      </set>
      <set comment="kpoint 9">
       <r>  -50.7493    1.0000 </r>
       <r>  -50.7103    1.0000 </r>
       <r>  -50.6767    1.0000 </r>
       <r>  -50.6370    1.0000 </r>
       <r>  -24.6185    1.0000 </r>
       <r>  -24.5726    1.0000 </r>
       <r>  -24.4408    1.0000 </r>
       <r>  -24.3988    1.0000 </r>
       <r>  -24.1152    1.0000 </r>
       <r>  -24.0505    1.0000 </r>
       <r>  -24.0111    1.0000 </r>
       <r>  -23.9468    1.0000 </r>
       <r>  -23.9158    1.0000 </r>
       <r>  -23.8293    1.0000 </r>
       <r>  -23.8241    1.0000 </r>
       <r>  -23.7527    1.0000 </r>
       <r>    0.5931    1.0000 </r>
       <r>    1.1201    1.0000 </r>
       <r>    3.7716    1.0000 </r>
       <r>    5.1365    1.0000 </r>
       <r>    5.8970    1.0000 </r>
       <r>    6.1289    1.0000 </r>
       <r>    7.1154    1.0000 </r>
       <r>    8.0346    1.0000 </r>
       <r>    8.1854    1.0000 </r>
       <r>    8.2265    1.0000 </r>
       <r>    8.6394    1.0000 </r>
       <r>    8.8535    1.0000 </r>
       <r>    9.3525    1.0000 </r>
       <r>    9.9911    1.0000 </r>
       <r>   10.3360    1.0000 </r>
       <r>   10.6656    1.0000 </r>
       <r>   11.2639    1.0000 </r>
       <r>   11.3344    1.0000 </r>
       <r>   12.5882    1.0000 </r>
       <r>   13.2962    0.0000 </r>
       <r>   13.5222    0.0000 </r>
       <r>   13.6470    0.0000 </r>
       <r>   13.8232    0.0000 </r>
       <r>   14.2901    0.0000 </r>
       <r>   15.1822    0.0000 </r>
       <r>   15.6167    0.0000 </r>
      </set>
      <set comment="kpoint 10">
       <r>  -50.7260    1.0000 </r>
       <r>  -50.6946    1.0000 </r>
       <r>  -50.6842    1.0000 </r>
       <r>  -50.6513    1.0000 </r>
       <r>  -24.6501    1.0000 </r>
       <r>  -24.6216    1.0000 </r>
       <r>  -24.4826    1.0000 </r>
       <r>  -24.4345    1.0000 </r>
       <r>  -24.1075    1.0000 </r>
       <r>  -24.0036    1.0000 </r>
       <r>  -23.9774    1.0000 </r>
       <r>  -23.9595    1.0000 </r>
       <r>  -23.9550    1.0000 </r>
       <r>  -23.8575    1.0000 </r>
       <r>  -23.8476    1.0000 </r>
       <r>  -23.7394    1.0000 </r>
       <r>    0.8258    1.0000 </r>
       <r>    1.9074    1.0000 </r>
       <r>    2.8110    1.0000 </r>
       <r>    4.9069    1.0000 </r>
       <r>    6.5787    1.0000 </r>
       <r>    6.9181    1.0000 </r>
       <r>    6.9302    1.0000 </r>
       <r>    7.5814    1.0000 </r>
       <r>    7.6661    1.0000 </r>
       <r>    8.2256    1.0000 </r>
       <r>    8.4964    1.0000 </r>
       <r>    8.8250    1.0000 </r>
       <r>    9.2163    1.0000 </r>
       <r>    9.8109    1.0000 </r>
       <r>    9.9950    1.0000 </r>
       <r>   10.7570    1.0000 </r>
       <r>   11.2338    1.0000 </r>
       <r>   11.4758    1.0000 </r>
       <r>   12.3928    1.0000 </r>
       <r>   13.5109    0.0000 </r>
       <r>   13.8360    0.0000 </r>
       <r>   14.1467    0.0000 </r>
       <r>   14.4240    0.0000 </r>
       <r>   14.6782    0.0000 </r>
       <r>   14.7601    0.0000 </r>
       <r>   14.9904    0.0000 </r>
      </set>
      <set comment="kpoint 11">
       <r>  -50.7261    1.0000 </r>
       <r>  -50.6946    1.0000 </r>
       <r>  -50.6842    1.0000 </r>
       <r>  -50.6513    1.0000 </r>
       <r>  -24.6501    1.0000 </r>
       <r>  -24.6216    1.0000 </r>
       <r>  -24.4828    1.0000 </r>
       <r>  -24.4345    1.0000 </r>
       <r>  -24.1075    1.0000 </r>
       <r>  -24.0037    1.0000 </r>
       <r>  -23.9773    1.0000 </r>
       <r>  -23.9595    1.0000 </r>
       <r>  -23.9549    1.0000 </r>
       <r>  -23.8576    1.0000 </r>
       <r>  -23.8477    1.0000 </r>
       <r>  -23.7394    1.0000 </r>
       <r>    0.8254    1.0000 </r>
       <r>    1.9079    1.0000 </r>
       <r>    2.8115    1.0000 </r>
       <r>    4.9067    1.0000 </r>
       <r>    6.5779    1.0000 </r>
       <r>    6.9183    1.0000 </r>
       <r>    6.9289    1.0000 </r>
       <r>    7.5812    1.0000 </r>
       <r>    7.6663    1.0000 </r>
       <r>    8.2266    1.0000 </r>
       <r>    8.4975    1.0000 </r>
       <r>    8.8248    1.0000 </r>
       <r>    9.2164    1.0000 </r>
       <r>    9.8114    1.0000 </r>
       <r>    9.9947    1.0000 </r>
       <r>   10.7577    1.0000 </r>
       <r>   11.2346    1.0000 </r>
       <r>   11.4751    1.0000 </r>
       <r>   12.3928    1.0000 </r>
       <r>   13.5107    0.0000 </r>
       <r>   13.8348    0.0000 </r>
       <r>   14.1458    0.0000 </r>
       <r>   14.4244    0.0000 </r>
       <r>   14.6806    0.0000 </r>
       <r>   14.7570    0.0000 </r>
       <r>   14.9910    0.0000 </r>
      </set>
      <set comment="kpoint 12">
       <r>  -50.8150    1.0000 </r>
       <r>  -50.7527    1.0000 </r>
       <r>  -50.6722    1.0000 </r>
       <r>  -50.6087    1.0000 </r>
       <r>  -24.6014    1.0000 </r>
       <r>  -24.3333    1.0000 </r>
       <r>  -24.2331    1.0000 </r>
       <r>  -24.1821    1.0000 </r>
       <r>  -24.1621    1.0000 </r>
       <r>  -24.1491    1.0000 </r>
       <r>  -24.0265    1.0000 </r>
       <r>  -23.8817    1.0000 </r>
       <r>  -23.8421    1.0000 </r>
       <r>  -23.8377    1.0000 </r>
       <r>  -23.7925    1.0000 </r>
       <r>  -23.7115    1.0000 </r>
       <r>   -0.6887    1.0000 </r>
       <r>    0.1416    1.0000 </r>
       <r>    3.9333    1.0000 </r>
       <r>    4.2548    1.0000 </r>
       <r>    6.9796    1.0000 </r>
       <r>    7.0364    1.0000 </r>
       <r>    7.5151    1.0000 </r>
       <r>    7.6028    1.0000 </r>
       <r>    8.0569    1.0000 </r>
       <r>    8.2239    1.0000 </r>
       <r>    8.2673    1.0000 </r>
       <r>    9.4938    1.0000 </r>
       <r>   10.1374    1.0000 </r>
       <r>   10.2406    1.0000 </r>
       <r>   10.7336    1.0000 </r>
       <r>   11.2123    1.0000 </r>
       <r>   11.7572    1.0000 </r>
       <r>   12.0849    1.0000 </r>
       <r>   12.3957    1.0000 </r>
       <r>   12.9764    0.0000 </r>
       <r>   13.2988    0.0000 </r>
       <r>   13.4364    0.0000 </r>
       <r>   13.9403    0.0000 </r>
       <r>   14.2125    0.0000 </r>
       <r>   14.6605    0.0000 </r>
       <r>   15.6407    0.0000 </r>
      </set>
      <set comment="kpoint 13">
       <r>  -50.7974    1.0000 </r>
       <r>  -50.7428    1.0000 </r>
       <r>  -50.6700    1.0000 </r>
       <r>  -50.6145    1.0000 </r>
       <r>  -24.5689    1.0000 </r>
       <r>  -24.4236    1.0000 </r>
       <r>  -24.2986    1.0000 </r>
       <r>  -24.2291    1.0000 </r>
       <r>  -24.1717    1.0000 </r>
       <r>  -24.1295    1.0000 </r>
       <r>  -24.0011    1.0000 </r>
       <r>  -23.9383    1.0000 </r>
       <r>  -23.8740    1.0000 </r>
       <r>  -23.8407    1.0000 </r>
       <r>  -23.7895    1.0000 </r>
       <r>  -23.7223    1.0000 </r>
       <r>   -0.3157    1.0000 </r>
       <r>    0.3349    1.0000 </r>
       <r>    4.3914    1.0000 </r>
       <r>    4.5666    1.0000 </r>
       <r>    6.1795    1.0000 </r>
       <r>    6.6310    1.0000 </r>
       <r>    7.3119    1.0000 </r>
       <r>    7.7644    1.0000 </r>
       <r>    7.9886    1.0000 </r>
       <r>    8.2647    1.0000 </r>
       <r>    8.4246    1.0000 </r>
       <r>    9.5458    1.0000 </r>
       <r>    9.9144    1.0000 </r>
       <r>   10.0867    1.0000 </r>
       <r>   10.7764    1.0000 </r>
       <r>   10.8370    1.0000 </r>
       <r>   11.4905    1.0000 </r>
       <r>   11.6546    1.0000 </r>
       <r>   12.1541    1.0000 </r>
       <r>   12.9140    0.0000 </r>
       <r>   13.4215    0.0000 </r>
       <r>   13.6296    0.0000 </r>
       <r>   14.0848    0.0000 </r>
       <r>   14.2785    0.0000 </r>
       <r>   14.7480    0.0000 </r>
       <r>   15.8976    0.0000 </r>
      </set>
      <set comment="kpoint 14">
       <r>  -50.7974    1.0000 </r>
       <r>  -50.7428    1.0000 </r>
       <r>  -50.6700    1.0000 </r>
       <r>  -50.6145    1.0000 </r>
       <r>  -24.5689    1.0000 </r>
       <r>  -24.4236    1.0000 </r>
       <r>  -24.2985    1.0000 </r>
       <r>  -24.2292    1.0000 </r>
       <r>  -24.1717    1.0000 </r>
       <r>  -24.1295    1.0000 </r>
       <r>  -24.0011    1.0000 </r>
       <r>  -23.9383    1.0000 </r>
       <r>  -23.8741    1.0000 </r>
       <r>  -23.8406    1.0000 </r>
       <r>  -23.7895    1.0000 </r>
       <r>  -23.7222    1.0000 </r>
       <r>   -0.3157    1.0000 </r>
       <r>    0.3349    1.0000 </r>
       <r>    4.3912    1.0000 </r>
       <r>    4.5668    1.0000 </r>
       <r>    6.1801    1.0000 </r>
       <r>    6.6305    1.0000 </r>
       <r>    7.3110    1.0000 </r>
       <r>    7.7644    1.0000 </r>
       <r>    7.9892    1.0000 </r>
       <r>    8.2645    1.0000 </r>
       <r>    8.4247    1.0000 </r>
       <r>    9.5459    1.0000 </r>
       <r>    9.9144    1.0000 </r>
       <r>   10.0872    1.0000 </r>
       <r>   10.7764    1.0000 </r>
       <r>   10.8369    1.0000 </r>
       <r>   11.4903    1.0000 </r>
       <r>   11.6546    1.0000 </r>
       <r>   12.1540    1.0000 </r>
       <r>   12.9144    0.0000 </r>
       <r>   13.4212    0.0000 </r>
       <r>   13.6294    0.0000 </r>
       <r>   14.0841    0.0000 </r>
       <r>   14.2786    0.0000 </r>
       <r>   14.7485    0.0000 </r>
       <r>   15.8613    0.0000 </r>
      </set>
      <set comment="kpoint 15">
       <r>  -50.7720    1.0000 </r>
       <r>  -50.7277    1.0000 </r>
       <r>  -50.6692    1.0000 </r>
       <r>  -50.6244    1.0000 </r>
       <r>  -24.5491    1.0000 </r>
       <r>  -24.5210    1.0000 </r>
       <r>  -24.3688    1.0000 </r>
       <r>  -24.3255    1.0000 </r>
       <r>  -24.1447    1.0000 </r>
       <r>  -24.0901    1.0000 </r>
       <r>  -24.0598    1.0000 </r>
       <r>  -23.9613    1.0000 </r>
       <r>  -23.8988    1.0000 </r>
       <r>  -23.8321    1.0000 </r>
       <r>  -23.7946    1.0000 </r>
       <r>  -23.7430    1.0000 </r>
       <r>    0.2082    1.0000 </r>
       <r>    0.6529    1.0000 </r>
       <r>    4.6346    1.0000 </r>
       <r>    5.0380    1.0000 </r>
       <r>    5.4587    1.0000 </r>
       <r>    6.1754    1.0000 </r>
       <r>    7.1264    1.0000 </r>
       <r>    7.7729    1.0000 </r>
       <r>    8.2543    1.0000 </r>
       <r>    8.3247    1.0000 </r>
       <r>    8.6491    1.0000 </r>
       <r>    9.2683    1.0000 </r>
       <r>    9.3746    1.0000 </r>
       <r>    9.7333    1.0000 </r>
       <r>   10.2878    1.0000 </r>
       <r>   10.8768    1.0000 </r>
       <r>   11.3105    1.0000 </r>
       <r>   11.7704    1.0000 </r>
       <r>   12.2772    1.0000 </r>
       <r>   13.0852    0.0000 </r>
       <r>   13.5033    0.0000 </r>
       <r>   13.7656    0.0000 </r>
       <r>   13.7947    0.0000 </r>
       <r>   14.3712    0.0000 </r>
       <r>   15.0390    0.0000 </r>
       <r>   15.7180    0.0000 </r>
      </set>
      <set comment="kpoint 16">
       <r>  -50.7720    1.0000 </r>
       <r>  -50.7277    1.0000 </r>
       <r>  -50.6692    1.0000 </r>
       <r>  -50.6244    1.0000 </r>
       <r>  -24.5490    1.0000 </r>
       <r>  -24.5211    1.0000 </r>
       <r>  -24.3688    1.0000 </r>
       <r>  -24.3256    1.0000 </r>
       <r>  -24.1446    1.0000 </r>
       <r>  -24.0901    1.0000 </r>
       <r>  -24.0598    1.0000 </r>
       <r>  -23.9612    1.0000 </r>
       <r>  -23.8988    1.0000 </r>
       <r>  -23.8321    1.0000 </r>
       <r>  -23.7947    1.0000 </r>
       <r>  -23.7429    1.0000 </r>
       <r>    0.2080    1.0000 </r>
       <r>    0.6531    1.0000 </r>
       <r>    4.6348    1.0000 </r>
       <r>    5.0382    1.0000 </r>
       <r>    5.4587    1.0000 </r>
       <r>    6.1751    1.0000 </r>
       <r>    7.1254    1.0000 </r>
       <r>    7.7733    1.0000 </r>
       <r>    8.2548    1.0000 </r>
       <r>    8.3243    1.0000 </r>
       <r>    8.6494    1.0000 </r>
       <r>    9.2690    1.0000 </r>
       <r>    9.3745    1.0000 </r>
       <r>    9.7336    1.0000 </r>
       <r>   10.2877    1.0000 </r>
       <r>   10.8768    1.0000 </r>
       <r>   11.3104    1.0000 </r>
       <r>   11.7706    1.0000 </r>
       <r>   12.2771    1.0000 </r>
       <r>   13.0856    0.0000 </r>
       <r>   13.5029    0.0000 </r>
       <r>   13.7653    0.0000 </r>
       <r>   13.7940    0.0000 </r>
       <r>   14.3711    0.0000 </r>
       <r>   15.0395    0.0000 </r>
       <r>   15.7183    0.0000 </r>
      </set>
      <set comment="kpoint 17">
       <r>  -50.7441    1.0000 </r>
       <r>  -50.7101    1.0000 </r>
       <r>  -50.6724    1.0000 </r>
       <r>  -50.6378    1.0000 </r>
       <r>  -24.5999    1.0000 </r>
       <r>  -24.5712    1.0000 </r>
       <r>  -24.4338    1.0000 </r>
       <r>  -24.3946    1.0000 </r>
       <r>  -24.1320    1.0000 </r>
       <r>  -24.0862    1.0000 </r>
       <r>  -24.0425    1.0000 </r>
       <r>  -23.9645    1.0000 </r>
       <r>  -23.9287    1.0000 </r>
       <r>  -23.8363    1.0000 </r>
       <r>  -23.8239    1.0000 </r>
       <r>  -23.7472    1.0000 </r>
       <r>    0.6624    1.0000 </r>
       <r>    1.1841    1.0000 </r>
       <r>    3.8067    1.0000 </r>
       <r>    5.1845    1.0000 </r>
       <r>    5.8050    1.0000 </r>
       <r>    6.3118    1.0000 </r>
       <r>    6.9489    1.0000 </r>
       <r>    7.6465    1.0000 </r>
       <r>    8.2060    1.0000 </r>
       <r>    8.4812    1.0000 </r>
       <r>    8.6099    1.0000 </r>
       <r>    8.7796    1.0000 </r>
       <r>    9.1249    1.0000 </r>
       <r>    9.6869    1.0000 </r>
       <r>   10.0420    1.0000 </r>
       <r>   10.5044    1.0000 </r>
       <r>   11.2942    1.0000 </r>
       <r>   11.7036    1.0000 </r>
       <r>   12.9320    0.0000 </r>
       <r>   13.2431    0.0000 </r>
       <r>   13.6691    0.0000 </r>
       <r>   13.9414    0.0000 </r>
       <r>   13.9944    0.0000 </r>
       <r>   14.6152    0.0000 </r>
       <r>   15.0696    0.0000 </r>
       <r>   15.7537    0.0000 </r>
      </set>
      <set comment="kpoint 18">
       <r>  -50.7441    1.0000 </r>
       <r>  -50.7101    1.0000 </r>
       <r>  -50.6724    1.0000 </r>
       <r>  -50.6378    1.0000 </r>
       <r>  -24.5998    1.0000 </r>
       <r>  -24.5712    1.0000 </r>
       <r>  -24.4339    1.0000 </r>
       <r>  -24.3946    1.0000 </r>
       <r>  -24.1319    1.0000 </r>
       <r>  -24.0862    1.0000 </r>
       <r>  -24.0425    1.0000 </r>
       <r>  -23.9645    1.0000 </r>
       <r>  -23.9287    1.0000 </r>
       <r>  -23.8364    1.0000 </r>
       <r>  -23.8240    1.0000 </r>
       <r>  -23.7471    1.0000 </r>
       <r>    0.6620    1.0000 </r>
       <r>    1.1845    1.0000 </r>
       <r>    3.8073    1.0000 </r>
       <r>    5.1843    1.0000 </r>
       <r>    5.8043    1.0000 </r>
       <r>    6.3120    1.0000 </r>
       <r>    6.9478    1.0000 </r>
       <r>    7.6470    1.0000 </r>
       <r>    8.2057    1.0000 </r>
       <r>    8.4816    1.0000 </r>
       <r>    8.6102    1.0000 </r>
[...]
       <r>    9.6015    1.0000 </r>
       <r>    9.6025    1.0000 </r>
       <r>   13.3392    0.0000 </r>
       <r>   13.3397    0.0000 </r>
       <r>   14.0715    0.0000 </r>
       <r>   14.0718    0.0000 </r>
       <r>   14.7240    0.0000 </r>
       <r>   14.7246    0.0000 </r>
       <r>   14.9743    0.0000 </r>
       <r>   14.9748    0.0000 </r>
       <r>   16.9793    0.0000 </r>
       <r>   17.0290    0.0000 </r>
      </set>
      <set comment="kpoint 242">
       <r>  -50.6679    1.0000 </r>
       <r>  -50.6648    1.0000 </r>
       <r>  -50.6581    1.0000 </r>
       <r>  -50.6551    1.0000 </r>
       <r>  -24.5645    1.0000 </r>
       <r>  -24.5529    1.0000 </r>
       <r>  -24.5300    1.0000 </r>
       <r>  -24.5016    1.0000 </r>
       <r>  -24.2949    1.0000 </r>
       <r>  -24.1880    1.0000 </r>
       <r>  -24.0960    1.0000 </r>
       <r>  -24.0914    1.0000 </r>
       <r>  -24.0720    1.0000 </r>
       <r>  -23.9903    1.0000 </r>
       <r>  -23.9127    1.0000 </r>
       <r>  -23.8482    1.0000 </r>
       <r>    2.0853    1.0000 </r>
       <r>    2.2342    1.0000 </r>
       <r>    2.6717    1.0000 </r>
       <r>    2.8214    1.0000 </r>
       <r>    6.2633    1.0000 </r>
       <r>    6.5792    1.0000 </r>
       <r>    6.6128    1.0000 </r>
       <r>    6.9197    1.0000 </r>
       <r>    7.7164    1.0000 </r>
       <r>    7.8616    1.0000 </r>
       <r>    7.8722    1.0000 </r>
       <r>    7.8935    1.0000 </r>
       <r>    9.7392    1.0000 </r>
       <r>    9.8265    1.0000 </r>
       <r>   10.0799    1.0000 </r>
       <r>   10.1941    1.0000 </r>
       <r>   14.0899    0.0000 </r>
       <r>   14.6374    0.0000 </r>
       <r>   14.6783    0.0000 </r>
       <r>   14.6864    0.0000 </r>
       <r>   14.7703    0.0000 </r>
       <r>   14.8292    0.0000 </r>
       <r>   14.8995    0.0000 </r>
       <r>   15.3382    0.0000 </r>
       <r>   17.2114    0.0000 </r>
       <r>   18.6648    0.0000 </r>
      </set>
      <set comment="kpoint 243">
       <r>  -50.6667    1.0000 </r>
       <r>  -50.6665    1.0000 </r>
       <r>  -50.6564    1.0000 </r>
       <r>  -50.6563    1.0000 </r>
       <r>  -24.5422    1.0000 </r>
       <r>  -24.5416    1.0000 </r>
       <r>  -24.5343    1.0000 </r>
       <r>  -24.5338    1.0000 </r>
       <r>  -24.2531    1.0000 </r>
       <r>  -24.2529    1.0000 </r>
       <r>  -24.1023    1.0000 </r>
       <r>  -24.1022    1.0000 </r>
       <r>  -24.0040    1.0000 </r>
       <r>  -24.0039    1.0000 </r>
       <r>  -23.8861    1.0000 </r>
       <r>  -23.8860    1.0000 </r>
       <r>    2.1626    1.0000 </r>
       <r>    2.1634    1.0000 </r>
       <r>    2.7335    1.0000 </r>
       <r>    2.7345    1.0000 </r>
       <r>    6.5998    1.0000 </r>
       <r>    6.6000    1.0000 </r>
       <r>    6.6075    1.0000 </r>
       <r>    6.6079    1.0000 </r>
       <r>    7.7635    1.0000 </r>
       <r>    7.7636    1.0000 </r>
       <r>    7.8732    1.0000 </r>
       <r>    7.8735    1.0000 </r>
       <r>    9.8044    1.0000 </r>
       <r>    9.8051    1.0000 </r>
       <r>   10.1307    1.0000 </r>
       <r>   10.1315    1.0000 </r>
       <r>   14.4586    0.0000 </r>
       <r>   14.4588    0.0000 </r>
       <r>   14.6386    0.0000 </r>
       <r>   14.6388    0.0000 </r>
       <r>   14.8459    0.0000 </r>
       <r>   14.8462    0.0000 </r>
       <r>   14.9940    0.0000 </r>
       <r>   14.9941    0.0000 </r>
       <r>   17.3147    0.0000 </r>
       <r>   17.3519    0.0000 </r>
      </set>
     </set>
    </set>
   </array>
  </eigenvalues>
  <separator name="orbital magnetization" >
   <v name="MAGDIPOLOUT">      0.00000000      0.00000000      0.00000000</v>
  </separator>
  <dos>
   <i name="efermi">     12.68049822 </i>
   <total>
    <array>
     <dimension dim="1">gridpoints</dimension>
     <dimension dim="2">spin</dimension>
     <field>energy</field>
     <field>total</field>
     <field>integrated</field>
     <set>
      <set comment="spin 1">
       <r>   -54.3024     0.0000     0.0000 </r>
       <r>   -54.0476     0.0000     0.0000 </r>
       <r>   -53.7928     0.0000     0.0000 </r>
       <r>   -53.5380     0.0000     0.0000 </r>
       <r>   -53.2832     0.0000     0.0000 </r>
       <r>   -53.0284     0.0000     0.0000 </r>
       <r>   -52.7736     0.0000     0.0000 </r>
       <r>   -52.5188     0.0000     0.0000 </r>
       <r>   -52.2640     0.0000     0.0000 </r>
       <r>   -52.0092     0.0000     0.0000 </r>
       <r>   -51.7544     0.0000     0.0000 </r>
       <r>   -51.4996     0.0000     0.0000 </r>
       <r>   -51.2447     0.0000     0.0000 </r>
       <r>   -50.9899     0.0000     0.0000 </r>
       <r>   -50.7351     5.9835     1.5246 </r>
       <r>   -50.4803     4.3624     8.0000 </r>
       <r>   -50.2255     0.0000     8.0000 </r>
       <r>   -49.9707     0.0000     8.0000 </r>
       <r>   -49.7159     0.0000     8.0000 </r>
       <r>   -49.4611     0.0000     8.0000 </r>
       <r>   -49.2063     0.0000     8.0000 </r>
       <r>   -48.9515     0.0000     8.0000 </r>
       <r>   -48.6967     0.0000     8.0000 </r>
       <r>   -48.4419     0.0000     8.0000 </r>
       <r>   -48.1871     0.0000     8.0000 </r>
       <r>   -47.9323     0.0000     8.0000 </r>
       <r>   -47.6775     0.0000     8.0000 </r>
       <r>   -47.4227     0.0000     8.0000 </r>
       <r>   -47.1678     0.0000     8.0000 </r>
       <r>   -46.9130     0.0000     8.0000 </r>
       <r>   -46.6582     0.0000     8.0000 </r>
       <r>   -46.4034     0.0000     8.0000 </r>
       <r>   -46.1486     0.0000     8.0000 </r>
       <r>   -45.8938     0.0000     8.0000 </r>
       <r>   -45.6390     0.0000     8.0000 </r>
       <r>   -45.3842     0.0000     8.0000 </r>
       <r>   -45.1294     0.0000     8.0000 </r>
       <r>   -44.8746     0.0000     8.0000 </r>
       <r>   -44.6198     0.0000     8.0000 </r>
       <r>   -44.3650     0.0000     8.0000 </r>
       <r>   -44.1102     0.0000     8.0000 </r>
       <r>   -43.8554     0.0000     8.0000 </r>
       <r>   -43.6006     0.0000     8.0000 </r>
       <r>   -43.3458     0.0000     8.0000 </r>
       <r>   -43.0909     0.0000     8.0000 </r>
       <r>   -42.8361     0.0000     8.0000 </r>
       <r>   -42.5813     0.0000     8.0000 </r>
       <r>   -42.3265     0.0000     8.0000 </r>
       <r>   -42.0717     0.0000     8.0000 </r>
       <r>   -41.8169     0.0000     8.0000 </r>
       <r>   -41.5621     0.0000     8.0000 </r>
       <r>   -41.3073     0.0000     8.0000 </r>
       <r>   -41.0525     0.0000     8.0000 </r>
       <r>   -40.7977     0.0000     8.0000 </r>
       <r>   -40.5429     0.0000     8.0000 </r>
       <r>   -40.2881     0.0000     8.0000 </r>
       <r>   -40.0333     0.0000     8.0000 </r>
       <r>   -39.7785     0.0000     8.0000 </r>
       <r>   -39.5237     0.0000     8.0000 </r>
       <r>   -39.2689     0.0000     8.0000 </r>
       <r>   -39.0140     0.0000     8.0000 </r>
       <r>   -38.7592     0.0000     8.0000 </r>
       <r>   -38.5044     0.0000     8.0000 </r>
       <r>   -38.2496     0.0000     8.0000 </r>
       <r>   -37.9948     0.0000     8.0000 </r>
       <r>   -37.7400     0.0000     8.0000 </r>
       <r>   -37.4852     0.0000     8.0000 </r>
       <r>   -37.2304     0.0000     8.0000 </r>
       <r>   -36.9756     0.0000     8.0000 </r>
       <r>   -36.7208     0.0000     8.0000 </r>
       <r>   -36.4660     0.0000     8.0000 </r>
       <r>   -36.2112     0.0000     8.0000 </r>
       <r>   -35.9564     0.0000     8.0000 </r>
       <r>   -35.7016     0.0000     8.0000 </r>
       <r>   -35.4468     0.0000     8.0000 </r>
       <r>   -35.1920     0.0000     8.0000 </r>
       <r>   -34.9371     0.0000     8.0000 </r>
       <r>   -34.6823     0.0000     8.0000 </r>
       <r>   -34.4275     0.0000     8.0000 </r>
       <r>   -34.1727     0.0000     8.0000 </r>
       <r>   -33.9179     0.0000     8.0000 </r>
       <r>   -33.6631     0.0000     8.0000 </r>
       <r>   -33.4083     0.0000     8.0000 </r>
       <r>   -33.1535     0.0000     8.0000 </r>
       <r>   -32.8987     0.0000     8.0000 </r>
       <r>   -32.6439     0.0000     8.0000 </r>
       <r>   -32.3891     0.0000     8.0000 </r>
       <r>   -32.1343     0.0000     8.0000 </r>
       <r>   -31.8795     0.0000     8.0000 </r>
       <r>   -31.6247     0.0000     8.0000 </r>
       <r>   -31.3699     0.0000     8.0000 </r>
       <r>   -31.1151     0.0000     8.0000 </r>
       <r>   -30.8602     0.0000     8.0000 </r>
       <r>   -30.6054     0.0000     8.0000 </r>
       <r>   -30.3506     0.0000     8.0000 </r>
       <r>   -30.0958     0.0000     8.0000 </r>
       <r>   -29.8410     0.0000     8.0000 </r>
       <r>   -29.5862     0.0000     8.0000 </r>
       <r>   -29.3314     0.0000     8.0000 </r>
       <r>   -29.0766     0.0000     8.0000 </r>
       <r>   -28.8218     0.0000     8.0000 </r>
       <r>   -28.5670     0.0000     8.0000 </r>
       <r>   -28.3122     0.0000     8.0000 </r>
       <r>   -28.0574     0.0000     8.0000 </r>
       <r>   -27.8026     0.0000     8.0000 </r>
       <r>   -27.5478     0.0000     8.0000 </r>
       <r>   -27.2930     0.0000     8.0000 </r>
       <r>   -27.0382     0.0000     8.0000 </r>
       <r>   -26.7833     0.0000     8.0000 </r>
       <r>   -26.5285     0.0000     8.0000 </r>
       <r>   -26.2737     0.0000     8.0000 </r>
       <r>   -26.0189     0.0000     8.0000 </r>
       <r>   -25.7641     0.0000     8.0000 </r>
       <r>   -25.5093     0.0000     8.0000 </r>
       <r>   -25.2545     0.0000     8.0000 </r>
       <r>   -24.9997     0.0000     8.0000 </r>
       <r>   -24.7449     0.0000     8.0000 </r>
       <r>   -24.4901    14.9649    11.8875 </r>
       <r>   -24.2353     9.6030    16.5585 </r>
       <r>   -23.9805    19.5033    23.5109 </r>
       <r>   -23.7257    20.7894    31.6981 </r>
       <r>   -23.4709     0.0000    32.0000 </r>
       <r>   -23.2161     0.0000    32.0000 </r>
       <r>   -22.9613     0.0000    32.0000 </r>
       <r>   -22.7064     0.0000    32.0000 </r>
       <r>   -22.4516     0.0000    32.0000 </r>
       <r>   -22.1968     0.0000    32.0000 </r>
       <r>   -21.9420     0.0000    32.0000 </r>
       <r>   -21.6872     0.0000    32.0000 </r>
       <r>   -21.4324     0.0000    32.0000 </r>
       <r>   -21.1776     0.0000    32.0000 </r>
       <r>   -20.9228     0.0000    32.0000 </r>
       <r>   -20.6680     0.0000    32.0000 </r>
       <r>   -20.4132     0.0000    32.0000 </r>
       <r>   -20.1584     0.0000    32.0000 </r>
       <r>   -19.9036     0.0000    32.0000 </r>
       <r>   -19.6488     0.0000    32.0000 </r>
       <r>   -19.3940     0.0000    32.0000 </r>
       <r>   -19.1392     0.0000    32.0000 </r>
       <r>   -18.8844     0.0000    32.0000 </r>
       <r>   -18.6296     0.0000    32.0000 </r>
       <r>   -18.3747     0.0000    32.0000 </r>
       <r>   -18.1199     0.0000    32.0000 </r>
       <r>   -17.8651     0.0000    32.0000 </r>
       <r>   -17.6103     0.0000    32.0000 </r>
       <r>   -17.3555     0.0000    32.0000 </r>
       <r>   -17.1007     0.0000    32.0000 </r>
       <r>   -16.8459     0.0000    32.0000 </r>
       <r>   -16.5911     0.0000    32.0000 </r>
       <r>   -16.3363     0.0000    32.0000 </r>
       <r>   -16.0815     0.0000    32.0000 </r>
       <r>   -15.8267     0.0000    32.0000 </r>
       <r>   -15.5719     0.0000    32.0000 </r>
       <r>   -15.3171     0.0000    32.0000 </r>
       <r>   -15.0623     0.0000    32.0000 </r>
       <r>   -14.8075     0.0000    32.0000 </r>
       <r>   -14.5527     0.0000    32.0000 </r>
       <r>   -14.2978     0.0000    32.0000 </r>
       <r>   -14.0430     0.0000    32.0000 </r>
       <r>   -13.7882     0.0000    32.0000 </r>
       <r>   -13.5334     0.0000    32.0000 </r>
       <r>   -13.2786     0.0000    32.0000 </r>
       <r>   -13.0238     0.0000    32.0000 </r>
       <r>   -12.7690     0.0000    32.0000 </r>
       <r>   -12.5142     0.0000    32.0000 </r>
       <r>   -12.2594     0.0000    32.0000 </r>
       <r>   -12.0046     0.0000    32.0000 </r>
       <r>   -11.7498     0.0000    32.0000 </r>
       <r>   -11.4950     0.0000    32.0000 </r>
       <r>   -11.2402     0.0000    32.0000 </r>
       <r>   -10.9854     0.0000    32.0000 </r>
       <r>   -10.7306     0.0000    32.0000 </r>
       <r>   -10.4758     0.0000    32.0000 </r>
       <r>   -10.2209     0.0000    32.0000 </r>
       <r>    -9.9661     0.0000    32.0000 </r>
       <r>    -9.7113     0.0000    32.0000 </r>
       <r>    -9.4565     0.0000    32.0000 </r>
       <r>    -9.2017     0.0000    32.0000 </r>
       <r>    -8.9469     0.0000    32.0000 </r>
       <r>    -8.6921     0.0000    32.0000 </r>
       <r>    -8.4373     0.0000    32.0000 </r>
       <r>    -8.1825     0.0000    32.0000 </r>
       <r>    -7.9277     0.0000    32.0000 </r>
       <r>    -7.6729     0.0000    32.0000 </r>
       <r>    -7.4181     0.0000    32.0000 </r>
       <r>    -7.1633     0.0000    32.0000 </r>
       <r>    -6.9085     0.0000    32.0000 </r>
       <r>    -6.6537     0.0000    32.0000 </r>
       <r>    -6.3989     0.0000    32.0000 </r>
       <r>    -6.1440     0.0000    32.0000 </r>
       <r>    -5.8892     0.0000    32.0000 </r>
       <r>    -5.6344     0.0000    32.0000 </r>
       <r>    -5.3796     0.0000    32.0000 </r>
       <r>    -5.1248     0.0000    32.0000 </r>
       <r>    -4.8700     0.0000    32.0000 </r>
       <r>    -4.6152     0.0000    32.0000 </r>
       <r>    -4.3604     0.0000    32.0000 </r>
       <r>    -4.1056     0.0000    32.0000 </r>
       <r>    -3.8508     0.0000    32.0000 </r>
       <r>    -3.5960     0.0000    32.0000 </r>
       <r>    -3.3412     0.0000    32.0000 </r>
       <r>    -3.0864     0.0000    32.0000 </r>
       <r>    -2.8316     0.0000    32.0000 </r>
       <r>    -2.5768     0.0000    32.0000 </r>
       <r>    -2.3220     0.0000    32.0000 </r>
       <r>    -2.0671     0.0000    32.0000 </r>
       <r>    -1.8123     0.0000    32.0000 </r>
       <r>    -1.5575     0.0000    32.0000 </r>
       <r>    -1.3027     0.0000    32.0000 </r>
       <r>    -1.0479     0.0000    32.0000 </r>
       <r>    -0.7931     0.0969    32.0288 </r>
       <r>    -0.5383     0.2040    32.1057 </r>
       <r>    -0.2835     0.5483    32.2761 </r>
       <r>    -0.0287     0.3757    32.4304 </r>
       <r>     0.2261     0.9840    32.7797 </r>
       <r>     0.4809     0.6203    33.0754 </r>
       <r>     0.7357     1.4586    33.5783 </r>
       <r>     0.9905     1.4935    34.0913 </r>
       <r>     1.2453     1.4919    34.6116 </r>
       <r>     1.5001     0.4785    34.9153 </r>
       <r>     1.7549     0.6910    35.2422 </r>
       <r>     2.0098     0.7787    35.4711 </r>
       <r>     2.2646     1.4584    35.9997 </r>
       <r>     2.5194     0.0000    36.0000 </r>
       <r>     2.7742     0.3735    36.0952 </r>
       <r>     3.0290     1.0379    36.7273 </r>
       <r>     3.2838     0.0000    36.7273 </r>
       <r>     3.5386     0.7727    36.9242 </r>
       <r>     3.7934     1.1481    37.2471 </r>
       <r>     4.0482     0.3529    37.6147 </r>
       <r>     4.3030     0.5500    37.8343 </r>
       <r>     4.5578     1.6167    38.4615 </r>
       <r>     4.8126     1.3375    38.9854 </r>
       <r>     5.0674     1.1671    39.4214 </r>
       <r>     5.3222     1.8456    40.0901 </r>
       <r>     5.5770     0.9029    40.4780 </r>
       <r>     5.8318     1.2616    40.8504 </r>
       <r>     6.0867     1.4469    41.3274 </r>
       <r>     6.3415     1.5657    42.0766 </r>
       <r>     6.5963     2.4371    42.8937 </r>
       <r>     6.8511     2.2296    43.8491 </r>
       <r>     7.1059     4.2168    45.3307 </r>
       <r>     7.3607     2.2705    46.3554 </r>
       <r>     7.6155     1.4264    47.1940 </r>
       <r>     7.8703     3.8790    48.6289 </r>
       <r>     8.1251     4.3454    50.3180 </r>
       <r>     8.3799     5.6652    52.3815 </r>
       <r>     8.6347     5.6474    54.5588 </r>
       <r>     8.8895     2.4653    55.5662 </r>
       <r>     9.1443     3.1266    56.6768 </r>
       <r>     9.3991     4.1933    57.9404 </r>
       <r>     9.6539     3.7969    59.4840 </r>
       <r>     9.9087     3.2424    60.8221 </r>
       <r>    10.1635     3.1906    62.1188 </r>
       <r>    10.4184     1.0646    62.6514 </r>
       <r>    10.6732     1.1893    63.1212 </r>
       <r>    10.9280     1.2802    63.5907 </r>
       <r>    11.1828     0.5965    64.0115 </r>
       <r>    11.4376     2.1921    64.7238 </r>
       <r>    11.6924     1.8503    65.3806 </r>
       <r>    11.9472     1.3990    66.1416 </r>
       <r>    12.2020     1.1115    66.7006 </r>
       <r>    12.4568     1.5168    67.3989 </r>
       <r>    12.7116     1.4799    68.0961 </r>
       <r>    12.9664     1.7776    68.7339 </r>
       <r>    13.2212     2.1300    69.4808 </r>
       <r>    13.4760     3.0127    70.6685 </r>
       <r>    13.7308     3.3481    72.1300 </r>
       <r>    13.9856     2.5463    73.3967 </r>
       <r>    14.2404     3.3544    74.7514 </r>
       <r>    14.4953     4.3559    76.5810 </r>
       <r>    14.7501     5.3357    78.3348 </r>
       <r>    15.0049     4.5389    80.0408 </r>
       <r>    15.2597     2.1373    81.0487 </r>
       <r>    15.5145     1.5627    81.7205 </r>
       <r>    15.7693     0.9824    82.2007 </r>
       <r>    16.0241     0.9053    82.5447 </r>
       <r>    16.2789     0.6336    82.8805 </r>
       <r>    16.5337     0.5918    83.1756 </r>
       <r>    16.7885     0.3501    83.3867 </r>
       <r>    17.0433     1.0447    83.6959 </r>
       <r>    17.2981     0.3897    83.8348 </r>
       <r>    17.5529     0.1510    83.9145 </r>
       <r>    17.8077     0.0573    83.9650 </r>
       <r>    18.0625     0.0649    83.9835 </r>
       <r>    18.3173     0.0324    83.9917 </r>
       <r>    18.5722     0.0000    83.9917 </r>
       <r>    18.8270     0.0000    84.0000 </r>
       <r>    19.0818     0.0000    84.0000 </r>
       <r>    19.3366     0.0000    84.0000 </r>
       <r>    19.5914     0.0000    84.0000 </r>
       <r>    19.8462     0.0000    84.0000 </r>
       <r>    20.1010     0.0000    84.0000 </r>
       <r>    20.3558     0.0000    84.0000 </r>
       <r>    20.6106     0.0000    84.0000 </r>
       <r>    20.8654     0.0000    84.0000 </r>
       <r>    21.1202     0.0000    84.0000 </r>
       <r>    21.3750     0.0000    84.0000 </r>
       <r>    21.6298     0.0000    84.0000 </r>
       <r>    21.8846     0.0000    84.0000 </r>
       <r>    22.1394     0.0000    84.0000 </r>
      </set>
     </set>
    </array>
   </total>
  </dos>
 </calculation>
 <structure name="finalpos" >
  <crystal>
   <varray name="basis" >
    <v>       3.06664442      -0.00038134      -0.55373681 </v>
    <v>      -0.10025803       3.06500317      -0.55373626 </v>
    <v>      -0.00026793      -0.00027625       8.77640622 </v>
   </varray>
   <i name="volume">     82.49057965 </i>
   <varray name="rec_basis" >
    <v>       0.32609251       0.01066853       0.00001029 </v>
    <v>       0.00004243       0.32626718       0.00001027 </v>
    <v>       0.02057709       0.02125853       0.11394315 </v>
   </varray>
  </crystal>
  <varray name="positions" >
   <v>       0.46953659       0.71955242       0.43932981 </v>
   <v>       0.21955950       0.96954297       0.93934429 </v>
   <v>       0.53045977       0.28044325       0.56066121 </v>
   <v>       0.78044672       0.03046257       0.06066847 </v>
   <v>       0.32170548       0.57176868       0.14366857 </v>
   <v>       0.07176437       0.82170183       0.64366060 </v>
   <v>       0.67831043       0.42824793       0.85636391 </v>
   <v>       0.92821716       0.17828036       0.35630315 </v>
  </varray>
 </structure>
</modeling>
