<?xml version="1.0" encoding="ISO-8859-1"?>
<modeling>
 <generator>
  <i name="program" type="string">vasp </i>
  <i name="version" type="string">6.2.0  </i>
  <i name="subversion" type="string">18Jan21 (build Jan 05 2022 15:41:44) complex                          parallel </i>
  <i name="platform" type="string">LinuxIFC </i>
  <i name="date" type="string">2025 05 07 </i>
  <i name="time" type="string">20:17:49 </i>
 </generator>
 <incar>
  <i type="string" name="SYSTEM">routine with relax: pwdword</i>
  <i type="string" name="PREC">Acc</i>
  <i type="int" name="IALGO">    38</i>
  <i type="string" name="ALGO">A</i>
  <i type="logical" name="ADDGRID"> T  </i>
  <i type="int" name="ICHARG">     2</i>
  <i type="int" name="NELM">   100</i>
  <i type="int" name="NELMIN">     6</i>
  <i name="EDIFF">      0.00000000</i>
  <i type="int" name="NSW">     0</i>
  <i type="int" name="ISIF">    -1</i>
  <i name="ENCUT">    600.00000000</i>
  <i type="logical" name="LREAL"> F  </i>
  <i type="int" name="ISMEAR">     0</i>
  <i name="SIGMA">      0.02000000</i>
  <i type="logical" name="LASPH"> T  </i>
  <i type="string" name="METAGGA">R2SCAN</i>
  <i type="logical" name="LMIXTAU"> F  </i>
 </incar>
 <primitive_cell>
  <structure name="primitive_cell" >
   <crystal>
    <varray name="basis" >
     <v>       5.61481323       0.00000000      -2.86002622 </v>
     <v>      -2.10905571       5.20365368      -2.86002622 </v>
     <v>       0.00000000       0.00000000       6.30126000 </v>
    </varray>
    <i name="volume">    184.10733839 </i>
    <varray name="rec_basis" >
     <v>       0.17810031       0.07218457       0.00000000 </v>
     <v>       0.00000000       0.19217267       0.00000000 </v>
     <v>       0.08083646       0.11998689       0.15869842 </v>
    </varray>
   </crystal>
   <varray name="positions" >
    <v>       0.25000000       0.25000000       0.00000000 </v>
    <v>       0.75000000       0.75000000       0.00000000 </v>
    <v>       0.50000000       0.50000000       0.50000000 </v>
    <v>       0.87971000       0.37971000       0.25942000 </v>
    <v>       0.12029000       0.62029000       0.74058000 </v>
    <v>       0.50000000       0.00000000       1.00000000 </v>
    <v>       0.37971000       0.12029000       0.50000000 </v>
    <v>       0.62029000       0.87971000       0.50000000 </v>
    <v>       0.00000000       0.00000000       0.50000000 </v>
    <v>       0.00000000       0.50000000       0.00000000 </v>
    <v>       0.50000000       0.50000000       0.00000000 </v>
    <v>       0.00000000       0.00000000       0.00000000 </v>
   </varray>
  </structure>
  <varray name="primitive_index" >
   <v type="int" >        1 </v>
   <v type="int" >        2 </v>
   <v type="int" >        3 </v>
   <v type="int" >        4 </v>
   <v type="int" >        5 </v>
   <v type="int" >        6 </v>
   <v type="int" >        7 </v>
   <v type="int" >        8 </v>
   <v type="int" >        9 </v>
   <v type="int" >       10 </v>
   <v type="int" >       11 </v>
   <v type="int" >       12 </v>
  </varray>
 </primitive_cell>
 <kpoints>
  <generation param="Gamma">
   <v type="int" name="divisions">       7        7        8 </v>
   <v name="usershift">      0.00000000       0.00000000       0.00000000 </v>
   <v name="genvec1">      0.14285714      -0.00000000       0.00000000 </v>
   <v name="genvec2">      0.00000000       0.14285714       0.00000000 </v>
   <v name="genvec3">     -0.00000000       0.00000000       0.12500000 </v>
   <v name="shift">      0.00000000       0.00000000       0.00000000 </v>
  </generation>
  <varray name="kpointlist" >
   <v>       0.00000000       0.00000000       0.00000000 </v>
   <v>       0.14285714       0.00000000       0.00000000 </v>
   <v>       0.28571429       0.00000000       0.00000000 </v>
   <v>       0.42857143       0.00000000       0.00000000 </v>
   <v>       0.14285714       0.14285714       0.00000000 </v>
   <v>       0.28571429       0.14285714       0.00000000 </v>
   <v>       0.42857143       0.14285714       0.00000000 </v>
   <v>      -0.42857143       0.14285714       0.00000000 </v>
   <v>      -0.28571429       0.14285714       0.00000000 </v>
   <v>      -0.14285714       0.14285714       0.00000000 </v>
   <v>       0.28571429       0.28571429       0.00000000 </v>
   <v>       0.42857143       0.28571429       0.00000000 </v>
   <v>      -0.42857143       0.28571429       0.00000000 </v>
   <v>      -0.28571429       0.28571429       0.00000000 </v>
   <v>       0.42857143       0.42857143       0.00000000 </v>
   <v>      -0.42857143       0.42857143       0.00000000 </v>
   <v>      -0.00000000      -0.00000000       0.12500000 </v>
   <v>       0.14285714       0.00000000       0.12500000 </v>
   <v>       0.28571429       0.00000000       0.12500000 </v>
   <v>       0.42857143       0.00000000       0.12500000 </v>
   <v>      -0.42857143       0.00000000       0.12500000 </v>
   <v>      -0.28571429       0.00000000       0.12500000 </v>
   <v>      -0.14285714       0.00000000       0.12500000 </v>
   <v>       0.14285714       0.14285714       0.12500000 </v>
   <v>       0.28571429       0.14285714       0.12500000 </v>
   <v>       0.42857143       0.14285714       0.12500000 </v>
   <v>      -0.42857143       0.14285714       0.12500000 </v>
   <v>      -0.28571429       0.14285714       0.12500000 </v>
   <v>      -0.14285714       0.14285714       0.12500000 </v>
   <v>       0.28571429       0.28571429       0.12500000 </v>
   <v>       0.42857143       0.28571429       0.12500000 </v>
   <v>      -0.42857143       0.28571429       0.12500000 </v>
   <v>      -0.28571429       0.28571429       0.12500000 </v>
   <v>      -0.14285714       0.28571429       0.12500000 </v>
   <v>       0.42857143       0.42857143       0.12500000 </v>
   <v>      -0.42857143       0.42857143       0.12500000 </v>
   <v>      -0.28571429       0.42857143       0.12500000 </v>
   <v>      -0.14285714       0.42857143       0.12500000 </v>
   <v>      -0.42857143      -0.42857143       0.12500000 </v>
   <v>      -0.28571429      -0.42857143       0.12500000 </v>
   <v>      -0.14285714      -0.42857143       0.12500000 </v>
   <v>      -0.28571429      -0.28571429       0.12500000 </v>
   <v>      -0.14285714      -0.28571429       0.12500000 </v>
   <v>      -0.14285714      -0.14285714       0.12500000 </v>
   <v>      -0.00000000      -0.00000000       0.25000000 </v>
   <v>       0.14285714       0.00000000       0.25000000 </v>
   <v>       0.28571429       0.00000000       0.25000000 </v>
   <v>       0.42857143       0.00000000       0.25000000 </v>
   <v>      -0.42857143       0.00000000       0.25000000 </v>
   <v>      -0.28571429       0.00000000       0.25000000 </v>
   <v>      -0.14285714       0.00000000       0.25000000 </v>
   <v>       0.14285714       0.14285714       0.25000000 </v>
   <v>       0.28571429       0.14285714       0.25000000 </v>
   <v>       0.42857143       0.14285714       0.25000000 </v>
   <v>      -0.42857143       0.14285714       0.25000000 </v>
   <v>      -0.28571429       0.14285714       0.25000000 </v>
   <v>      -0.14285714       0.14285714       0.25000000 </v>
   <v>       0.28571429       0.28571429       0.25000000 </v>
   <v>       0.42857143       0.28571429       0.25000000 </v>
   <v>      -0.42857143       0.28571429       0.25000000 </v>
   <v>      -0.28571429       0.28571429       0.25000000 </v>
   <v>      -0.14285714       0.28571429       0.25000000 </v>
   <v>       0.42857143       0.42857143       0.25000000 </v>
   <v>      -0.42857143       0.42857143       0.25000000 </v>
   <v>      -0.28571429       0.42857143       0.25000000 </v>
   <v>      -0.14285714       0.42857143       0.25000000 </v>
   <v>      -0.42857143      -0.42857143       0.25000000 </v>
   <v>      -0.28571429      -0.42857143       0.25000000 </v>
   <v>      -0.14285714      -0.42857143       0.25000000 </v>
   <v>      -0.28571429      -0.28571429       0.25000000 </v>
   <v>      -0.14285714      -0.28571429       0.25000000 </v>
   <v>      -0.14285714      -0.14285714       0.25000000 </v>
   <v>      -0.00000000       0.00000000       0.37500000 </v>
   <v>       0.14285714       0.00000000       0.37500000 </v>
   <v>       0.28571429       0.00000000       0.37500000 </v>
   <v>       0.42857143       0.00000000       0.37500000 </v>
   <v>      -0.42857143       0.00000000       0.37500000 </v>
   <v>      -0.28571429       0.00000000       0.37500000 </v>
   <v>      -0.14285714       0.00000000       0.37500000 </v>
   <v>       0.14285714       0.14285714       0.37500000 </v>
   <v>       0.28571429       0.14285714       0.37500000 </v>
   <v>       0.42857143       0.14285714       0.37500000 </v>
   <v>      -0.42857143       0.14285714       0.37500000 </v>
   <v>      -0.28571429       0.14285714       0.37500000 </v>
   <v>      -0.14285714       0.14285714       0.37500000 </v>
   <v>       0.28571429       0.28571429       0.37500000 </v>
   <v>       0.42857143       0.28571429       0.37500000 </v>
   <v>      -0.42857143       0.28571429       0.37500000 </v>
   <v>      -0.28571429       0.28571429       0.37500000 </v>
   <v>      -0.14285714       0.28571429       0.37500000 </v>
   <v>       0.42857143       0.42857143       0.37500000 </v>
   <v>      -0.42857143       0.42857143       0.37500000 </v>
   <v>      -0.28571429       0.42857143       0.37500000 </v>
   <v>      -0.14285714       0.42857143       0.37500000 </v>
   <v>      -0.42857143      -0.42857143       0.37500000 </v>
   <v>      -0.28571429      -0.42857143       0.37500000 </v>
   <v>      -0.14285714      -0.42857143       0.37500000 </v>
   <v>      -0.28571429      -0.28571429       0.37500000 </v>
   <v>      -0.14285714      -0.28571429       0.37500000 </v>
   <v>      -0.14285714      -0.14285714       0.37500000 </v>
   <v>      -0.00000000      -0.00000000       0.50000000 </v>
   <v>       0.14285714       0.00000000       0.50000000 </v>
   <v>       0.28571429      -0.00000000       0.50000000 </v>
   <v>       0.42857143       0.00000000       0.50000000 </v>
   <v>       0.14285714       0.14285714       0.50000000 </v>
   <v>       0.28571429       0.14285714       0.50000000 </v>
   <v>       0.42857143       0.14285714       0.50000000 </v>
   <v>      -0.42857143       0.14285714       0.50000000 </v>
   <v>      -0.28571429       0.14285714       0.50000000 </v>
   <v>      -0.14285714       0.14285714       0.50000000 </v>
   <v>       0.28571429       0.28571429       0.50000000 </v>
   <v>       0.42857143       0.28571429       0.50000000 </v>
   <v>      -0.42857143       0.28571429       0.50000000 </v>
   <v>      -0.28571429       0.28571429       0.50000000 </v>
   <v>       0.42857143       0.42857143       0.50000000 </v>
   <v>      -0.42857143       0.42857143       0.50000000 </v>
  </varray>
  <varray name="weights" >
   <v>       0.00255102 </v>
   <v>       0.01020408 </v>
   <v>       0.01020408 </v>
   <v>       0.01020408 </v>
   <v>       0.00510204 </v>
   <v>       0.01020408 </v>
   <v>       0.01020408 </v>
   <v>       0.01020408 </v>
   <v>       0.01020408 </v>
   <v>       0.00510204 </v>
   <v>       0.00510204 </v>
   <v>       0.01020408 </v>
   <v>       0.01020408 </v>
   <v>       0.00510204 </v>
   <v>       0.00510204 </v>
   <v>       0.00510204 </v>
   <v>       0.00510204 </v>
   <v>       0.01020408 </v>
   <v>       0.01020408 </v>
   <v>       0.01020408 </v>
   <v>       0.01020408 </v>
   <v>       0.01020408 </v>
   <v>       0.01020408 </v>
   <v>       0.00510204 </v>
   <v>       0.01020408 </v>
   <v>       0.01020408 </v>
   <v>       0.01020408 </v>
   <v>       0.01020408 </v>
   <v>       0.01020408 </v>
   <v>       0.00510204 </v>
   <v>       0.01020408 </v>
   <v>       0.01020408 </v>
   <v>       0.01020408 </v>
   <v>       0.01020408 </v>
   <v>       0.00510204 </v>
   <v>       0.01020408 </v>
   <v>       0.01020408 </v>
   <v>       0.01020408 </v>
   <v>       0.00510204 </v>
   <v>       0.01020408 </v>
   <v>       0.01020408 </v>
   <v>       0.00510204 </v>
   <v>       0.01020408 </v>
   <v>       0.00510204 </v>
   <v>       0.00510204 </v>
   <v>       0.01020408 </v>
   <v>       0.01020408 </v>
   <v>       0.01020408 </v>
   <v>       0.01020408 </v>
   <v>       0.01020408 </v>
   <v>       0.01020408 </v>
   <v>       0.00510204 </v>
   <v>       0.01020408 </v>
   <v>       0.01020408 </v>
   <v>       0.01020408 </v>
   <v>       0.01020408 </v>
   <v>       0.01020408 </v>
   <v>       0.00510204 </v>
   <v>       0.01020408 </v>
   <v>       0.01020408 </v>
   <v>       0.01020408 </v>
   <v>       0.01020408 </v>
   <v>       0.00510204 </v>
   <v>       0.01020408 </v>
   <v>       0.01020408 </v>
   <v>       0.01020408 </v>
   <v>       0.00510204 </v>
   <v>       0.01020408 </v>
   <v>       0.01020408 </v>
   <v>       0.00510204 </v>
   <v>       0.01020408 </v>
   <v>       0.00510204 </v>
   <v>       0.00510204 </v>
   <v>       0.01020408 </v>
   <v>       0.01020408 </v>
   <v>       0.01020408 </v>
   <v>       0.01020408 </v>
   <v>       0.01020408 </v>
   <v>       0.01020408 </v>
   <v>       0.00510204 </v>
   <v>       0.01020408 </v>
   <v>       0.01020408 </v>
   <v>       0.01020408 </v>
   <v>       0.01020408 </v>
   <v>       0.01020408 </v>
   <v>       0.00510204 </v>
   <v>       0.01020408 </v>
   <v>       0.01020408 </v>
   <v>       0.01020408 </v>
   <v>       0.01020408 </v>
   <v>       0.00510204 </v>
   <v>       0.01020408 </v>
   <v>       0.01020408 </v>
   <v>       0.01020408 </v>
   <v>       0.00510204 </v>
   <v>       0.01020408 </v>
   <v>       0.01020408 </v>
   <v>       0.00510204 </v>
   <v>       0.01020408 </v>
   <v>       0.00510204 </v>
   <v>       0.00255102 </v>
   <v>       0.01020408 </v>
   <v>       0.01020408 </v>
   <v>       0.01020408 </v>
   <v>       0.00510204 </v>
   <v>       0.01020408 </v>
   <v>       0.01020408 </v>
   <v>       0.01020408 </v>
   <v>       0.01020408 </v>
   <v>       0.00510204 </v>
   <v>       0.00510204 </v>
   <v>       0.01020408 </v>
   <v>       0.01020408 </v>
   <v>       0.00510204 </v>
   <v>       0.00510204 </v>
   <v>       0.00510204 </v>
  </varray>
 </kpoints>
 <parameters>
  <separator name="general" >
   <i type="string" name="SYSTEM">routine with relax: pwdword</i>
   <i type="logical" name="LCOMPAT"> F  </i>
  </separator>
  <separator name="electronic" >
   <i type="string" name="PREC">acc</i>
   <i name="ENMAX">    600.00000000</i>
   <i name="ENAUG">    535.51400000</i>
   <i name="EDIFF">      0.00000000</i>
   <i type="int" name="IALGO">    58</i>
   <i type="int" name="IWAVPR">    10</i>
   <i type="int" name="NBANDS">    78</i>
   <i type="int" name="NBANDSLOW">    -1</i>
   <i type="int" name="NBANDSHIGH">    -1</i>
   <i name="NELECT">    126.00000000</i>
   <i type="int" name="TURBO">     0</i>
   <i type="int" name="IRESTART">     0</i>
   <i type="int" name="NREBOOT">     0</i>
   <i type="int" name="NMIN">     0</i>
   <i name="EREF">      0.00000000</i>
   <separator name="electronic smearing" >
    <i type="int" name="ISMEAR">     0</i>
    <i name="SIGMA">      0.02000000</i>
    <i name="KSPACING">      0.50000000</i>
    <i type="logical" name="KGAMMA"> T  </i>
    <i type="logical" name="KBLOWUP"> F  </i>
   </separator>
   <separator name="electronic projectors" >
    <i type="logical" name="LREAL"> F  </i>
    <v name="ROPT">      0.00000000      0.00000000      0.00000000</v>
    <i type="int" name="LMAXPAW">  -100</i>
    <i type="int" name="LMAXMIX">     2</i>
    <i type="logical" name="NLSPLINE"> F  </i>
   </separator>
   <separator name="electronic startup" >
    <i type="int" name="ISTART">     0</i>
    <i type="int" name="ICHARG">     2</i>
    <i type="int" name="INIWAV">     1</i>
   </separator>
   <separator name="electronic spin" >
    <i type="int" name="ISPIN">     1</i>
    <i type="logical" name="LNONCOLLINEAR"> F  </i>
    <v name="MAGMOM">      1.00000000      1.00000000      1.00000000      1.00000000      1.00000000      1.00000000      1.00000000      1.00000000      1.00000000      1.00000000      1.00000000      1.00000000</v>
    <i name="NUPDOWN">     -1.00000000</i>
    <i type="logical" name="LSORBIT"> F  </i>
    <v name="SAXIS">      0.00000000      0.00000000      1.00000000</v>
    <i type="logical" name="LSPIRAL"> F  </i>
    <v name="QSPIRAL">      0.00000000      0.00000000      0.00000000</v>
    <i type="logical" name="LZEROZ"> F  </i>
   </separator>
   <separator name="electronic exchange-correlation" >
    <i type="logical" name="LASPH"> T  </i>
    <i type="logical" name="LMETAGGA"> F  </i>
   </separator>
   <separator name="electronic convergence" >
    <i type="int" name="NELM">   100</i>
    <i type="int" name="NELMDL">    -5</i>
    <i type="int" name="NELMIN">     6</i>
    <i name="ENINI">    600.00000000</i>
    <separator name="electronic convergence detail" >
     <i type="logical" name="LDIAG"> T  </i>
     <i type="logical" name="LSUBROT"> F  </i>
     <i name="WEIMIN">      0.00000000</i>
     <i name="EBREAK">      0.00000000</i>
     <i name="DEPER">      0.30000000</i>
     <i type="int" name="NRMM">     4</i>
     <i name="TIME">      0.40000000</i>
    </separator>
   </separator>
   <separator name="electronic mixer" >
    <i name="AMIX">      0.40000000</i>
    <i name="BMIX">      1.00000000</i>
    <i name="AMIN">      0.10000000</i>
    <i name="AMIX_MAG">      1.60000000</i>
    <i name="BMIX_MAG">      1.00000000</i>
    <separator name="electronic mixer details" >
     <i type="int" name="IMIX">     4</i>
     <i type="logical" name="MIXFIRST"> F  </i>
     <i type="int" name="MAXMIX">   -45</i>
     <i name="WC">    100.00000000</i>
     <i type="int" name="INIMIX">     1</i>
     <i type="int" name="MIXPRE">     1</i>
     <i type="int" name="MREMOVE">     5</i>
    </separator>
   </separator>
   <separator name="electronic dipolcorrection" >
    <i type="logical" name="LDIPOL"> F  </i>
    <i type="logical" name="LMONO"> F  </i>
    <i type="int" name="IDIPOL">     0</i>
    <i name="EPSILON">      1.00000000</i>
    <v name="DIPOL">   -100.00000000   -100.00000000   -100.00000000</v>
    <i name="EFIELD">      0.00000000</i>
   </separator>
  </separator>
  <separator name="grids" >
   <i type="int" name="NGX">    50</i>
   <i type="int" name="NGY">    50</i>
   <i type="int" name="NGZ">    50</i>
   <i type="int" name="NGXF">   100</i>
   <i type="int" name="NGYF">   100</i>
   <i type="int" name="NGZF">   100</i>
   <i type="logical" name="ADDGRID"> T  </i>
  </separator>
  <separator name="ionic" >
   <i type="int" name="NSW">     0</i>
   <i type="int" name="IBRION">    -1</i>
   <i type="int" name="MDALGO">     0</i>
   <i type="int" name="ISIF">    -1</i>
   <i name="PSTRESS">      0.00000000</i>
   <i name="EDIFFG">      0.00000001</i>
   <i type="int" name="NFREE">     0</i>
   <i name="POTIM">      0.50000000</i>
   <i name="SMASS">     -3.00000000</i>
   <i name="SCALEE">      1.00000000</i>
  </separator>
  <separator name="ionic md" >
   <i name="TEBEG">      0.00010000</i>
   <i name="TEEND">      0.00010000</i>
   <i type="int" name="NBLOCK">     1</i>
   <i type="int" name="KBLOCK">     1</i>
   <i type="int" name="NPACO">   256</i>
   <i name="APACO">     16.00000000</i>
  </separator>
  <separator name="symmetry" >
   <i type="int" name="ISYM">     2</i>
   <i name="SYMPREC">      0.00001000</i>
  </separator>
  <separator name="dos" >
   <i type="int" name="LORBIT">     0</i>
   <v name="RWIGS">     -1.00000000     -1.00000000     -1.00000000</v>
   <i type="int" name="NEDOS">   301</i>
   <i name="EMIN">     10.00000000</i>
   <i name="EMAX">    -10.00000000</i>
   <i name="EFERMI">      0.00000000</i>
  </separator>
  <separator name="writing" >
   <i type="int" name="NWRITE">     2</i>
   <i type="logical" name="LWAVE"> T  </i>
   <i type="logical" name="LDOWNSAMPLE"> F  </i>
   <i type="logical" name="LCHARG"> T  </i>
   <i type="logical" name="LPARD"> F  </i>
   <i type="logical" name="LVTOT"> F  </i>
   <i type="logical" name="LVHAR"> F  </i>
   <i type="logical" name="LELF"> F  </i>
   <i type="logical" name="LOPTICS"> F  </i>
   <v name="STM">      0.00000000      0.00000000      0.00000000      0.00000000      0.00000000      0.00000000      0.00000000</v>
  </separator>
  <separator name="performance" >
   <i type="int" name="NPAR">     6</i>
   <i type="int" name="NSIM">     4</i>
   <i type="int" name="NBLK">    -1</i>
   <i type="logical" name="LPLANE"> T  </i>
   <i type="logical" name="LSCALAPACK"> T  </i>
   <i type="logical" name="LSCAAWARE"> F  </i>
   <i type="logical" name="LSCALU"> F  </i>
   <i type="logical" name="LASYNC"> F  </i>
   <i type="logical" name="LORBITALREAL"> F  </i>
  </separator>
  <separator name="miscellaneous" >
   <i type="int" name="IDIOT">     3</i>
   <i type="int" name="PHON_NSTRUCT">    -1</i>
   <i type="logical" name="LMUSIC"> F  </i>
   <v name="POMASS">     10.81100000     95.94000000     28.08500000</v>
   <v name="DARWINR">      0.00000000      0.00000000      0.00000000</v>
   <v name="DARWINV">      1.00000000      1.00000000      1.00000000</v>
   <i type="logical" name="LCORR"> T  </i>
  </separator>
  <i type="logical" name="GGA_COMPAT"> T  </i>
  <i type="logical" name="LBERRY"> F  </i>
  <i type="int" name="ICORELEVEL">     0</i>
  <i type="logical" name="LDAU"> F  </i>
  <i type="int" name="I_CONSTRAINED_M">     0</i>
  <separator name="electronic exchange-correlation" >
   <i type="string" name="GGA">--</i>
   <i type="int" name="VOSKOWN">     0</i>
   <i type="logical" name="LHFCALC"> F  </i>
   <i type="string" name="PRECFOCK"></i>
   <i type="logical" name="LSYMGRAD"> F  </i>
   <i type="logical" name="LHFONE"> F  </i>
   <i type="logical" name="LRHFCALC"> F  </i>
   <i type="logical" name="LTHOMAS"> F  </i>
   <i type="logical" name="LMODELHF"> F  </i>
   <i type="logical" name="LFOCKACE"> F  </i>
   <i name="ENCUT4O">     -1.00000000</i>
   <i type="int" name="EXXOEP">     0</i>
   <i type="int" name="FOURORBIT">     0</i>
   <i name="AEXX">      0.00000000</i>
   <i name="HFALPHA">      0.00000000</i>
   <i name="MCALPHA">      0.00000000</i>
   <i name="ALDAX">      1.00000000</i>
   <i name="AGGAX">      1.00000000</i>
   <i name="ALDAC">      1.00000000</i>
   <i name="AGGAC">      1.00000000</i>
   <i type="int" name="NKREDX">     1</i>
   <i type="int" name="NKREDY">     1</i>
   <i type="int" name="NKREDZ">     1</i>
   <i type="logical" name="SHIFTRED"> F  </i>
   <i type="logical" name="ODDONLY"> F  </i>
   <i type="logical" name="EVENONLY"> F  </i>
   <i type="int" name="LMAXFOCK">     0</i>
   <i type="int" name="NMAXFOCKAE">     0</i>
   <i type="logical" name="LFOCKAEDFT"> F  </i>
   <i name="HFSCREEN">      0.00000000</i>
   <i name="HFSCREENC">      0.00000000</i>
   <i type="int" name="NBANDSGWLOW">     0</i>
  </separator>
  <separator name="vdW DFT" >
   <i type="logical" name="LUSE_VDW"> F  </i>
   <i name="Zab_VDW">     -0.84910000</i>
   <i name="PARAM1">      0.12340000</i>
   <i name="PARAM2">      1.00000000</i>
   <i name="PARAM3">      0.00000000</i>
  </separator>
  <separator name="model GW" >
   <i type="int" name="MODEL_GW">     0</i>
   <i name="MODEL_EPS0">      9.20536692</i>
   <i name="MODEL_ALPHA">      1.00000000</i>
  </separator>
  <separator name="linear response parameters" >
   <i type="logical" name="LEPSILON"> F  </i>
   <i type="logical" name="LRPA"> F  </i>
   <i type="logical" name="LNABLA"> F  </i>
   <i type="logical" name="LVEL"> F  </i>
   <i type="int" name="KINTER">     0</i>
   <i name="CSHIFT">      0.10000000</i>
   <i name="OMEGAMAX">     -1.00000000</i>
   <i name="DEG_THRESHOLD">      0.00200000</i>
   <i name="RTIME">     -0.10000000</i>
   <i name="WPLASMAI">      0.00000000</i>
   <v name="DFIELD">      0.00000000      0.00000000      0.00000000</v>
   <v name="WPLASMA">      0.00000000      0.00000000      0.00000000      0.00000000      0.00000000      0.00000000      0.00000000      0.00000000      0.00000000</v>
  </separator>
  <separator name="orbital magnetization" >
   <i type="logical" name="NUCIND"> F  </i>
   <v name="MAGPOS">      0.00000000      0.00000000      0.00000000</v>
   <i type="logical" name="LNICSALL"> T  </i>
   <i type="logical" name="ORBITALMAG"> F  </i>
   <i type="logical" name="LMAGBLOCH"> F  </i>
   <i type="logical" name="LCHIMAG"> F  </i>
   <i type="logical" name="LGAUGE"> T  </i>
   <i type="int" name="MAGATOM">     0</i>
   <v name="MAGDIPOL">      0.00000000      0.00000000      0.00000000</v>
   <v name="AVECCONST">      0.00000000      0.00000000      0.00000000</v>
  </separator>
  <separator name="response functions" >
   <i type="logical" name="LFINITE_TEMPERATURE"> F  </i>
   <i type="logical" name="LADDER"> F  </i>
   <i type="logical" name="LRPAFORCE"> F  </i>
   <i type="logical" name="LFXC"> F  </i>
   <i type="logical" name="LHARTREE"> T  </i>
   <i type="int" name="IBSE">     0</i>
   <v type="int" name="KPOINT">    -1     0     0     0</v>
   <i type="logical" name="LTCTC"> F  </i>
   <i type="logical" name="LTCTE"> F  </i>
   <i type="logical" name="LTETE"> F  </i>
   <i type="logical" name="LTRIPLET"> F  </i>
   <i type="logical" name="LFXCEPS"> F  </i>
   <i type="logical" name="LFXHEG"> F  </i>
   <i type="int" name="NATURALO">     2</i>
   <i type="logical" name="LHOLEGF"> F  </i>
   <i type="logical" name="L2ORDER"> F  </i>
   <i type="logical" name="LDMP1"> F  </i>
   <i type="logical" name="LMP2LT"> F  </i>
   <i type="logical" name="LSMP2LT"> F  </i>
   <i type="logical" name="LGWLF"> F  </i>
   <i name="ENCUTGW">     -2.00000000</i>
   <i name="ENCUTGWSOFT">     -2.00000000</i>
   <i name="ENCUTLF">     -1.00000000</i>
   <i type="logical" name="LESF_SPLINES"> F  </i>
   <i type="int" name="LMAXMP2">    -1</i>
   <i name="SCISSOR">      0.00000000</i>
   <i type="int" name="NOMEGA">     0</i>
   <i type="int" name="NOMEGAR">     0</i>
   <i type="int" name="NBANDSGW">    -1</i>
   <i type="int" name="NBANDSO">    -1</i>
   <i type="int" name="NBANDSV">    -1</i>
   <i type="int" name="NELM">   100</i>
   <i type="int" name="NELMHF">     1</i>
   <i type="int" name="DIM">     3</i>
   <i type="int" name="IESPILON">     4</i>
   <i type="int" name="ANTIRES">     0</i>
   <i name="OMEGAMAX">    -30.00000000</i>
   <i name="OMEGAMIN">    -30.00000000</i>
   <i name="OMEGATL">   -200.00000000</i>
   <i type="int" name="OMEGAGRID">     0</i>
   <i name="CSHIFT">     -0.10000000</i>
   <i type="logical" name="LSELFENERGY"> F  </i>
   <i type="logical" name="LSPECTRAL"> F  </i>
   <i type="logical" name="LSPECTRALGW"> F  </i>
   <i type="logical" name="LSINGLES"> F  </i>
   <i type="logical" name="LFERMIGW"> F  </i>
   <i type="logical" name="ODDONLYGW"> F  </i>
   <i type="logical" name="EVENONLYGW"> F  </i>
   <i type="int" name="NKREDLFX">     1</i>
   <i type="int" name="NKREDLFY">     1</i>
   <i type="int" name="NKREDLFZ">     1</i>
   <i type="int" name="MAXMEM">  2800</i>
   <i type="int" name="TELESCOPE">     0</i>
   <i type="int" name="NTAUPAR">    -1</i>
   <i type="int" name="NOMEGAPAR">    -1</i>
   <i name="DAMP_NEWTON">      0.80000001</i>
   <i name="LAMBDA">      1.00000000</i>
  </separator>
  <separator name="External order field" >
   <i name="OFIELD_KAPPA">      0.00000000</i>
   <v name="OFIELD_K">      0.00000000      0.00000000      0.00000000</v>
   <i name="OFIELD_Q6_NEAR">      0.00000000</i>
   <i name="OFIELD_Q6_FAR">      0.00000000</i>
   <i name="OFIELD_A">      0.00000000</i>
  </separator>
 </parameters>
 <atominfo>
  <atoms>      12 </atoms>
  <types>       3 </types>
  <array name="atoms" >
   <dimension dim="1">ion</dimension>
   <field type="string">element</field>
   <field type="int">atomtype</field>
   <set>
    <rc><c>B </c><c>   1</c></rc>
    <rc><c>B </c><c>   1</c></rc>
    <rc><c>Mo</c><c>   2</c></rc>
    <rc><c>Mo</c><c>   2</c></rc>
    <rc><c>Mo</c><c>   2</c></rc>
    <rc><c>Mo</c><c>   2</c></rc>
    <rc><c>Mo</c><c>   2</c></rc>
    <rc><c>Mo</c><c>   2</c></rc>
    <rc><c>Mo</c><c>   2</c></rc>
    <rc><c>Mo</c><c>   2</c></rc>
    <rc><c>Si</c><c>   3</c></rc>
    <rc><c>Si</c><c>   3</c></rc>
   </set>
  </array>
  <array name="atomtypes" >
   <dimension dim="1">type</dimension>
   <field type="int">atomspertype</field>
   <field type="string">element</field>
   <field>mass</field>
   <field>valence</field>
   <field type="string">pseudopotential</field>
   <set>
    <rc><c>   2</c><c>B </c><c>     10.81100000</c><c>      3.00000000</c><c>  PAW_PBE B 06Sep2000                   </c></rc>
    <rc><c>   8</c><c>Mo</c><c>     95.94000000</c><c>     14.00000000</c><c>  PAW_PBE Mo_sv 02Feb2006               </c></rc>
    <rc><c>   2</c><c>Si</c><c>     28.08500000</c><c>      4.00000000</c><c>  PAW_PBE Si 05Jan2001                  </c></rc>
   </set>
  </array>
 </atominfo>
 <structure name="initialpos" >
  <crystal>
   <varray name="basis" >
    <v>       5.61481323       0.00000000      -2.86002622 </v>
    <v>      -2.10905571       5.20365368      -2.86002622 </v>
    <v>       0.00000000       0.00000000       6.30126000 </v>
   </varray>
   <i name="volume">    184.10733839 </i>
   <varray name="rec_basis" >
    <v>       0.17810031       0.07218457       0.00000000 </v>
    <v>       0.00000000       0.19217267       0.00000000 </v>
    <v>       0.08083646       0.11998689       0.15869842 </v>
   </varray>
  </crystal>
  <varray name="positions" >
   <v>       0.25000000       0.25000000       0.00000000 </v>
   <v>       0.75000000       0.75000000       0.00000000 </v>
   <v>       0.50000000       0.50000000       0.50000000 </v>
   <v>       0.87971000       0.37971000       0.25942000 </v>
   <v>       0.12029000       0.62029000       0.74058000 </v>
   <v>       0.50000000       0.00000000       0.00000000 </v>
   <v>       0.37971000       0.12029000       0.50000000 </v>
   <v>       0.62029000       0.87971000       0.50000000 </v>
   <v>       0.00000000       0.00000000       0.50000000 </v>
   <v>       0.00000000       0.50000000       0.00000000 </v>
   <v>       0.50000000       0.50000000       0.00000000 </v>
   <v>       0.00000000       0.00000000       0.00000000 </v>
  </varray>
 </structure>
 <calculation>
  <scstep>
   <time name="total">   27.17   27.37</time>
   <energy>
    <i name="alphaZ">    763.60813458 </i>
    <i name="ewald"> -12149.44677170 </i>
    <i name="hartreedc">  -3236.60250872 </i>
    <i name="XCdc">    617.26728029 </i>
    <i name="pawpsdc">  12139.29562609 </i>
    <i name="pawaedc"> -12091.82663909 </i>
    <i name="eentropy">     -0.00083954 </i>
    <i name="bandstr">    172.17890970 </i>
    <i name="atom">  15246.73248675 </i>
    <i name="e_fr_energy">   1461.20567836 </i>
    <i name="e_wo_entrp">   1461.20651790 </i>
    <i name="e_0_energy">   1461.20609813 </i>
   </energy>
  </scstep>
  <scstep>
   <time name="total">   27.68   28.41</time>
   <energy>
    <i name="e_fr_energy">   -213.96271740 </i>
    <i name="e_wo_entrp">   -213.96110016 </i>
    <i name="e_0_energy">   -213.96190878 </i>
   </energy>
  </scstep>
  <scstep>
   <time name="total">   32.01   32.92</time>
   <energy>
    <i name="e_fr_energy">   -281.84265364 </i>
    <i name="e_wo_entrp">   -281.83984305 </i>
    <i name="e_0_energy">   -281.84124835 </i>
   </energy>
  </scstep>
  <scstep>
   <time name="total">   30.35   31.19</time>
   <energy>
    <i name="e_fr_energy">   -283.57865544 </i>
    <i name="e_wo_entrp">   -283.57594093 </i>
    <i name="e_0_energy">   -283.57729818 </i>
   </energy>
  </scstep>
  <scstep>
   <time name="total">   32.91   33.77</time>
   <energy>
    <i name="e_fr_energy">   -283.61676938 </i>
    <i name="e_wo_entrp">   -283.61404586 </i>
    <i name="e_0_energy">   -283.61540762 </i>
   </energy>
  </scstep>
  <scstep>
   <time name="total">   36.11   36.48</time>
   <energy>
    <i name="e_fr_energy">   -209.34573149 </i>
    <i name="e_wo_entrp">   -209.34381222 </i>
    <i name="e_0_energy">   -209.34477186 </i>
   </energy>
  </scstep>
  <scstep>
   <time name="total">   36.60   37.44</time>
   <energy>
    <i name="e_fr_energy">   -225.82673566 </i>
    <i name="e_wo_entrp">   -225.82473018 </i>
    <i name="e_0_energy">   -225.82573292 </i>
   </energy>
  </scstep>
  <scstep>
   <time name="total">   32.49   32.74</time>
   <energy>
    <i name="e_fr_energy">   -228.48399390 </i>
    <i name="e_wo_entrp">   -228.48141923 </i>
    <i name="e_0_energy">   -228.48270656 </i>
   </energy>
  </scstep>
  <scstep>
   <time name="total">   34.88   35.36</time>
   <energy>
    <i name="e_fr_energy">   -229.17724327 </i>
    <i name="e_wo_entrp">   -229.17448167 </i>
    <i name="e_0_energy">   -229.17586247 </i>
   </energy>
  </scstep>
  <scstep>
   <time name="total">   35.22   35.96</time>
   <energy>
    <i name="e_fr_energy">   -229.41095646 </i>
    <i name="e_wo_entrp">   -229.40816766 </i>
    <i name="e_0_energy">   -229.40956206 </i>
   </energy>
  </scstep>
  <scstep>
   <time name="total">   33.44   33.67</time>
   <energy>
    <i name="e_fr_energy">   -229.47716340 </i>
    <i name="e_wo_entrp">   -229.47443083 </i>
    <i name="e_0_energy">   -229.47579712 </i>
   </energy>
  </scstep>
  <scstep>
   <time name="total">   33.08   33.62</time>
   <energy>
    <i name="e_fr_energy">   -229.50890024 </i>
    <i name="e_wo_entrp">   -229.50615426 </i>
    <i name="e_0_energy">   -229.50752725 </i>
   </energy>
  </scstep>
  <scstep>
   <time name="total">   38.36   39.40</time>
   <energy>
    <i name="e_fr_energy">   -229.52371899 </i>
    <i name="e_wo_entrp">   -229.52098209 </i>
    <i name="e_0_energy">   -229.52235054 </i>
   </energy>
  </scstep>
  <scstep>
   <time name="total">   33.58   34.06</time>
   <energy>
    <i name="e_fr_energy">   -229.53155927 </i>
    <i name="e_wo_entrp">   -229.52884927 </i>
    <i name="e_0_energy">   -229.53020427 </i>
   </energy>
  </scstep>
  <scstep>
   <time name="total">   33.20   33.43</time>
   <energy>
    <i name="e_fr_energy">   -229.53479127 </i>
    <i name="e_wo_entrp">   -229.53208211 </i>
    <i name="e_0_energy">   -229.53343669 </i>
   </energy>
  </scstep>
  <scstep>
   <time name="total">   31.68   31.95</time>
   <energy>
    <i name="e_fr_energy">   -229.53607851 </i>
    <i name="e_wo_entrp">   -229.53336926 </i>
    <i name="e_0_energy">   -229.53472388 </i>
   </energy>
  </scstep>
  <scstep>
   <time name="total">   38.00   38.99</time>
   <energy>
    <i name="e_fr_energy">   -229.53665292 </i>
    <i name="e_wo_entrp">   -229.53393394 </i>
    <i name="e_0_energy">   -229.53529343 </i>
   </energy>
  </scstep>
  <scstep>
   <time name="total">   34.59   34.90</time>
   <energy>
    <i name="e_fr_energy">   -229.53695824 </i>
    <i name="e_wo_entrp">   -229.53423231 </i>
    <i name="e_0_energy">   -229.53559527 </i>
   </energy>
  </scstep>
  <scstep>
   <time name="total">   35.40   35.76</time>
   <energy>
    <i name="e_fr_energy">   -229.53709426 </i>
    <i name="e_wo_entrp">   -229.53436136 </i>
    <i name="e_0_energy">   -229.53572781 </i>
   </energy>
  </scstep>
  <scstep>
   <time name="total">   35.21   35.67</time>
   <energy>
    <i name="e_fr_energy">   -229.53714868 </i>
    <i name="e_wo_entrp">   -229.53441268 </i>
    <i name="e_0_energy">   -229.53578068 </i>
   </energy>
  </scstep>
  <scstep>
   <time name="total">   36.36   37.11</time>
   <energy>
    <i name="e_fr_energy">   -229.53717900 </i>
    <i name="e_wo_entrp">   -229.53444101 </i>
    <i name="e_0_energy">   -229.53581001 </i>
   </energy>
  </scstep>
  <scstep>
   <time name="total">   31.67   31.93</time>
   <energy>
    <i name="e_fr_energy">   -229.53719328 </i>
    <i name="e_wo_entrp">   -229.53445528 </i>
    <i name="e_0_energy">   -229.53582428 </i>
   </energy>
  </scstep>
  <scstep>
   <time name="total">   36.74   37.76</time>
   <energy>
    <i name="e_fr_energy">   -229.53719812 </i>
    <i name="e_wo_entrp">   -229.53445990 </i>
    <i name="e_0_energy">   -229.53582901 </i>
   </energy>
  </scstep>
  <scstep>
   <time name="total">   34.40   34.67</time>
   <energy>
    <i name="e_fr_energy">   -229.53720064 </i>
    <i name="e_wo_entrp">   -229.53446286 </i>
    <i name="e_0_energy">   -229.53583175 </i>
   </energy>
  </scstep>
  <scstep>
   <time name="total">   33.45   33.73</time>
   <energy>
    <i name="e_fr_energy">   -229.53720206 </i>
    <i name="e_wo_entrp">   -229.53446482 </i>
    <i name="e_0_energy">   -229.53583344 </i>
   </energy>
  </scstep>
  <scstep>
   <time name="total">   36.04   36.95</time>
   <energy>
    <i name="e_fr_energy">   -229.53720256 </i>
    <i name="e_wo_entrp">   -229.53446539 </i>
    <i name="e_0_energy">   -229.53583397 </i>
   </energy>
  </scstep>
  <scstep>
   <time name="total">   32.66   32.90</time>
   <energy>
    <i name="e_fr_energy">   -229.53720266 </i>
    <i name="e_wo_entrp">   -229.53446554 </i>
    <i name="e_0_energy">   -229.53583410 </i>
   </energy>
  </scstep>
  <scstep>
   <time name="total">   32.90   33.41</time>
   <energy>
    <i name="e_fr_energy">   -229.53720273 </i>
    <i name="e_wo_entrp">   -229.53446573 </i>
    <i name="e_0_energy">   -229.53583423 </i>
   </energy>
  </scstep>
  <scstep>
   <time name="total">   35.95   36.30</time>
   <energy>
    <i name="e_fr_energy">   -229.53720275 </i>
    <i name="e_wo_entrp">   -229.53446566 </i>
    <i name="e_0_energy">   -229.53583421 </i>
   </energy>
  </scstep>
  <scstep>
   <time name="total">   33.37   33.66</time>
   <energy>
    <i name="e_fr_energy">   -229.53720286 </i>
    <i name="e_wo_entrp">   -229.53446577 </i>
    <i name="e_0_energy">   -229.53583431 </i>
   </energy>
  </scstep>
  <scstep>
   <time name="total">   34.83   35.07</time>
   <energy>
    <i name="e_fr_energy">   -229.53720286 </i>
    <i name="e_wo_entrp">   -229.53446580 </i>
    <i name="e_0_energy">   -229.53583433 </i>
   </energy>
  </scstep>
  <scstep>
   <time name="total">   34.57   34.94</time>
   <energy>
    <i name="e_fr_energy">   -229.53720287 </i>
    <i name="e_wo_entrp">   -229.53446580 </i>
    <i name="e_0_energy">   -229.53583433 </i>
   </energy>
  </scstep>
  <scstep>
   <time name="total">   37.17   37.91</time>
   <energy>
    <i name="e_fr_energy">   -229.53720288 </i>
    <i name="e_wo_entrp">   -229.53446584 </i>
    <i name="e_0_energy">   -229.53583436 </i>
   </energy>
  </scstep>
  <scstep>
   <time name="total">   33.19   33.43</time>
   <energy>
    <i name="e_fr_energy">   -229.53720289 </i>
    <i name="e_wo_entrp">   -229.53446585 </i>
    <i name="e_0_energy">   -229.53583437 </i>
   </energy>
  </scstep>
  <scstep>
   <time name="total">   34.27   34.62</time>
   <energy>
    <i name="e_fr_energy">   -229.53720289 </i>
    <i name="e_wo_entrp">   -229.53446585 </i>
    <i name="e_0_energy">   -229.53583437 </i>
   </energy>
  </scstep>
  <scstep>
   <time name="total">   40.87   41.67</time>
   <energy>
    <i name="alphaZ">    763.60813458 </i>
    <i name="ewald"> -12149.44677170 </i>
    <i name="hartreedc">  -3073.22915344 </i>
    <i name="XCdc">    629.38640273 </i>
    <i name="pawpsdc">  15493.18643978 </i>
    <i name="pawaedc"> -15468.43874304 </i>
    <i name="eentropy">     -0.00273705 </i>
    <i name="bandstr">  -1671.33326151 </i>
    <i name="atom">  15246.73248675 </i>
    <i name="e_fr_energy">   -229.53720289 </i>
    <i name="e_wo_entrp">   -229.53446585 </i>
    <i name="e_0_energy">   -229.53583437 </i>
   </energy>
  </scstep>
  <structure>
   <crystal>
    <varray name="basis" >
     <v>       5.61481323       0.00000000      -2.86002622 </v>
     <v>      -2.10905571       5.20365368      -2.86002622 </v>
     <v>       0.00000000       0.00000000       6.30126000 </v>
    </varray>
    <i name="volume">    184.10733839 </i>
    <varray name="rec_basis" >
     <v>       0.17810031       0.07218457       0.00000000 </v>
     <v>       0.00000000       0.19217267       0.00000000 </v>
     <v>       0.08083646       0.11998689       0.15869842 </v>
    </varray>
   </crystal>
   <varray name="positions" >
    <v>       0.25000000       0.25000000       0.00000000 </v>
    <v>       0.75000000       0.75000000       0.00000000 </v>
    <v>       0.50000000       0.50000000       0.50000000 </v>
    <v>       0.87971000       0.37971000       0.25942000 </v>
    <v>       0.12029000       0.62029000       0.74058000 </v>
    <v>       0.50000000       0.00000000       0.00000000 </v>
    <v>       0.37971000       0.12029000       0.50000000 </v>
    <v>       0.62029000       0.87971000       0.50000000 </v>
    <v>       0.00000000       0.00000000       0.50000000 </v>
    <v>       0.00000000       0.50000000       0.00000000 </v>
    <v>       0.50000000       0.50000000       0.00000000 </v>
    <v>       0.00000000       0.00000000       0.00000000 </v>
   </varray>
  </structure>
  <varray name="forces" >
   <v>       0.00000000       0.00000000       0.00000000 </v>
   <v>       0.00000000       0.00000000       0.00000000 </v>
   <v>       0.00000000       0.00000000       0.00000000 </v>
   <v>       0.00000000       0.00000000       0.00000000 </v>
   <v>       0.00000000       0.00000000       0.00000000 </v>
   <v>       0.00000000       0.00000000       0.00000000 </v>
   <v>       0.00000000       0.00000000       0.00000000 </v>
   <v>       0.00000000       0.00000000       0.00000000 </v>
   <v>       0.00000000       0.00000000       0.00000000 </v>
   <v>       0.00000000       0.00000000       0.00000000 </v>
   <v>       0.00000000       0.00000000       0.00000000 </v>
   <v>       0.00000000       0.00000000       0.00000000 </v>
  </varray>
  <varray name="stress" >
   <v>       0.00000000       0.00000000       0.00000000 </v>
   <v>       0.00000000       0.00000000       0.00000000 </v>
   <v>       0.00000000       0.00000000       0.00000000 </v>
  </varray>
  <energy>
   <i name="e_fr_energy">   -229.53720289 </i>
   <i name="e_wo_entrp">   -229.53446585 </i>
   <i name="e_0_energy">   -229.53583437 </i>
  </energy>
  <time name="totalsc"> 1235.38 1254.30</time>
  <eigenvalues>
   <array>
    <dimension dim="1">band</dimension>
    <dimension dim="2">kpoint</dimension>
    <dimension dim="3">spin</dimension>
    <field>eigene</field>
    <field>occ</field>
    <set>
     <set comment="spin 1">
      <set comment="kpoint 1">
       <r>  -52.8224    1.0000 </r>
       <r>  -52.7863    1.0000 </r>
       <r>  -52.6283    1.0000 </r>
       <r>  -52.6283    1.0000 </r>
       <r>  -52.4081    1.0000 </r>
       <r>  -52.4020    1.0000 </r>
       <r>  -52.1258    1.0000 </r>
       <r>  -52.1257    1.0000 </r>
       <r>  -27.1615    1.0000 </r>
       <r>  -27.1485    1.0000 </r>
       <r>  -27.0538    1.0000 </r>
       <r>  -27.0323    1.0000 </r>
       <r>  -26.4395    1.0000 </r>
       <r>  -26.4394    1.0000 </r>
       <r>  -26.2078    1.0000 </r>
       <r>  -26.2078    1.0000 </r>
       <r>  -26.1685    1.0000 </r>
       <r>  -25.9835    1.0000 </r>
       <r>  -25.9469    1.0000 </r>
       <r>  -25.8503    1.0000 </r>
       <r>  -25.8503    1.0000 </r>
       <r>  -25.8335    1.0000 </r>
       <r>  -25.8125    1.0000 </r>
       <r>  -25.8125    1.0000 </r>
       <r>  -25.7213    1.0000 </r>
       <r>  -25.7213    1.0000 </r>
       <r>  -25.6484    1.0000 </r>
       <r>  -25.6062    1.0000 </r>
       <r>  -24.9838    1.0000 </r>
       <r>  -24.9701    1.0000 </r>
       <r>  -24.4533    1.0000 </r>
       <r>  -24.4533    1.0000 </r>
       <r>   -1.6710    1.0000 </r>
       <r>    0.4248    1.0000 </r>
       <r>    1.7771    1.0000 </r>
       <r>    4.5861    1.0000 </r>
       <r>    4.9678    1.0000 </r>
       <r>    4.9678    1.0000 </r>
       <r>    5.3237    1.0000 </r>
       <r>    5.4276    1.0000 </r>
       <r>    5.6099    1.0000 </r>
       <r>    5.6099    1.0000 </r>
       <r>    5.6823    1.0000 </r>
       <r>    6.4798    1.0000 </r>
       <r>    7.0008    1.0000 </r>
       <r>    7.0008    1.0000 </r>
       <r>    7.0726    1.0000 </r>
       <r>    7.0726    1.0000 </r>
       <r>    7.1509    1.0000 </r>
       <r>    7.6783    1.0000 </r>
       <r>    7.6783    1.0000 </r>
       <r>    7.7754    1.0000 </r>
       <r>    7.9377    1.0000 </r>
       <r>    8.3043    1.0000 </r>
       <r>    8.3044    1.0000 </r>
       <r>    8.3299    1.0000 </r>
       <r>    8.7594    1.0000 </r>
       <r>    8.9552    1.0000 </r>
       <r>    9.2933    1.0000 </r>
       <r>    9.2934    1.0000 </r>
       <r>    9.3743    1.0000 </r>
       <r>   10.3545    0.0000 </r>
       <r>   10.3545    0.0000 </r>
       <r>   10.4734    0.0000 </r>
       <r>   10.4734    0.0000 </r>
       <r>   10.5229    0.0000 </r>
       <r>   10.5526    0.0000 </r>
       <r>   10.8720    0.0000 </r>
       <r>   11.2329    0.0000 </r>
       <r>   11.5925    0.0000 </r>
       <r>   11.7658    0.0000 </r>
       <r>   11.9545    0.0000 </r>
       <r>   12.1070    0.0000 </r>
       <r>   12.1593    0.0000 </r>
       <r>   12.1593    0.0000 </r>
       <r>   12.7572    0.0000 </r>
       <r>   13.0794    0.0000 </r>
       <r>   13.3350    0.0000 </r>
      </set>
      <set comment="kpoint 2">
       <r>  -52.8137    1.0000 </r>
       <r>  -52.7794    1.0000 </r>
       <r>  -52.6331    1.0000 </r>
       <r>  -52.6318    1.0000 </r>
       <r>  -52.4206    1.0000 </r>
       <r>  -52.4145    1.0000 </r>
       <r>  -52.1170    1.0000 </r>
       <r>  -52.1168    1.0000 </r>
       <r>  -27.1945    1.0000 </r>
       <r>  -27.1918    1.0000 </r>
       <r>  -27.0104    1.0000 </r>
       <r>  -27.0033    1.0000 </r>
       <r>  -26.4546    1.0000 </r>
       <r>  -26.4489    1.0000 </r>
       <r>  -26.2073    1.0000 </r>
       <r>  -26.1988    1.0000 </r>
       <r>  -26.1667    1.0000 </r>
       <r>  -25.9797    1.0000 </r>
       <r>  -25.9555    1.0000 </r>
       <r>  -25.8805    1.0000 </r>
       <r>  -25.8714    1.0000 </r>
       <r>  -25.8379    1.0000 </r>
       <r>  -25.8245    1.0000 </r>
       <r>  -25.8222    1.0000 </r>
       <r>  -25.6539    1.0000 </r>
       <r>  -25.6520    1.0000 </r>
       <r>  -25.6391    1.0000 </r>
       <r>  -25.6009    1.0000 </r>
       <r>  -24.9951    1.0000 </r>
       <r>  -24.9818    1.0000 </r>
       <r>  -24.4684    1.0000 </r>
       <r>  -24.4683    1.0000 </r>
       <r>   -1.5731    1.0000 </r>
       <r>    0.3403    1.0000 </r>
       <r>    1.7950    1.0000 </r>
       <r>    4.2233    1.0000 </r>
       <r>    5.0020    1.0000 </r>
       <r>    5.0338    1.0000 </r>
       <r>    5.2314    1.0000 </r>
       <r>    5.5161    1.0000 </r>
       <r>    5.5299    1.0000 </r>
       <r>    5.8124    1.0000 </r>
       <r>    5.8567    1.0000 </r>
       <r>    6.3800    1.0000 </r>
       <r>    6.7444    1.0000 </r>
       <r>    6.8652    1.0000 </r>
       <r>    7.1054    1.0000 </r>
       <r>    7.1331    1.0000 </r>
       <r>    7.2302    1.0000 </r>
       <r>    7.4559    1.0000 </r>
       <r>    7.6975    1.0000 </r>
       <r>    7.9109    1.0000 </r>
       <r>    7.9681    1.0000 </r>
       <r>    8.1566    1.0000 </r>
       <r>    8.2497    1.0000 </r>
       <r>    8.3406    1.0000 </r>
       <r>    9.1796    1.0000 </r>
       <r>    9.2024    1.0000 </r>
       <r>    9.2707    1.0000 </r>
       <r>    9.4166    1.0000 </r>
       <r>    9.5294    1.0000 </r>
       <r>   10.0462    1.0000 </r>
       <r>   10.0915    1.0000 </r>
       <r>   10.3276    0.0000 </r>
       <r>   10.5754    0.0000 </r>
       <r>   10.6082    0.0000 </r>
       <r>   10.9966    0.0000 </r>
       <r>   11.0291    0.0000 </r>
       <r>   11.2039    0.0000 </r>
       <r>   11.3113    0.0000 </r>
       <r>   11.6128    0.0000 </r>
       <r>   11.6594    0.0000 </r>
       <r>   11.9534    0.0000 </r>
       <r>   12.4005    0.0000 </r>
       <r>   12.5847    0.0000 </r>
       <r>   12.9309    0.0000 </r>
       <r>   13.0702    0.0000 </r>
       <r>   13.1529    0.0000 </r>
      </set>
      <set comment="kpoint 3">
       <r>  -52.7898    1.0000 </r>
       <r>  -52.7618    1.0000 </r>
       <r>  -52.6473    1.0000 </r>
       <r>  -52.6427    1.0000 </r>
       <r>  -52.4458    1.0000 </r>
       <r>  -52.4407    1.0000 </r>
       <r>  -52.0994    1.0000 </r>
       <r>  -52.0990    1.0000 </r>
       <r>  -27.2507    1.0000 </r>
       <r>  -27.2489    1.0000 </r>
       <r>  -26.9523    1.0000 </r>
       <r>  -26.9481    1.0000 </r>
       <r>  -26.4932    1.0000 </r>
       <r>  -26.4808    1.0000 </r>
       <r>  -26.1983    1.0000 </r>
       <r>  -26.1780    1.0000 </r>
       <r>  -26.1509    1.0000 </r>
       <r>  -25.9856    1.0000 </r>
       <r>  -25.9716    1.0000 </r>
       <r>  -25.9178    1.0000 </r>
       <r>  -25.8869    1.0000 </r>
       <r>  -25.8589    1.0000 </r>
       <r>  -25.8351    1.0000 </r>
       <r>  -25.8328    1.0000 </r>
       <r>  -25.6196    1.0000 </r>
       <r>  -25.5928    1.0000 </r>
       <r>  -25.5312    1.0000 </r>
       <r>  -25.5257    1.0000 </r>
       <r>  -25.0283    1.0000 </r>
       <r>  -25.0168    1.0000 </r>
       <r>  -24.5032    1.0000 </r>
       <r>  -24.5030    1.0000 </r>
       <r>   -1.2933    1.0000 </r>
       <r>    0.0570    1.0000 </r>
       <r>    1.9448    1.0000 </r>
       <r>    3.5582    1.0000 </r>
       <r>    4.9913    1.0000 </r>
       <r>    5.0585    1.0000 </r>
       <r>    5.1573    1.0000 </r>
       <r>    5.5206    1.0000 </r>
       <r>    5.7727    1.0000 </r>
       <r>    6.0336    1.0000 </r>
       <r>    6.2231    1.0000 </r>
       <r>    6.2709    1.0000 </r>
       <r>    6.3324    1.0000 </r>
       <r>    6.7015    1.0000 </r>
       <r>    7.0696    1.0000 </r>
       <r>    7.0979    1.0000 </r>
       <r>    7.1882    1.0000 </r>
       <r>    7.2186    1.0000 </r>
       <r>    7.6916    1.0000 </r>
       <r>    8.0005    1.0000 </r>
       <r>    8.0623    1.0000 </r>
       <r>    8.1427    1.0000 </r>
       <r>    8.3456    1.0000 </r>
       <r>    8.7642    1.0000 </r>
       <r>    9.0358    1.0000 </r>
       <r>    9.0698    1.0000 </r>
       <r>    9.5397    1.0000 </r>
       <r>    9.5943    1.0000 </r>
       <r>    9.6887    1.0000 </r>
       <r>    9.9861    1.0000 </r>
       <r>   10.2686    0.0165 </r>
       <r>   10.3600    0.0000 </r>
       <r>   10.3807    0.0000 </r>
       <r>   10.6137    0.0000 </r>
       <r>   10.7310    0.0000 </r>
       <r>   11.0695    0.0000 </r>
       <r>   11.3862    0.0000 </r>
       <r>   11.4081    0.0000 </r>
       <r>   11.7605    0.0000 </r>
       <r>   11.7973    0.0000 </r>
       <r>   12.1398    0.0000 </r>
       <r>   12.4263    0.0000 </r>
       <r>   12.4461    0.0000 </r>
       <r>   12.8938    0.0000 </r>
       <r>   12.9919    0.0000 </r>
       <r>   13.1921    0.0000 </r>
      </set>
      <set comment="kpoint 4">
       <r>  -52.7599    1.0000 </r>
       <r>  -52.7469    1.0000 </r>
       <r>  -52.6635    1.0000 </r>
       <r>  -52.6590    1.0000 </r>
       <r>  -52.4630    1.0000 </r>
       <r>  -52.4609    1.0000 </r>
       <r>  -52.0867    1.0000 </r>
       <r>  -52.0865    1.0000 </r>
       <r>  -27.2858    1.0000 </r>
       <r>  -27.2848    1.0000 </r>
       <r>  -26.9111    1.0000 </r>
       <r>  -26.9072    1.0000 </r>
       <r>  -26.5257    1.0000 </r>
       <r>  -26.5187    1.0000 </r>
       <r>  -26.1831    1.0000 </r>
       <r>  -26.1746    1.0000 </r>
       <r>  -26.0991    1.0000 </r>
       <r>  -26.0374    1.0000 </r>
       <r>  -25.9610    1.0000 </r>
       <r>  -25.9439    1.0000 </r>
       <r>  -25.8882    1.0000 </r>
       <r>  -25.8798    1.0000 </r>
       <r>  -25.8392    1.0000 </r>
       <r>  -25.8362    1.0000 </r>
       <r>  -25.6009    1.0000 </r>
       <r>  -25.5911    1.0000 </r>
       <r>  -25.4271    1.0000 </r>
       <r>  -25.4231    1.0000 </r>
       <r>  -25.0685    1.0000 </r>
       <r>  -25.0628    1.0000 </r>
       <r>  -24.5319    1.0000 </r>
       <r>  -24.5318    1.0000 </r>
       <r>   -0.8743    1.0000 </r>
       <r>   -0.3884    1.0000 </r>
       <r>    2.3143    1.0000 </r>
       <r>    2.8775    1.0000 </r>
       <r>    4.9616    1.0000 </r>
       <r>    5.0257    1.0000 </r>
       <r>    5.2517    1.0000 </r>
       <r>    5.3711    1.0000 </r>
       <r>    6.0039    1.0000 </r>
       <r>    6.1152    1.0000 </r>
       <r>    6.2779    1.0000 </r>
       <r>    6.4107    1.0000 </r>
       <r>    6.4436    1.0000 </r>
       <r>    6.6270    1.0000 </r>
       <r>    6.8455    1.0000 </r>
       <r>    6.9159    1.0000 </r>
       <r>    6.9689    1.0000 </r>
       <r>    7.2156    1.0000 </r>
       <r>    7.8757    1.0000 </r>
       <r>    7.9190    1.0000 </r>
       <r>    8.1582    1.0000 </r>
       <r>    8.3535    1.0000 </r>
       <r>    8.5057    1.0000 </r>
       <r>    8.8425    1.0000 </r>
       <r>    8.8680    1.0000 </r>
       <r>    9.2979    1.0000 </r>
       <r>    9.3081    1.0000 </r>
       <r>    9.3986    1.0000 </r>
       <r>    9.6521    1.0000 </r>
       <r>    9.8978    1.0000 </r>
       <r>   10.1965    0.9985 </r>
       <r>   10.2524    0.1605 </r>
       <r>   10.6406    0.0000 </r>
       <r>   10.7363    0.0000 </r>
       <r>   11.1004    0.0000 </r>
       <r>   11.1169    0.0000 </r>
       <r>   11.4030    0.0000 </r>
       <r>   11.4849    0.0000 </r>
       <r>   11.9938    0.0000 </r>
       <r>   12.0100    0.0000 </r>
       <r>   12.3327    0.0000 </r>
       <r>   12.3562    0.0000 </r>
       <r>   12.5397    0.0000 </r>
       <r>   12.5524    0.0000 </r>
       <r>   12.7636    0.0000 </r>
       <r>   12.8796    0.0000 </r>
      </set>
      <set comment="kpoint 5">
       <r>  -52.7969    1.0000 </r>
       <r>  -52.7643    1.0000 </r>
       <r>  -52.6450    1.0000 </r>
       <r>  -52.6430    1.0000 </r>
       <r>  -52.4436    1.0000 </r>
       <r>  -52.4249    1.0000 </r>
       <r>  -52.1097    1.0000 </r>
       <r>  -52.0992    1.0000 </r>
       <r>  -27.2507    1.0000 </r>
       <r>  -27.2450    1.0000 </r>
       <r>  -26.9510    1.0000 </r>
       <r>  -26.8707    1.0000 </r>
       <r>  -26.6013    1.0000 </r>
       <r>  -26.4866    1.0000 </r>
       <r>  -26.1919    1.0000 </r>
       <r>  -26.1917    1.0000 </r>
       <r>  -26.1685    1.0000 </r>
       <r>  -25.9723    1.0000 </r>
       <r>  -25.9702    1.0000 </r>
       <r>  -25.8981    1.0000 </r>
       <r>  -25.8925    1.0000 </r>
       <r>  -25.8496    1.0000 </r>
       <r>  -25.8373    1.0000 </r>
       <r>  -25.8268    1.0000 </r>
       <r>  -25.6266    1.0000 </r>
       <r>  -25.5942    1.0000 </r>
       <r>  -25.5283    1.0000 </r>
       <r>  -25.4824    1.0000 </r>
       <r>  -25.0740    1.0000 </r>
       <r>  -25.0218    1.0000 </r>
       <r>  -24.5030    1.0000 </r>
       <r>  -24.4748    1.0000 </r>
       <r>   -1.3995    1.0000 </r>
       <r>    0.1304    1.0000 </r>
       <r>    2.0534    1.0000 </r>
       <r>    3.5525    1.0000 </r>
       <r>    4.7689    1.0000 </r>
       <r>    5.1022    1.0000 </r>
       <r>    5.1212    1.0000 </r>
       <r>    5.6696    1.0000 </r>
       <r>    5.7014    1.0000 </r>
       <r>    5.9200    1.0000 </r>
       <r>    6.1671    1.0000 </r>
       <r>    6.2670    1.0000 </r>
       <r>    6.5481    1.0000 </r>
       <r>    6.8784    1.0000 </r>
       <r>    7.1418    1.0000 </r>
       <r>    7.1701    1.0000 </r>
       <r>    7.3157    1.0000 </r>
       <r>    7.4844    1.0000 </r>
       <r>    7.5755    1.0000 </r>
       <r>    7.7173    1.0000 </r>
       <r>    7.9495    1.0000 </r>
       <r>    8.1321    1.0000 </r>
       <r>    8.3329    1.0000 </r>
       <r>    8.5391    1.0000 </r>
       <r>    8.9733    1.0000 </r>
       <r>    9.0840    1.0000 </r>
       <r>    9.5255    1.0000 </r>
       <r>    9.6867    1.0000 </r>
       <r>    9.7426    1.0000 </r>
       <r>    9.8057    1.0000 </r>
       <r>   10.2148    0.9522 </r>
       <r>   10.2879    0.0002 </r>
       <r>   10.6481    0.0000 </r>
       <r>   10.6563    0.0000 </r>
       <r>   10.7529    0.0000 </r>
       <r>   11.2340    0.0000 </r>
       <r>   11.3558    0.0000 </r>
       <r>   11.6484    0.0000 </r>
       <r>   11.6528    0.0000 </r>
       <r>   11.8598    0.0000 </r>
       <r>   11.9591    0.0000 </r>
       <r>   12.4111    0.0000 </r>
       <r>   12.7537    0.0000 </r>
       <r>   12.7854    0.0000 </r>
       <r>   13.0884    0.0000 </r>
       <r>   13.1736    0.0000 </r>
      </set>
      <set comment="kpoint 6">
       <r>  -52.7690    1.0000 </r>
       <r>  -52.7458    1.0000 </r>
       <r>  -52.6616    1.0000 </r>
       <r>  -52.6578    1.0000 </r>
       <r>  -52.4620    1.0000 </r>
       <r>  -52.4509    1.0000 </r>
       <r>  -52.0926    1.0000 </r>
       <r>  -52.0866    1.0000 </r>
       <r>  -27.2909    1.0000 </r>
       <r>  -27.2823    1.0000 </r>
       <r>  -26.9099    1.0000 </r>
       <r>  -26.8090    1.0000 </r>
       <r>  -26.6474    1.0000 </r>
       <r>  -26.5218    1.0000 </r>
       <r>  -26.1853    1.0000 </r>
       <r>  -26.1712    1.0000 </r>
       <r>  -26.1378    1.0000 </r>
       <r>  -26.0057    1.0000 </r>
       <r>  -25.9652    1.0000 </r>
       <r>  -25.9191    1.0000 </r>
       <r>  -25.8952    1.0000 </r>
       <r>  -25.8744    1.0000 </r>
       <r>  -25.8456    1.0000 </r>
       <r>  -25.8301    1.0000 </r>
       <r>  -25.6078    1.0000 </r>
       <r>  -25.5890    1.0000 </r>
       <r>  -25.4247    1.0000 </r>
       <r>  -25.3422    1.0000 </r>
       <r>  -25.1537    1.0000 </r>
       <r>  -25.0657    1.0000 </r>
       <r>  -24.5318    1.0000 </r>
       <r>  -24.5064    1.0000 </r>
       <r>   -1.0592    1.0000 </r>
       <r>   -0.1996    1.0000 </r>
       <r>    2.3998    1.0000 </r>
       <r>    2.8683    1.0000 </r>
       <r>    4.5693    1.0000 </r>
       <r>    4.9829    1.0000 </r>
       <r>    5.2437    1.0000 </r>
       <r>    5.6991    1.0000 </r>
       <r>    5.9300    1.0000 </r>
       <r>    6.1381    1.0000 </r>
       <r>    6.1876    1.0000 </r>
       <r>    6.3031    1.0000 </r>
       <r>    6.5872    1.0000 </r>
       <r>    6.7669    1.0000 </r>
       <r>    7.0364    1.0000 </r>
       <r>    7.0889    1.0000 </r>
       <r>    7.1558    1.0000 </r>
       <r>    7.3574    1.0000 </r>
       <r>    7.6701    1.0000 </r>
       <r>    7.8367    1.0000 </r>
       <r>    8.0478    1.0000 </r>
       <r>    8.0599    1.0000 </r>
       <r>    8.2389    1.0000 </r>
       <r>    8.9505    1.0000 </r>
       <r>    8.9818    1.0000 </r>
       <r>    9.1010    1.0000 </r>
       <r>    9.2289    1.0000 </r>
       <r>    9.6369    1.0000 </r>
       <r>    9.7849    1.0000 </r>
       <r>    9.9888    1.0000 </r>
       <r>   10.1000    1.0000 </r>
       <r>   10.3723    0.0000 </r>
       <r>   10.5302    0.0000 </r>
       <r>   10.6962    0.0000 </r>
       <r>   10.9957    0.0000 </r>
       <r>   11.2402    0.0000 </r>
       <r>   11.4729    0.0000 </r>
       <r>   11.6277    0.0000 </r>
       <r>   11.8749    0.0000 </r>
       <r>   11.9294    0.0000 </r>
       <r>   12.2549    0.0000 </r>
       <r>   12.3917    0.0000 </r>
       <r>   12.5001    0.0000 </r>
       <r>   12.8255    0.0000 </r>
       <r>   12.9139    0.0000 </r>
       <r>   13.1772    0.0000 </r>
      </set>
      <set comment="kpoint 7">
       <r>  -52.7533    1.0000 </r>
       <r>  -52.7405    1.0000 </r>
       <r>  -52.6688    1.0000 </r>
       <r>  -52.6603    1.0000 </r>
       <r>  -52.4754    1.0000 </r>
       <r>  -52.4619    1.0000 </r>
       <r>  -52.0866    1.0000 </r>
       <r>  -52.0795    1.0000 </r>
       <r>  -27.3076    1.0000 </r>
       <r>  -27.2847    1.0000 </r>
       <r>  -26.9083    1.0000 </r>
       <r>  -26.8959    1.0000 </r>
       <r>  -26.5224    1.0000 </r>
       <r>  -26.5180    1.0000 </r>
       <r>  -26.1860    1.0000 </r>
       <r>  -26.1574    1.0000 </r>
       <r>  -26.0812    1.0000 </r>
       <r>  -26.0582    1.0000 </r>
       <r>  -25.9589    1.0000 </r>
       <r>  -25.9412    1.0000 </r>
       <r>  -25.8922    1.0000 </r>
       <r>  -25.8886    1.0000 </r>
       <r>  -25.8446    1.0000 </r>
       <r>  -25.8350    1.0000 </r>
       <r>  -25.5956    1.0000 </r>
       <r>  -25.5903    1.0000 </r>
       <r>  -25.4266    1.0000 </r>
       <r>  -25.4006    1.0000 </r>
       <r>  -25.0799    1.0000 </r>
       <r>  -25.0651    1.0000 </r>
       <r>  -24.5436    1.0000 </r>
       <r>  -24.5319    1.0000 </r>
       <r>   -0.6129    1.0000 </r>
       <r>   -0.6013    1.0000 </r>
       <r>    2.2518    1.0000 </r>
       <r>    2.8950    1.0000 </r>
       <r>    4.5218    1.0000 </r>
       <r>    4.8885    1.0000 </r>
       <r>    5.4013    1.0000 </r>
       <r>    5.6923    1.0000 </r>
       <r>    5.9931    1.0000 </r>
       <r>    6.1123    1.0000 </r>
       <r>    6.3103    1.0000 </r>
       <r>    6.5140    1.0000 </r>
       <r>    6.5799    1.0000 </r>
       <r>    6.6601    1.0000 </r>
       <r>    6.8031    1.0000 </r>
       <r>    6.9783    1.0000 </r>
       <r>    7.0943    1.0000 </r>
       <r>    7.1631    1.0000 </r>
       <r>    7.6220    1.0000 </r>
       <r>    7.9975    1.0000 </r>
       <r>    8.1050    1.0000 </r>
       <r>    8.3331    1.0000 </r>
       <r>    8.5140    1.0000 </r>
       <r>    8.5718    1.0000 </r>
       <r>    9.0036    1.0000 </r>
       <r>    9.2066    1.0000 </r>
       <r>    9.4044    1.0000 </r>
       <r>    9.4571    1.0000 </r>
       <r>    9.5449    1.0000 </r>
       <r>    9.8103    1.0000 </r>
       <r>   10.1804    1.0000 </r>
       <r>   10.3449    0.0000 </r>
       <r>   10.6855    0.0000 </r>
       <r>   10.8143    0.0000 </r>
       <r>   11.0251    0.0000 </r>
       <r>   11.2300    0.0000 </r>
       <r>   11.2818    0.0000 </r>
       <r>   11.5247    0.0000 </r>
       <r>   11.9366    0.0000 </r>
       <r>   12.0554    0.0000 </r>
       <r>   12.2926    0.0000 </r>
       <r>   12.4107    0.0000 </r>
       <r>   12.4767    0.0000 </r>
       <r>   12.7095    0.0000 </r>
       <r>   12.8596    0.0000 </r>
       <r>   13.1896    0.0000 </r>
      </set>
      <set comment="kpoint 8">
       <r>  -52.7790    1.0000 </r>
       <r>  -52.7455    1.0000 </r>
       <r>  -52.6549    1.0000 </r>
       <r>  -52.6434    1.0000 </r>
       <r>  -52.4830    1.0000 </r>
       <r>  -52.4430    1.0000 </r>
       <r>  -52.0992    1.0000 </r>
       <r>  -52.0785    1.0000 </r>
       <r>  -27.2897    1.0000 </r>
       <r>  -27.2496    1.0000 </r>
       <r>  -26.9877    1.0000 </r>
       <r>  -26.9479    1.0000 </r>
       <r>  -26.4877    1.0000 </r>
       <r>  -26.3728    1.0000 </r>
       <r>  -26.1923    1.0000 </r>
       <r>  -26.1551    1.0000 </r>
       <r>  -26.1136    1.0000 </r>
       <r>  -26.0241    1.0000 </r>
       <r>  -25.9635    1.0000 </r>
       <r>  -25.9436    1.0000 </r>
       <r>  -25.8939    1.0000 </r>
       <r>  -25.8754    1.0000 </r>
       <r>  -25.8422    1.0000 </r>
       <r>  -25.8350    1.0000 </r>
       <r>  -25.6092    1.0000 </r>
       <r>  -25.5861    1.0000 </r>
       <r>  -25.5638    1.0000 </r>
       <r>  -25.5280    1.0000 </r>
       <r>  -25.0224    1.0000 </r>
       <r>  -24.9659    1.0000 </r>
       <r>  -24.5605    1.0000 </r>
       <r>  -24.5032    1.0000 </r>
       <r>   -1.0292    1.0000 </r>
       <r>   -0.1079    1.0000 </r>
       <r>    1.7783    1.0000 </r>
       <r>    3.5356    1.0000 </r>
       <r>    4.5478    1.0000 </r>
       <r>    5.0108    1.0000 </r>
       <r>    5.5278    1.0000 </r>
       <r>    5.6967    1.0000 </r>
       <r>    5.8731    1.0000 </r>
       <r>    6.0282    1.0000 </r>
       <r>    6.2837    1.0000 </r>
       <r>    6.3307    1.0000 </r>
       <r>    6.3770    1.0000 </r>
       <r>    6.6366    1.0000 </r>
       <r>    6.7040    1.0000 </r>
       <r>    6.9785    1.0000 </r>
       <r>    7.1376    1.0000 </r>
       <r>    7.2033    1.0000 </r>
       <r>    7.8760    1.0000 </r>
       <r>    7.9115    1.0000 </r>
       <r>    8.1533    1.0000 </r>
       <r>    8.3173    1.0000 </r>
       <r>    8.4843    1.0000 </r>
       <r>    8.7638    1.0000 </r>
       <r>    9.0309    1.0000 </r>
       <r>    9.1119    1.0000 </r>
       <r>    9.3702    1.0000 </r>
       <r>    9.4662    1.0000 </r>
       <r>    9.5192    1.0000 </r>
       <r>    9.8887    1.0000 </r>
       <r>   10.1719    1.0000 </r>
       <r>   10.3404    0.0000 </r>
       <r>   10.4260    0.0000 </r>
       <r>   10.6830    0.0000 </r>
       <r>   10.9135    0.0000 </r>
       <r>   11.2355    0.0000 </r>
       <r>   11.2973    0.0000 </r>
       <r>   11.4117    0.0000 </r>
       <r>   11.8541    0.0000 </r>
       <r>   11.9289    0.0000 </r>
       <r>   12.1993    0.0000 </r>
       <r>   12.3468    0.0000 </r>
       <r>   12.4494    0.0000 </r>
       <r>   12.6820    0.0000 </r>
       <r>   12.9827    0.0000 </r>
       <r>   13.1787    0.0000 </r>
      </set>
      <set comment="kpoint 9">
       <r>  -52.8034    1.0000 </r>
       <r>  -52.7661    1.0000 </r>
       <r>  -52.6353    1.0000 </r>
       <r>  -52.6313    1.0000 </r>
       <r>  -52.4665    1.0000 </r>
       <r>  -52.4172    1.0000 </r>
       <r>  -52.1169    1.0000 </r>
       <r>  -52.0900    1.0000 </r>
       <r>  -27.2303    1.0000 </r>
       <r>  -27.1923    1.0000 </r>
       <r>  -27.0662    1.0000 </r>
       <r>  -27.0060    1.0000 </r>
       <r>  -26.4523    1.0000 </r>
       <r>  -26.2714    1.0000 </r>
       <r>  -26.2009    1.0000 </r>
       <r>  -26.1748    1.0000 </r>
       <r>  -26.1452    1.0000 </r>
       <r>  -25.9804    1.0000 </r>
       <r>  -25.9792    1.0000 </r>
       <r>  -25.9118    1.0000 </r>
       <r>  -25.8866    1.0000 </r>
       <r>  -25.8534    1.0000 </r>
       <r>  -25.8344    1.0000 </r>
       <r>  -25.8275    1.0000 </r>
       <r>  -25.7176    1.0000 </r>
       <r>  -25.6528    1.0000 </r>
       <r>  -25.6275    1.0000 </r>
       <r>  -25.5898    1.0000 </r>
       <r>  -24.9889    1.0000 </r>
       <r>  -24.9150    1.0000 </r>
       <r>  -24.5377    1.0000 </r>
       <r>  -24.4684    1.0000 </r>
       <r>   -1.3657    1.0000 </r>
       <r>    0.2868    1.0000 </r>
       <r>    1.5290    1.0000 </r>
       <r>    4.2380    1.0000 </r>
       <r>    4.7026    1.0000 </r>
       <r>    5.1623    1.0000 </r>
       <r>    5.4502    1.0000 </r>
       <r>    5.5912    1.0000 </r>
       <r>    5.6510    1.0000 </r>
       <r>    5.9286    1.0000 </r>
       <r>    5.9788    1.0000 </r>
       <r>    6.2240    1.0000 </r>
       <r>    6.3550    1.0000 </r>
       <r>    6.6505    1.0000 </r>
       <r>    6.7879    1.0000 </r>
       <r>    7.1994    1.0000 </r>
       <r>    7.2315    1.0000 </r>
       <r>    7.3278    1.0000 </r>
       <r>    7.7905    1.0000 </r>
       <r>    7.9053    1.0000 </r>
       <r>    7.9921    1.0000 </r>
       <r>    8.2135    1.0000 </r>
       <r>    8.5234    1.0000 </r>
       <r>    8.7169    1.0000 </r>
       <r>    8.9296    1.0000 </r>
       <r>    9.2457    1.0000 </r>
       <r>    9.4194    1.0000 </r>
       <r>    9.5798    1.0000 </r>
       <r>    9.7461    1.0000 </r>
       <r>    9.9429    1.0000 </r>
       <r>    9.9912    1.0000 </r>
       <r>   10.2263    0.8042 </r>
       <r>   10.4638    0.0000 </r>
       <r>   10.5957    0.0000 </r>
       <r>   10.6284    0.0000 </r>
       <r>   10.9743    0.0000 </r>
       <r>   11.2901    0.0000 </r>
       <r>   11.4662    0.0000 </r>
       <r>   11.5203    0.0000 </r>
       <r>   11.6869    0.0000 </r>
       <r>   12.0482    0.0000 </r>
       <r>   12.4406    0.0000 </r>
       <r>   12.6396    0.0000 </r>
       <r>   12.8808    0.0000 </r>
       <r>   12.9817    0.0000 </r>
       <r>   13.2083    0.0000 </r>
      </set>
      <set comment="kpoint 10">
       <r>  -52.8159    1.0000 </r>
       <r>  -52.7801    1.0000 </r>
       <r>  -52.6283    1.0000 </r>
       <r>  -52.6283    1.0000 </r>
       <r>  -52.4367    1.0000 </r>
       <r>  -52.4046    1.0000 </r>
       <r>  -52.1257    1.0000 </r>
       <r>  -52.1072    1.0000 </r>
       <r>  -27.1557    1.0000 </r>
       <r>  -27.1326    1.0000 </r>
       <r>  -27.1323    1.0000 </r>
       <r>  -27.0431    1.0000 </r>
       <r>  -26.4396    1.0000 </r>
       <r>  -26.3101    1.0000 </r>
       <r>  -26.2021    1.0000 </r>
       <r>  -26.1961    1.0000 </r>
       <r>  -26.1578    1.0000 </r>
       <r>  -25.9830    1.0000 </r>
       <r>  -25.9583    1.0000 </r>
       <r>  -25.8723    1.0000 </r>
       <r>  -25.8529    1.0000 </r>
       <r>  -25.8437    1.0000 </r>
       <r>  -25.8175    1.0000 </r>
       <r>  -25.8172    1.0000 </r>
       <r>  -25.7784    1.0000 </r>
       <r>  -25.7205    1.0000 </r>
       <r>  -25.6400    1.0000 </r>
       <r>  -25.5988    1.0000 </r>
       <r>  -24.9779    1.0000 </r>
       <r>  -24.9302    1.0000 </r>
       <r>  -24.4943    1.0000 </r>
       <r>  -24.4533    1.0000 </r>
       <r>   -1.5591    1.0000 </r>
       <r>    0.4232    1.0000 </r>
       <r>    1.5775    1.0000 </r>
       <r>    4.6859    1.0000 </r>
       <r>    4.8822    1.0000 </r>
       <r>    5.1521    1.0000 </r>
       <r>    5.2940    1.0000 </r>
       <r>    5.3885    1.0000 </r>
       <r>    5.5134    1.0000 </r>
       <r>    5.6964    1.0000 </r>
       <r>    5.8362    1.0000 </r>
       <r>    6.4195    1.0000 </r>
       <r>    6.6143    1.0000 </r>
       <r>    6.7509    1.0000 </r>
       <r>    6.8380    1.0000 </r>
       <r>    7.1543    1.0000 </r>
       <r>    7.3943    1.0000 </r>
       <r>    7.6188    1.0000 </r>
       <r>    7.6736    1.0000 </r>
       <r>    7.7076    1.0000 </r>
       <r>    7.9697    1.0000 </r>
       <r>    8.0679    1.0000 </r>
       <r>    8.3954    1.0000 </r>
       <r>    8.7524    1.0000 </r>
       <r>    8.8246    1.0000 </r>
       <r>    9.2757    1.0000 </r>
       <r>    9.3151    1.0000 </r>
       <r>    9.6054    1.0000 </r>
       <r>    9.6104    1.0000 </r>
       <r>    9.8042    1.0000 </r>
       <r>   10.1767    1.0000 </r>
       <r>   10.3293    0.0000 </r>
       <r>   10.5258    0.0000 </r>
       <r>   10.5968    0.0000 </r>
       <r>   10.6706    0.0000 </r>
       <r>   11.0647    0.0000 </r>
       <r>   11.1114    0.0000 </r>
       <r>   11.2289    0.0000 </r>
       <r>   11.3701    0.0000 </r>
       <r>   11.8650    0.0000 </r>
       <r>   11.9732    0.0000 </r>
       <r>   12.2071    0.0000 </r>
       <r>   12.7334    0.0000 </r>
       <r>   13.0292    0.0000 </r>
       <r>   13.0512    0.0000 </r>
       <r>   13.1034    0.0000 </r>
      </set>
      <set comment="kpoint 11">
       <r>  -52.7535    1.0000 </r>
       <r>  -52.7328    1.0000 </r>
       <r>  -52.6731    1.0000 </r>
       <r>  -52.6607    1.0000 </r>
       <r>  -52.4813    1.0000 </r>
       <r>  -52.4619    1.0000 </r>
       <r>  -52.0866    1.0000 </r>
       <r>  -52.0765    1.0000 </r>
       <r>  -27.3238    1.0000 </r>
       <r>  -27.2845    1.0000 </r>
       <r>  -26.9077    1.0000 </r>
       <r>  -26.8538    1.0000 </r>
       <r>  -26.5596    1.0000 </r>
       <r>  -26.5223    1.0000 </r>
       <r>  -26.1873    1.0000 </r>
       <r>  -26.1353    1.0000 </r>
       <r>  -26.1147    1.0000 </r>
       <r>  -26.0374    1.0000 </r>
       <r>  -25.9670    1.0000 </r>
       <r>  -25.9174    1.0000 </r>
       <r>  -25.9049    1.0000 </r>
       <r>  -25.8920    1.0000 </r>
       <r>  -25.8491    1.0000 </r>
       <r>  -25.8342    1.0000 </r>
       <r>  -25.5962    1.0000 </r>
       <r>  -25.5870    1.0000 </r>
       <r>  -25.4263    1.0000 </r>
       <r>  -25.3355    1.0000 </r>
       <r>  -25.1407    1.0000 </r>
       <r>  -25.0651    1.0000 </r>
       <r>  -24.5405    1.0000 </r>
       <r>  -24.5319    1.0000 </r>
       <r>   -0.6894    1.0000 </r>
       <r>   -0.4819    1.0000 </r>
       <r>    2.2312    1.0000 </r>
       <r>    2.9166    1.0000 </r>
       <r>    4.2097    1.0000 </r>
       <r>    4.8130    1.0000 </r>
       <r>    5.4659    1.0000 </r>
       <r>    5.8580    1.0000 </r>
       <r>    5.9444    1.0000 </r>
       <r>    6.1540    1.0000 </r>
       <r>    6.2172    1.0000 </r>
       <r>    6.5709    1.0000 </r>
       <r>    6.8058    1.0000 </r>
       <r>    6.8462    1.0000 </r>
       <r>    6.9037    1.0000 </r>
       <r>    7.0997    1.0000 </r>
       <r>    7.1864    1.0000 </r>
       <r>    7.3051    1.0000 </r>
       <r>    7.3343    1.0000 </r>
       <r>    7.7053    1.0000 </r>
       <r>    8.0773    1.0000 </r>
       <r>    8.1975    1.0000 </r>
       <r>    8.2947    1.0000 </r>
       <r>    8.8198    1.0000 </r>
       <r>    8.8707    1.0000 </r>
       <r>    9.1302    1.0000 </r>
       <r>    9.2722    1.0000 </r>
       <r>    9.4090    1.0000 </r>
       <r>    9.7605    1.0000 </r>
       <r>   10.0439    1.0000 </r>
       <r>   10.1847    0.9999 </r>
       <r>   10.3617    0.0000 </r>
       <r>   10.5012    0.0000 </r>
       <r>   10.7877    0.0000 </r>
       <r>   10.9003    0.0000 </r>
       <r>   11.3556    0.0000 </r>
       <r>   11.4662    0.0000 </r>
       <r>   11.6828    0.0000 </r>
       <r>   11.8124    0.0000 </r>
       <r>   11.8256    0.0000 </r>
       <r>   12.2246    0.0000 </r>
       <r>   12.5643    0.0000 </r>
       <r>   12.8182    0.0000 </r>
       <r>   12.8657    0.0000 </r>
       <r>   13.0394    0.0000 </r>
       <r>   13.2908    0.0000 </r>
      </set>
      <set comment="kpoint 12">
       <r>  -52.7760    1.0000 </r>
       <r>  -52.7111    1.0000 </r>
       <r>  -52.6746    1.0000 </r>
       <r>  -52.6441    1.0000 </r>
       <r>  -52.5143    1.0000 </r>
       <r>  -52.4431    1.0000 </r>
       <r>  -52.0992    1.0000 </r>
       <r>  -52.0639    1.0000 </r>
       <r>  -27.3387    1.0000 </r>
       <r>  -27.2495    1.0000 </r>
       <r>  -26.9555    1.0000 </r>
       <r>  -26.9463    1.0000 </r>
       <r>  -26.4878    1.0000 </r>
       <r>  -26.3700    1.0000 </r>
       <r>  -26.1864    1.0000 </r>
       <r>  -26.1220    1.0000 </r>
       <r>  -26.0806    1.0000 </r>
       <r>  -26.0675    1.0000 </r>
       <r>  -25.9719    1.0000 </r>
       <r>  -25.9299    1.0000 </r>
       <r>  -25.8996    1.0000 </r>
       <r>  -25.8946    1.0000 </r>
       <r>  -25.8450    1.0000 </r>
       <r>  -25.8392    1.0000 </r>
       <r>  -25.6051    1.0000 </r>
       <r>  -25.5773    1.0000 </r>
       <r>  -25.5341    1.0000 </r>
       <r>  -25.5179    1.0000 </r>
       <r>  -25.0219    1.0000 </r>
       <r>  -24.9810    1.0000 </r>
       <r>  -24.5897    1.0000 </r>
       <r>  -24.5033    1.0000 </r>
       <r>   -0.7826    1.0000 </r>
       <r>   -0.2376    1.0000 </r>
       <r>    1.6889    1.0000 </r>
       <r>    3.5072    1.0000 </r>
       <r>    4.0386    1.0000 </r>
       <r>    4.8078    1.0000 </r>
       <r>    5.6940    1.0000 </r>
       <r>    5.8970    1.0000 </r>
       <r>    5.9565    1.0000 </r>
       <r>    6.1430    1.0000 </r>
       <r>    6.4420    1.0000 </r>
       <r>    6.5447    1.0000 </r>
       <r>    6.5825    1.0000 </r>
       <r>    6.6768    1.0000 </r>
       <r>    6.7544    1.0000 </r>
       <r>    6.9505    1.0000 </r>
       <r>    7.2249    1.0000 </r>
       <r>    7.2907    1.0000 </r>
       <r>    7.4685    1.0000 </r>
       <r>    7.6430    1.0000 </r>
       <r>    8.2326    1.0000 </r>
       <r>    8.3162    1.0000 </r>
       <r>    8.4617    1.0000 </r>
       <r>    8.5392    1.0000 </r>
       <r>    8.7605    1.0000 </r>
       <r>    9.0809    1.0000 </r>
       <r>    9.2684    1.0000 </r>
       <r>    9.3787    1.0000 </r>
       <r>    9.5883    1.0000 </r>
       <r>    9.9571    1.0000 </r>
       <r>   10.3106    0.0000 </r>
       <r>   10.3335    0.0000 </r>
       <r>   10.5428    0.0000 </r>
       <r>   10.7339    0.0000 </r>
       <r>   11.0097    0.0000 </r>
       <r>   11.2548    0.0000 </r>
       <r>   11.3842    0.0000 </r>
       <r>   11.6126    0.0000 </r>
       <r>   11.6537    0.0000 </r>
       <r>   11.9497    0.0000 </r>
       <r>   12.3815    0.0000 </r>
       <r>   12.5628    0.0000 </r>
       <r>   12.6520    0.0000 </r>
       <r>   12.8021    0.0000 </r>
       <r>   13.1151    0.0000 </r>
       <r>   13.2360    0.0000 </r>
      </set>
      <set comment="kpoint 13">
       <r>  -52.7978    1.0000 </r>
       <r>  -52.7294    1.0000 </r>
       <r>  -52.6420    1.0000 </r>
       <r>  -52.6317    1.0000 </r>
       <r>  -52.5286    1.0000 </r>
       <r>  -52.4173    1.0000 </r>
       <r>  -52.1169    1.0000 </r>
       <r>  -52.0627    1.0000 </r>
       <r>  -27.3208    1.0000 </r>
       <r>  -27.1913    1.0000 </r>
       <r>  -27.0330    1.0000 </r>
       <r>  -27.0046    1.0000 </r>
       <r>  -26.4528    1.0000 </r>
       <r>  -26.1927    1.0000 </r>
       <r>  -26.1720    1.0000 </r>
       <r>  -26.1370    1.0000 </r>
       <r>  -26.1088    1.0000 </r>
       <r>  -26.0226    1.0000 </r>
       <r>  -25.9597    1.0000 </r>
       <r>  -25.9539    1.0000 </r>
       <r>  -25.8958    1.0000 </r>
       <r>  -25.8788    1.0000 </r>
       <r>  -25.8377    1.0000 </r>
       <r>  -25.8330    1.0000 </r>
       <r>  -25.7278    1.0000 </r>
       <r>  -25.6520    1.0000 </r>
       <r>  -25.6206    1.0000 </r>
       <r>  -25.5741    1.0000 </r>
       <r>  -24.9888    1.0000 </r>
       <r>  -24.8616    1.0000 </r>
       <r>  -24.6261    1.0000 </r>
       <r>  -24.4686    1.0000 </r>
       <r>   -1.0672    1.0000 </r>
       <r>    0.2046    1.0000 </r>
       <r>    1.2964    1.0000 </r>
       <r>    4.0660    1.0000 </r>
       <r>    4.1508    1.0000 </r>
       <r>    5.0281    1.0000 </r>
       <r>    5.7068    1.0000 </r>
       <r>    5.8525    1.0000 </r>
       <r>    5.9611    1.0000 </r>
       <r>    6.0758    1.0000 </r>
       <r>    6.1395    1.0000 </r>
       <r>    6.3367    1.0000 </r>
       <r>    6.3761    1.0000 </r>
       <r>    6.4950    1.0000 </r>
       <r>    6.7401    1.0000 </r>
       <r>    7.0464    1.0000 </r>
       <r>    7.1663    1.0000 </r>
       <r>    7.4200    1.0000 </r>
       <r>    7.6246    1.0000 </r>
       <r>    7.8049    1.0000 </r>
       <r>    8.1000    1.0000 </r>
       <r>    8.2101    1.0000 </r>
       <r>    8.3930    1.0000 </r>
       <r>    8.7282    1.0000 </r>
       <r>    8.8351    1.0000 </r>
       <r>    8.9856    1.0000 </r>
       <r>    9.2958    1.0000 </r>
       <r>    9.5783    1.0000 </r>
       <r>    9.6285    1.0000 </r>
       <r>    9.8975    1.0000 </r>
       <r>   10.1515    1.0000 </r>
       <r>   10.2516    0.1752 </r>
       <r>   10.3688    0.0000 </r>
       <r>   10.6899    0.0000 </r>
       <r>   11.1221    0.0000 </r>
       <r>   11.1881    0.0000 </r>
       <r>   11.2787    0.0000 </r>
       <r>   11.4767    0.0000 </r>
       <r>   11.7078    0.0000 </r>
       <r>   11.9508    0.0000 </r>
       <r>   12.3011    0.0000 </r>
       <r>   12.4760    0.0000 </r>
       <r>   12.6030    0.0000 </r>
       <r>   12.8591    0.0000 </r>
       <r>   13.0861    0.0000 </r>
       <r>   13.2498    0.0000 </r>
      </set>
      <set comment="kpoint 14">
       <r>  -52.8075    1.0000 </r>
       <r>  -52.7526    1.0000 </r>
       <r>  -52.6283    1.0000 </r>
       <r>  -52.6283    1.0000 </r>
       <r>  -52.5057    1.0000 </r>
       <r>  -52.4048    1.0000 </r>
       <r>  -52.1258    1.0000 </r>
[...]
       <r>   11.0143    0.0000 </r>
       <r>   11.1771    0.0000 </r>
       <r>   11.1890    0.0000 </r>
       <r>   11.5892    0.0000 </r>
       <r>   11.6664    0.0000 </r>
       <r>   11.7584    0.0000 </r>
       <r>   11.9552    0.0000 </r>
       <r>   12.3695    0.0000 </r>
       <r>   12.5201    0.0000 </r>
       <r>   12.6847    0.0000 </r>
       <r>   13.0686    0.0000 </r>
       <r>   13.1566    0.0000 </r>
      </set>
      <set comment="kpoint 116">
       <r>  -52.7091    1.0000 </r>
       <r>  -52.6981    1.0000 </r>
       <r>  -52.6410    1.0000 </r>
       <r>  -52.6156    1.0000 </r>
       <r>  -52.5885    1.0000 </r>
       <r>  -52.5734    1.0000 </r>
       <r>  -52.0516    1.0000 </r>
       <r>  -52.0486    1.0000 </r>
       <r>  -27.3801    1.0000 </r>
       <r>  -27.3368    1.0000 </r>
       <r>  -27.0357    1.0000 </r>
       <r>  -27.0285    1.0000 </r>
       <r>  -26.2374    1.0000 </r>
       <r>  -26.0837    1.0000 </r>
       <r>  -26.0819    1.0000 </r>
       <r>  -26.0441    1.0000 </r>
       <r>  -26.0243    1.0000 </r>
       <r>  -26.0008    1.0000 </r>
       <r>  -25.9700    1.0000 </r>
       <r>  -25.9483    1.0000 </r>
       <r>  -25.9408    1.0000 </r>
       <r>  -25.9238    1.0000 </r>
       <r>  -25.8803    1.0000 </r>
       <r>  -25.8779    1.0000 </r>
       <r>  -25.8440    1.0000 </r>
       <r>  -25.7536    1.0000 </r>
       <r>  -25.5731    1.0000 </r>
       <r>  -25.5644    1.0000 </r>
       <r>  -24.7882    1.0000 </r>
       <r>  -24.7804    1.0000 </r>
       <r>  -24.7165    1.0000 </r>
       <r>  -24.6996    1.0000 </r>
       <r>   -0.3844    1.0000 </r>
       <r>    0.2662    1.0000 </r>
       <r>    0.2874    1.0000 </r>
       <r>    3.8004    1.0000 </r>
       <r>    4.1323    1.0000 </r>
       <r>    4.2323    1.0000 </r>
       <r>    5.4013    1.0000 </r>
       <r>    5.4426    1.0000 </r>
       <r>    5.5353    1.0000 </r>
       <r>    6.1825    1.0000 </r>
       <r>    6.5525    1.0000 </r>
       <r>    6.6831    1.0000 </r>
       <r>    6.7848    1.0000 </r>
       <r>    6.8534    1.0000 </r>
       <r>    7.0427    1.0000 </r>
       <r>    7.0893    1.0000 </r>
       <r>    7.5194    1.0000 </r>
       <r>    7.5840    1.0000 </r>
       <r>    7.6581    1.0000 </r>
       <r>    7.8414    1.0000 </r>
       <r>    7.9789    1.0000 </r>
       <r>    8.2075    1.0000 </r>
       <r>    8.6654    1.0000 </r>
       <r>    8.6823    1.0000 </r>
       <r>    8.9050    1.0000 </r>
       <r>    9.7488    1.0000 </r>
       <r>    9.9348    1.0000 </r>
       <r>    9.9599    1.0000 </r>
       <r>    9.9741    1.0000 </r>
       <r>   10.0257    1.0000 </r>
       <r>   10.1122    1.0000 </r>
       <r>   10.1953    0.9988 </r>
       <r>   10.4352    0.0000 </r>
       <r>   10.8037    0.0000 </r>
       <r>   10.8358    0.0000 </r>
       <r>   11.0984    0.0000 </r>
       <r>   11.1646    0.0000 </r>
       <r>   11.6097    0.0000 </r>
       <r>   11.6643    0.0000 </r>
       <r>   11.7101    0.0000 </r>
       <r>   11.9406    0.0000 </r>
       <r>   12.4377    0.0000 </r>
       <r>   12.4519    0.0000 </r>
       <r>   12.5847    0.0000 </r>
       <r>   12.7219    0.0000 </r>
       <r>   13.2591    0.0000 </r>
      </set>
     </set>
    </set>
   </array>
  </eigenvalues>
  <separator name="orbital magnetization" >
   <v name="MAGDIPOLOUT">      0.00000000      0.00000000      0.00000000</v>
  </separator>
  <dos>
   <i name="efermi">     10.23841004 </i>
   <total>
    <array>
     <dimension dim="1">gridpoints</dimension>
     <dimension dim="2">spin</dimension>
     <field>energy</field>
     <field>total</field>
     <field>integrated</field>
     <set>
      <set comment="spin 1">
       <r>   -56.1479     0.0000     0.0000 </r>
       <r>   -55.9040     0.0000     0.0000 </r>
       <r>   -55.6601     0.0000     0.0000 </r>
       <r>   -55.4163     0.0000     0.0000 </r>
       <r>   -55.1724     0.0000     0.0000 </r>
       <r>   -54.9285     0.0000     0.0000 </r>
       <r>   -54.6847     0.0000     0.0000 </r>
       <r>   -54.4408     0.0000     0.0000 </r>
       <r>   -54.1969     0.0000     0.0000 </r>
       <r>   -53.9531     0.0000     0.0000 </r>
       <r>   -53.7092     0.0000     0.0000 </r>
       <r>   -53.4653     0.0000     0.0000 </r>
       <r>   -53.2215     0.0000     0.0000 </r>
       <r>   -52.9776     0.0000     0.0000 </r>
       <r>   -52.7337    11.7021     2.8538 </r>
       <r>   -52.4899    14.0915     9.3344 </r>
       <r>   -52.2460     0.2929    12.0000 </r>
       <r>   -52.0021    16.4020    15.9999 </r>
       <r>   -51.7583     0.0000    16.0000 </r>
       <r>   -51.5144     0.0000    16.0000 </r>
       <r>   -51.2705     0.0000    16.0000 </r>
       <r>   -51.0267     0.0000    16.0000 </r>
       <r>   -50.7828     0.0000    16.0000 </r>
       <r>   -50.5389     0.0000    16.0000 </r>
       <r>   -50.2951     0.0000    16.0000 </r>
       <r>   -50.0512     0.0000    16.0000 </r>
       <r>   -49.8073     0.0000    16.0000 </r>
       <r>   -49.5635     0.0000    16.0000 </r>
       <r>   -49.3196     0.0000    16.0000 </r>
       <r>   -49.0757     0.0000    16.0000 </r>
       <r>   -48.8319     0.0000    16.0000 </r>
       <r>   -48.5880     0.0000    16.0000 </r>
       <r>   -48.3441     0.0000    16.0000 </r>
       <r>   -48.1003     0.0000    16.0000 </r>
       <r>   -47.8564     0.0000    16.0000 </r>
       <r>   -47.6125     0.0000    16.0000 </r>
       <r>   -47.3687     0.0000    16.0000 </r>
       <r>   -47.1248     0.0000    16.0000 </r>
       <r>   -46.8809     0.0000    16.0000 </r>
       <r>   -46.6371     0.0000    16.0000 </r>
       <r>   -46.3932     0.0000    16.0000 </r>
       <r>   -46.1493     0.0000    16.0000 </r>
       <r>   -45.9054     0.0000    16.0000 </r>
       <r>   -45.6616     0.0000    16.0000 </r>
       <r>   -45.4177     0.0000    16.0000 </r>
       <r>   -45.1738     0.0000    16.0000 </r>
       <r>   -44.9300     0.0000    16.0000 </r>
       <r>   -44.6861     0.0000    16.0000 </r>
       <r>   -44.4422     0.0000    16.0000 </r>
       <r>   -44.1984     0.0000    16.0000 </r>
       <r>   -43.9545     0.0000    16.0000 </r>
       <r>   -43.7106     0.0000    16.0000 </r>
       <r>   -43.4668     0.0000    16.0000 </r>
       <r>   -43.2229     0.0000    16.0000 </r>
       <r>   -42.9790     0.0000    16.0000 </r>
       <r>   -42.7352     0.0000    16.0000 </r>
       <r>   -42.4913     0.0000    16.0000 </r>
       <r>   -42.2474     0.0000    16.0000 </r>
       <r>   -42.0036     0.0000    16.0000 </r>
       <r>   -41.7597     0.0000    16.0000 </r>
       <r>   -41.5158     0.0000    16.0000 </r>
       <r>   -41.2720     0.0000    16.0000 </r>
       <r>   -41.0281     0.0000    16.0000 </r>
       <r>   -40.7842     0.0000    16.0000 </r>
       <r>   -40.5404     0.0000    16.0000 </r>
       <r>   -40.2965     0.0000    16.0000 </r>
       <r>   -40.0526     0.0000    16.0000 </r>
       <r>   -39.8088     0.0000    16.0000 </r>
       <r>   -39.5649     0.0000    16.0000 </r>
       <r>   -39.3210     0.0000    16.0000 </r>
       <r>   -39.0772     0.0000    16.0000 </r>
       <r>   -38.8333     0.0000    16.0000 </r>
       <r>   -38.5894     0.0000    16.0000 </r>
       <r>   -38.3456     0.0000    16.0000 </r>
       <r>   -38.1017     0.0000    16.0000 </r>
       <r>   -37.8578     0.0000    16.0000 </r>
       <r>   -37.6140     0.0000    16.0000 </r>
       <r>   -37.3701     0.0000    16.0000 </r>
       <r>   -37.1262     0.0000    16.0000 </r>
       <r>   -36.8823     0.0000    16.0000 </r>
       <r>   -36.6385     0.0000    16.0000 </r>
       <r>   -36.3946     0.0000    16.0000 </r>
       <r>   -36.1507     0.0000    16.0000 </r>
       <r>   -35.9069     0.0000    16.0000 </r>
       <r>   -35.6630     0.0000    16.0000 </r>
       <r>   -35.4191     0.0000    16.0000 </r>
       <r>   -35.1753     0.0000    16.0000 </r>
       <r>   -34.9314     0.0000    16.0000 </r>
       <r>   -34.6875     0.0000    16.0000 </r>
       <r>   -34.4437     0.0000    16.0000 </r>
       <r>   -34.1998     0.0000    16.0000 </r>
       <r>   -33.9559     0.0000    16.0000 </r>
       <r>   -33.7121     0.0000    16.0000 </r>
       <r>   -33.4682     0.0000    16.0000 </r>
       <r>   -33.2243     0.0000    16.0000 </r>
       <r>   -32.9805     0.0000    16.0000 </r>
       <r>   -32.7366     0.0000    16.0000 </r>
       <r>   -32.4927     0.0000    16.0000 </r>
       <r>   -32.2489     0.0000    16.0000 </r>
       <r>   -32.0050     0.0000    16.0000 </r>
       <r>   -31.7611     0.0000    16.0000 </r>
       <r>   -31.5173     0.0000    16.0000 </r>
       <r>   -31.2734     0.0000    16.0000 </r>
       <r>   -31.0295     0.0000    16.0000 </r>
       <r>   -30.7857     0.0000    16.0000 </r>
       <r>   -30.5418     0.0000    16.0000 </r>
       <r>   -30.2979     0.0000    16.0000 </r>
       <r>   -30.0541     0.0000    16.0000 </r>
       <r>   -29.8102     0.0000    16.0000 </r>
       <r>   -29.5663     0.0000    16.0000 </r>
       <r>   -29.3225     0.0000    16.0000 </r>
       <r>   -29.0786     0.0000    16.0000 </r>
       <r>   -28.8347     0.0000    16.0000 </r>
       <r>   -28.5909     0.0000    16.0000 </r>
       <r>   -28.3470     0.0000    16.0000 </r>
       <r>   -28.1031     0.0000    16.0000 </r>
       <r>   -27.8593     0.0000    16.0000 </r>
       <r>   -27.6154     0.0000    16.0000 </r>
       <r>   -27.3715     0.3227    16.0787 </r>
       <r>   -27.1276     8.6024    20.0111 </r>
       <r>   -26.8838    10.0584    23.2795 </r>
       <r>   -26.6399     1.0999    24.1968 </r>
       <r>   -26.3960     5.9059    26.0729 </r>
       <r>   -26.1522    15.6825    30.6663 </r>
       <r>   -25.9083    26.2805    40.2100 </r>
       <r>   -25.6644     6.1384    49.4561 </r>
       <r>   -25.4206     9.4726    55.1009 </r>
       <r>   -25.1767     0.7733    56.0457 </r>
       <r>   -24.9328     9.4439    58.8337 </r>
       <r>   -24.6890     1.5404    60.1052 </r>
       <r>   -24.4451    13.5739    63.9582 </r>
       <r>   -24.2012     0.0000    64.0000 </r>
       <r>   -23.9574     0.0000    64.0000 </r>
       <r>   -23.7135     0.0000    64.0000 </r>
       <r>   -23.4696     0.0000    64.0000 </r>
       <r>   -23.2258     0.0000    64.0000 </r>
       <r>   -22.9819     0.0000    64.0000 </r>
       <r>   -22.7380     0.0000    64.0000 </r>
       <r>   -22.4942     0.0000    64.0000 </r>
       <r>   -22.2503     0.0000    64.0000 </r>
       <r>   -22.0064     0.0000    64.0000 </r>
       <r>   -21.7626     0.0000    64.0000 </r>
       <r>   -21.5187     0.0000    64.0000 </r>
       <r>   -21.2748     0.0000    64.0000 </r>
       <r>   -21.0310     0.0000    64.0000 </r>
       <r>   -20.7871     0.0000    64.0000 </r>
       <r>   -20.5432     0.0000    64.0000 </r>
       <r>   -20.2994     0.0000    64.0000 </r>
       <r>   -20.0555     0.0000    64.0000 </r>
       <r>   -19.8116     0.0000    64.0000 </r>
       <r>   -19.5678     0.0000    64.0000 </r>
       <r>   -19.3239     0.0000    64.0000 </r>
       <r>   -19.0800     0.0000    64.0000 </r>
       <r>   -18.8362     0.0000    64.0000 </r>
       <r>   -18.5923     0.0000    64.0000 </r>
       <r>   -18.3484     0.0000    64.0000 </r>
       <r>   -18.1045     0.0000    64.0000 </r>
       <r>   -17.8607     0.0000    64.0000 </r>
       <r>   -17.6168     0.0000    64.0000 </r>
       <r>   -17.3729     0.0000    64.0000 </r>
       <r>   -17.1291     0.0000    64.0000 </r>
       <r>   -16.8852     0.0000    64.0000 </r>
       <r>   -16.6413     0.0000    64.0000 </r>
       <r>   -16.3975     0.0000    64.0000 </r>
       <r>   -16.1536     0.0000    64.0000 </r>
       <r>   -15.9097     0.0000    64.0000 </r>
       <r>   -15.6659     0.0000    64.0000 </r>
       <r>   -15.4220     0.0000    64.0000 </r>
       <r>   -15.1781     0.0000    64.0000 </r>
       <r>   -14.9343     0.0000    64.0000 </r>
       <r>   -14.6904     0.0000    64.0000 </r>
       <r>   -14.4465     0.0000    64.0000 </r>
       <r>   -14.2027     0.0000    64.0000 </r>
       <r>   -13.9588     0.0000    64.0000 </r>
       <r>   -13.7149     0.0000    64.0000 </r>
       <r>   -13.4711     0.0000    64.0000 </r>
       <r>   -13.2272     0.0000    64.0000 </r>
       <r>   -12.9833     0.0000    64.0000 </r>
       <r>   -12.7395     0.0000    64.0000 </r>
       <r>   -12.4956     0.0000    64.0000 </r>
       <r>   -12.2517     0.0000    64.0000 </r>
       <r>   -12.0079     0.0000    64.0000 </r>
       <r>   -11.7640     0.0000    64.0000 </r>
       <r>   -11.5201     0.0000    64.0000 </r>
       <r>   -11.2763     0.0000    64.0000 </r>
       <r>   -11.0324     0.0000    64.0000 </r>
       <r>   -10.7885     0.0000    64.0000 </r>
       <r>   -10.5447     0.0000    64.0000 </r>
       <r>   -10.3008     0.0000    64.0000 </r>
       <r>   -10.0569     0.0000    64.0000 </r>
       <r>    -9.8131     0.0000    64.0000 </r>
       <r>    -9.5692     0.0000    64.0000 </r>
       <r>    -9.3253     0.0000    64.0000 </r>
       <r>    -9.0815     0.0000    64.0000 </r>
       <r>    -8.8376     0.0000    64.0000 </r>
       <r>    -8.5937     0.0000    64.0000 </r>
       <r>    -8.3498     0.0000    64.0000 </r>
       <r>    -8.1060     0.0000    64.0000 </r>
       <r>    -7.8621     0.0000    64.0000 </r>
       <r>    -7.6182     0.0000    64.0000 </r>
       <r>    -7.3744     0.0000    64.0000 </r>
       <r>    -7.1305     0.0000    64.0000 </r>
       <r>    -6.8866     0.0000    64.0000 </r>
       <r>    -6.6428     0.0000    64.0000 </r>
       <r>    -6.3989     0.0000    64.0000 </r>
       <r>    -6.1550     0.0000    64.0000 </r>
       <r>    -5.9112     0.0000    64.0000 </r>
       <r>    -5.6673     0.0000    64.0000 </r>
       <r>    -5.4234     0.0000    64.0000 </r>
       <r>    -5.1796     0.0000    64.0000 </r>
       <r>    -4.9357     0.0000    64.0000 </r>
       <r>    -4.6918     0.0000    64.0000 </r>
       <r>    -4.4480     0.0000    64.0000 </r>
       <r>    -4.2041     0.0000    64.0000 </r>
       <r>    -3.9602     0.0000    64.0000 </r>
       <r>    -3.7164     0.0000    64.0000 </r>
       <r>    -3.4725     0.0000    64.0000 </r>
       <r>    -3.2286     0.0000    64.0000 </r>
       <r>    -2.9848     0.0000    64.0000 </r>
       <r>    -2.7409     0.0000    64.0000 </r>
       <r>    -2.4970     0.0000    64.0000 </r>
       <r>    -2.2532     0.0000    64.0000 </r>
       <r>    -2.0093     0.0000    64.0000 </r>
       <r>    -1.7654     0.0000    64.0000 </r>
       <r>    -1.5216     0.2774    64.0676 </r>
       <r>    -1.2777     0.7119    64.2808 </r>
       <r>    -1.0338     1.1060    64.6830 </r>
       <r>    -0.7900     1.8290    65.2930 </r>
       <r>    -0.5461     1.7861    65.9254 </r>
       <r>    -0.3022     1.3626    66.5160 </r>
       <r>    -0.0584     1.4503    67.0374 </r>
       <r>     0.1855     1.2010    67.4562 </r>
       <r>     0.4294     1.6575    68.0062 </r>
       <r>     0.6733     0.1674    68.0816 </r>
       <r>     0.9171     0.5641    68.2192 </r>
       <r>     1.1610     0.6572    68.4511 </r>
       <r>     1.4049     0.5457    68.6892 </r>
       <r>     1.6487     0.9509    68.9819 </r>
       <r>     1.8926     0.8472    69.3240 </r>
       <r>     2.1365     0.3571    69.4442 </r>
       <r>     2.3803     1.3607    69.8828 </r>
       <r>     2.6242     0.1674    70.0000 </r>
       <r>     2.8681     0.4438    70.1082 </r>
       <r>     3.1119     0.0837    70.5714 </r>
       <r>     3.3558     0.0527    70.5843 </r>
       <r>     3.5997     1.7524    71.1416 </r>
       <r>     3.8435     0.7297    71.3412 </r>
       <r>     4.0874     1.8260    71.9198 </r>
       <r>     4.3313     2.5673    72.8149 </r>
       <r>     4.5751     1.9807    73.5953 </r>
       <r>     4.8190     2.7221    74.5159 </r>
       <r>     5.0629     2.9251    75.4327 </r>
       <r>     5.3067     3.3503    76.6333 </r>
       <r>     5.5506     3.7169    77.9115 </r>
       <r>     5.7945     5.3819    79.7614 </r>
       <r>     6.0383     9.3429    82.8396 </r>
       <r>     6.2822     7.5091    85.5965 </r>
       <r>     6.5261     7.4495    88.4851 </r>
       <r>     6.7699     9.1520    91.6809 </r>
       <r>     7.0138     7.4202    94.6769 </r>
       <r>     7.2577     9.6735    97.9917 </r>
       <r>     7.5015     5.8344   100.2953 </r>
       <r>     7.7454     5.4702   102.1962 </r>
       <r>     7.9893     6.0319   104.2465 </r>
       <r>     8.2331     7.2799   106.8876 </r>
       <r>     8.4770     5.4649   109.0674 </r>
       <r>     8.7209     4.3572   110.9248 </r>
       <r>     8.9647     5.5240   113.0104 </r>
       <r>     9.2086     6.4142   115.4520 </r>
       <r>     9.4525     6.7836   117.9859 </r>
       <r>     9.6964     7.0593   120.5277 </r>
       <r>     9.9402     6.2145   122.8982 </r>
       <r>    10.1841     6.6270   125.2437 </r>
       <r>    10.4280     8.0115   128.3772 </r>
       <r>    10.6718     5.6004   130.5239 </r>
       <r>    10.9157     4.8845   132.5687 </r>
       <r>    11.1596     6.0379   134.8755 </r>
       <r>    11.4034     7.1455   137.6048 </r>
       <r>    11.6473     7.0771   140.2718 </r>
       <r>    11.8912     6.8279   142.6090 </r>
       <r>    12.1350     4.1736   144.7525 </r>
       <r>    12.3789     6.2055   146.7837 </r>
       <r>    12.6228     7.1304   149.6470 </r>
       <r>    12.8666     5.3469   151.6560 </r>
       <r>    13.1105     7.0332   153.9652 </r>
       <r>    13.3544     3.5052   155.5589 </r>
       <r>    13.5982     0.8377   155.9186 </r>
       <r>    13.8421     0.0418   156.0000 </r>
       <r>    14.0860     0.0000   156.0000 </r>
       <r>    14.3298     0.0000   156.0000 </r>
       <r>    14.5737     0.0000   156.0000 </r>
       <r>    14.8176     0.0000   156.0000 </r>
       <r>    15.0614     0.0000   156.0000 </r>
       <r>    15.3053     0.0000   156.0000 </r>
       <r>    15.5492     0.0000   156.0000 </r>
       <r>    15.7930     0.0000   156.0000 </r>
       <r>    16.0369     0.0000   156.0000 </r>
       <r>    16.2808     0.0000   156.0000 </r>
       <r>    16.5246     0.0000   156.0000 </r>
       <r>    16.7685     0.0000   156.0000 </r>
       <r>    17.0124     0.0000   156.0000 </r>
      </set>
     </set>
    </array>
   </total>
  </dos>
 </calculation>
 <structure name="finalpos" >
  <crystal>
   <varray name="basis" >
    <v>       5.61481323       0.00000000      -2.86002622 </v>
    <v>      -2.10905571       5.20365368      -2.86002622 </v>
    <v>       0.00000000       0.00000000       6.30126000 </v>
   </varray>
   <i name="volume">    184.10733839 </i>
   <varray name="rec_basis" >
    <v>       0.17810031       0.07218457       0.00000000 </v>
    <v>       0.00000000       0.19217267       0.00000000 </v>
    <v>       0.08083646       0.11998689       0.15869842 </v>
   </varray>
  </crystal>
  <varray name="positions" >
   <v>       0.25000000       0.25000000       0.00000000 </v>
   <v>       0.75000000       0.75000000       0.00000000 </v>
   <v>       0.50000000       0.50000000       0.50000000 </v>
   <v>       0.87971000       0.37971000       0.25942000 </v>
   <v>       0.12029000       0.62029000       0.74058000 </v>
   <v>       0.50000000       0.00000000       0.00000000 </v>
   <v>       0.37971000       0.12029000       0.50000000 </v>
   <v>       0.62029000       0.87971000       0.50000000 </v>
   <v>       0.00000000       0.00000000       0.50000000 </v>
   <v>       0.00000000       0.50000000       0.00000000 </v>
   <v>       0.50000000       0.50000000       0.00000000 </v>
   <v>       0.00000000       0.00000000       0.00000000 </v>
  </varray>
 </structure>
</modeling>
