 vasp.6.2.0 18Jan21 (build Jan 05 2022 15:41:44) complex                        
  
 executed on             LinuxIFC date 2025.05.07  21:31:00
 running on   24 total cores
 distrk:  each k-point on   12 cores,    2 groups
 distr:  one band on NCORE=   2 cores,    6 groups


--------------------------------------------------------------------------------------------------------


 INCAR:
   SYSTEM = routine with relax: pwdword
   ICHARG = 2
   NPAR = 6
   KPAR = 2
   NCORE = 2
   ADDGRID = T
   PREC = Acc
   ENCUT = 600
   METAGGA = R2SCAN
   LASPH = .TRUE.
   LMIXTAU = .FALSE.
   ALGO = A
   EDIFF = 1E-9
   NELM = 100
   NELMIN = 6
   IALGO = 38
   LREAL = F
   NSW = 0
   ISIF = -1
   ISMEAR = 0
   SIGMA = 0.02

 POTCAR:    PAW_PBE B 06Sep2000                   
 POTCAR:    PAW_PBE Si 05Jan2001                  
 -----------------------------------------------------------------------------
|                                                                             |
|           W    W    AA    RRRRR   N    N  II  N    N   GGGG   !!!           |
|           W    W   A  A   R    R  NN   N  II  NN   N  G    G  !!!           |
|           W    W  A    A  R    R  N N  N  II  N N  N  G       !!!           |
|           W WW W  AAAAAA  RRRRR   N  N N  II  N  N N  G  GGG   !            |
|           WW  WW  A    A  R   R   N   NN  II  N   NN  G    G                |
|           W    W  A    A  R    R  N    N  II  N    N   GGGG   !!!           |
|                                                                             |
|     For optimal performance we recommend to set                             |
|       NCORE = 2 up to number-of-cores-per-socket                            |
|     NCORE specifies how many cores store one orbital (NPAR=cpu/NCORE).      |
|     This setting can greatly improve the performance of VASP for DFT.       |
|     The default, NCORE=1 might be grossly inefficient on modern             |
|     multi-core architectures or massively parallel machines. Do your        |
|     own testing! More info at https://www.vasp.at/wiki/index.php/NCORE      |
|     Unfortunately you need to use the default for GW and RPA                |
|     calculations (for HF NCORE is supported but not extensively tested      |
|     yet).                                                                   |
|                                                                             |
 -----------------------------------------------------------------------------

 POTCAR:    PAW_PBE B 06Sep2000                   
   VRHFIN =B: s2p1                                                                                  
   LEXCH  = PE                                                                                      
   EATOM  =    71.1703 eV,    5.2309 Ry                                                             
                                                                                                    
   TITEL  = PAW_PBE B 06Sep2000                                                                     
   LULTRA =        F    use ultrasoft PP ?                                                          
   IUNSCR =        1    unscreen: 0-lin 1-nonlin 2-no                                               
   RPACOR =    1.200    partial core radius                                                         
   POMASS =   10.811; ZVAL   =    3.000    mass and valenz                                          
   RCORE  =    1.700    outmost cutoff radius                                                       
   RWIGS  =    1.710; RWIGS  =    0.905    wigner-seitz radius (au A)                               
   ENMAX  =  318.614; ENMIN  =  238.960 eV                                                          
   ICORE  =        2    local potential                                                             
   LCOR   =        T    correct aug charges                                                         
   LPAW   =        T    paw PP                                                                      
   EAUG   =  535.514                                                                                
   DEXC   =    0.000                                                                                
   RMAX   =    1.732    core radius for proj-oper                                                   
   RAUG   =    1.300    factor for augmentation sphere                                              
   RDEP   =    1.757    radius for radial grids                                                     
   RDEPT  =    1.436    core radius for aug-charge                                                  
                                                                                                    
   Atomic configuration                                                                             
    4 entries                                                                                       
     n  l   j            E        occ.                                                              
     1  0  0.50      -180.5896   2.0000                                                             
     2  0  0.50        -9.4431   2.0000                                                             
     2  1  0.50        -3.6068   1.0000                                                             
     3  2  1.50        -4.0817   0.0000                                                             
   Description                                                                                      
     l       E           TYP  RCUT    TYP  RCUT                                                     
     0     -9.4430752     23  1.500                                                                 
     0      0.8675899     23  1.500                                                                 
     1     -3.6067955     23  1.700                                                                 
     1      6.1086146     23  1.700                                                                 
     2     -4.0817478      7  1.700                                                                 
  local pseudopotential read in
  partial core-charges read in
  partial kinetic energy density read in
  atomic valenz-charges read in
  non local Contribution for L=           0  read in
    real space projection operators read in
  non local Contribution for L=           0  read in
    real space projection operators read in
  non local Contribution for L=           1  read in
    real space projection operators read in
  non local Contribution for L=           1  read in
    real space projection operators read in
    PAW grid and wavefunctions read in
 
   number of l-projection  operators is LMAX  =           4
   number of lm-projection operators is LMMAX =           8
 
 POTCAR:    PAW_PBE Si 05Jan2001                  
   VRHFIN =Si: s2p2                                                                                 
   LEXCH  = PE                                                                                      
   EATOM  =   103.0669 eV,    7.5752 Ry                                                             
                                                                                                    
   TITEL  = PAW_PBE Si 05Jan2001                                                                    
   LULTRA =        F    use ultrasoft PP ?                                                          
   IUNSCR =        1    unscreen: 0-lin 1-nonlin 2-no                                               
   RPACOR =    1.500    partial core radius                                                         
   POMASS =   28.085; ZVAL   =    4.000    mass and valenz                                          
   RCORE  =    1.900    outmost cutoff radius                                                       
   RWIGS  =    2.480; RWIGS  =    1.312    wigner-seitz radius (au A)                               
   ENMAX  =  245.345; ENMIN  =  184.009 eV                                                          
   ICORE  =        2    local potential                                                             
   LCOR   =        T    correct aug charges                                                         
   LPAW   =        T    paw PP                                                                      
   EAUG   =  322.069                                                                                
   DEXC   =    0.000                                                                                
   RMAX   =    1.950    core radius for proj-oper                                                   
   RAUG   =    1.300    factor for augmentation sphere                                              
   RDEP   =    1.993    radius for radial grids                                                     
   RDEPT  =    1.837    core radius for aug-charge                                                  
                                                                                                    
   Atomic configuration                                                                             
    6 entries                                                                                       
     n  l   j            E        occ.                                                              
     1  0  0.50     -1785.8828   2.0000                                                             
     2  0  0.50      -139.4969   2.0000                                                             
     2  1  1.50       -95.5546   6.0000                                                             
     3  0  0.50       -10.8127   2.0000                                                             
     3  1  0.50        -4.0811   2.0000                                                             
     3  2  1.50        -4.0817   0.0000                                                             
   Description                                                                                      
     l       E           TYP  RCUT    TYP  RCUT                                                     
     0    -10.8127223     23  1.900                                                                 
     0     -7.6451159     23  1.900                                                                 
     1     -4.0811372     23  1.900                                                                 
     1      2.4879257     23  1.900                                                                 
     2     -4.0817478      7  1.900                                                                 
  local pseudopotential read in
  partial core-charges read in
  partial kinetic energy density read in
  atomic valenz-charges read in
  non local Contribution for L=           0  read in
    real space projection operators read in
  non local Contribution for L=           0  read in
    real space projection operators read in
  non local Contribution for L=           1  read in
    real space projection operators read in
  non local Contribution for L=           1  read in
    real space projection operators read in
    PAW grid and wavefunctions read in
 
   number of l-projection  operators is LMAX  =           4
   number of lm-projection operators is LMMAX =           8
 
  PAW_PBE B 06Sep2000                   :
 energy of atom  1       EATOM=  -71.1703
 kinetic energy error for atom=    0.0007 (will be added to EATOM!!)
  PAW_PBE Si 05Jan2001                  :
 energy of atom  2       EATOM= -103.0669
 kinetic energy error for atom=    0.0003 (will be added to EATOM!!)
 
 
 POSCAR: EA263
  positions in direct lattice
  No initial velocities read in

 METAGGA = R2SCA    LMAXTAU =  6    LMIXTAU =  F

 exchange correlation table for  LEXCH =        8
   RHO(1)=    0.500       N(1)  =     2000
   RHO(2)=  100.500       N(2)  =     4000
 


--------------------------------------------------------------------------------------------------------


 ion  position               nearest neighbor table
   1  0.667  0.333  0.518-   3 1.99   4 2.06   4 2.06   4 2.06
   2  0.333  0.667  0.018-   4 1.99   3 2.06   3 2.06   3 2.06
   3  0.667  0.333  0.857-   1 1.99   2 2.06   2 2.06   2 2.06
   4  0.333  0.667  0.357-   2 1.99   1 2.06   1 2.06   1 2.06
 
  LATTYP: Found a hexagonal cell.
 ALAT       =     3.1751737008
 C/A-ratio  =     1.8458609047
  
  Lattice vectors:
  
 A1 = (   1.5875870000,  -2.7497810000,   0.0000000000)
 A2 = (   1.5875870000,   2.7497810000,   0.0000000000)
 A3 = (   0.0000000000,   0.0000000000,   5.8609290000)


Analysis of symmetry for initial positions (statically):
=====================================================================
 Subroutine PRICEL returns:
 Original cell was already a primitive cell.
 

 Routine SETGRP: Setting up the symmetry group for a 
 hexagonal supercell.


 Subroutine GETGRP returns: Found 12 space group operations
 (whereof  6 operations were pure point group operations)
 out of a pool of 24 trial point group operations.


The static configuration has the point symmetry C_3v.
 The point group associated with its full space group is C_6v.


Analysis of symmetry for dynamics (positions and initial velocities):
=====================================================================
 Subroutine PRICEL returns:
 Original cell was already a primitive cell.
 

 Routine SETGRP: Setting up the symmetry group for a 
 hexagonal supercell.


 Subroutine GETGRP returns: Found 12 space group operations
 (whereof  6 operations were pure point group operations)
 out of a pool of 24 trial point group operations.


The dynamic configuration has the point symmetry C_3v.
 The point group associated with its full space group is C_6v.


 Subroutine INISYM returns: Found 12 space group operations
 (whereof  6 operations are pure point group operations),
 and found     1 'primitive' translations


----------------------------------------------------------------------------------------

                                     Primitive cell                                     

  volume of cell :      51.1720

  direct lattice vectors                    reciprocal lattice vectors
     1.587587000 -2.749781000  0.000000000     0.314943370 -0.181832662  0.000000000
     1.587587000  2.749781000  0.000000000     0.314943370  0.181832662  0.000000000
     0.000000000  0.000000000  5.860929000     0.000000000  0.000000000  0.170621415

  length of vectors
     3.175173701  3.175173701  5.860929000     0.363665290  0.363665290  0.170621415

  position of ions in fractional coordinates (direct lattice)
     0.666667000  0.333333000  0.518094000
     0.333333000  0.666667000  0.018094000
     0.666667000  0.333333000  0.856905000
     0.333333000  0.666667000  0.356905000

  ion indices of the primitive-cell ions
   primitive index   ion index
                 1           1
                 2           2
                 3           3
                 4           4

----------------------------------------------------------------------------------------

 
 
 KPOINTS: EA                                      

Automatic generation of k-mesh.
 Grid dimensions read from file:
 generate k-points for:   13   13    6

 Generating k-lattice:

  Cartesian coordinates                     Fractional coordinates (reciprocal lattice)
     0.024226413 -0.013987128  0.000000000     0.076923077  0.000000000  0.000000000
     0.024226413  0.013987128  0.000000000     0.000000000  0.076923077  0.000000000
     0.000000000  0.000000000  0.028436903     0.000000000  0.000000000  0.166666667

  Length of vectors
     0.027974253  0.027974253  0.028436903

  Shift w.r.t. Gamma in fractional coordinates (k-lattice)
     0.000000000  0.000000000  0.000000000

 
 Subroutine IBZKPT returns following result:
 ===========================================
 
 Found     84 irreducible k-points:
 
 Following reciprocal coordinates:
            Coordinates               Weight
  0.000000  0.000000  0.000000      1.000000
  0.076923 -0.000000  0.000000      6.000000
  0.153846 -0.000000  0.000000      6.000000
  0.230769  0.000000  0.000000      6.000000
  0.307692 -0.000000  0.000000      6.000000
  0.384615 -0.000000  0.000000      6.000000
  0.461538 -0.000000  0.000000      6.000000
  0.076923  0.076923  0.000000      6.000000
  0.153846  0.076923  0.000000     12.000000
  0.230769  0.076923  0.000000     12.000000
  0.307692  0.076923  0.000000     12.000000
  0.384615  0.076923  0.000000     12.000000
  0.461538  0.076923  0.000000      6.000000
  0.153846  0.153846  0.000000      6.000000
  0.230769  0.153846  0.000000     12.000000
  0.307692  0.153846  0.000000     12.000000
  0.384615  0.153846  0.000000     12.000000
  0.230769  0.230769  0.000000      6.000000
  0.307692  0.230769  0.000000     12.000000
  0.384615  0.230769  0.000000      6.000000
  0.307692  0.307692  0.000000      6.000000
  0.000000  0.000000  0.166667      2.000000
  0.076923 -0.000000  0.166667     12.000000
  0.153846 -0.000000  0.166667     12.000000
  0.230769  0.000000  0.166667     12.000000
  0.307692 -0.000000  0.166667     12.000000
  0.384615 -0.000000  0.166667     12.000000
  0.461538 -0.000000  0.166667     12.000000
  0.076923  0.076923  0.166667     12.000000
  0.153846  0.076923  0.166667     24.000000
  0.230769  0.076923  0.166667     24.000000
  0.307692  0.076923  0.166667     24.000000
  0.384615  0.076923  0.166667     24.000000
  0.461538  0.076923  0.166667     12.000000
  0.153846  0.153846  0.166667     12.000000
  0.230769  0.153846  0.166667     24.000000
  0.307692  0.153846  0.166667     24.000000
  0.384615  0.153846  0.166667     24.000000
  0.230769  0.230769  0.166667     12.000000
  0.307692  0.230769  0.166667     24.000000
  0.384615  0.230769  0.166667     12.000000
  0.307692  0.307692  0.166667     12.000000
  0.000000  0.000000  0.333333      2.000000
  0.076923 -0.000000  0.333333     12.000000
  0.153846 -0.000000  0.333333     12.000000
  0.230769  0.000000  0.333333     12.000000
  0.307692 -0.000000  0.333333     12.000000
  0.384615 -0.000000  0.333333     12.000000
  0.461538 -0.000000  0.333333     12.000000
  0.076923  0.076923  0.333333     12.000000
  0.153846  0.076923  0.333333     24.000000
  0.230769  0.076923  0.333333     24.000000
  0.307692  0.076923  0.333333     24.000000
  0.384615  0.076923  0.333333     24.000000
  0.461538  0.076923  0.333333     12.000000
  0.153846  0.153846  0.333333     12.000000
  0.230769  0.153846  0.333333     24.000000
  0.307692  0.153846  0.333333     24.000000
  0.384615  0.153846  0.333333     24.000000
  0.230769  0.230769  0.333333     12.000000
  0.307692  0.230769  0.333333     24.000000
  0.384615  0.230769  0.333333     12.000000
  0.307692  0.307692  0.333333     12.000000
  0.000000  0.000000  0.500000      1.000000
  0.076923 -0.000000  0.500000      6.000000
  0.153846 -0.000000  0.500000      6.000000
  0.230769  0.000000  0.500000      6.000000
  0.307692 -0.000000  0.500000      6.000000
  0.384615 -0.000000  0.500000      6.000000
  0.461538 -0.000000  0.500000      6.000000
  0.076923  0.076923  0.500000      6.000000
  0.153846  0.076923  0.500000     12.000000
  0.230769  0.076923  0.500000     12.000000
  0.307692  0.076923  0.500000     12.000000
  0.384615  0.076923  0.500000     12.000000
  0.461538  0.076923  0.500000      6.000000
  0.153846  0.153846  0.500000      6.000000
  0.230769  0.153846  0.500000     12.000000
  0.307692  0.153846  0.500000     12.000000
  0.384615  0.153846  0.500000     12.000000
  0.230769  0.230769  0.500000      6.000000
  0.307692  0.230769  0.500000     12.000000
  0.384615  0.230769  0.500000      6.000000
  0.307692  0.307692  0.500000      6.000000
 
 Following cartesian coordinates:
            Coordinates               Weight
  0.000000  0.000000  0.000000      1.000000
  0.024226 -0.013987  0.000000      6.000000
  0.048453 -0.027974  0.000000      6.000000
  0.072679 -0.041961  0.000000      6.000000
  0.096906 -0.055949  0.000000      6.000000
  0.121132 -0.069936  0.000000      6.000000
  0.145358 -0.083923  0.000000      6.000000
  0.048453  0.000000  0.000000      6.000000
  0.072679 -0.013987  0.000000     12.000000
  0.096906 -0.027974  0.000000     12.000000
  0.121132 -0.041961  0.000000     12.000000
  0.145358 -0.055949  0.000000     12.000000
  0.169585 -0.069936  0.000000      6.000000
  0.096906  0.000000  0.000000      6.000000
  0.121132 -0.013987  0.000000     12.000000
  0.145358 -0.027974  0.000000     12.000000
  0.169585 -0.041961  0.000000     12.000000
  0.145358  0.000000  0.000000      6.000000
  0.169585 -0.013987  0.000000     12.000000
  0.193811 -0.027974  0.000000      6.000000
  0.193811  0.000000  0.000000      6.000000
  0.000000  0.000000  0.028437      2.000000
  0.024226 -0.013987  0.028437     12.000000
  0.048453 -0.027974  0.028437     12.000000
  0.072679 -0.041961  0.028437     12.000000
  0.096906 -0.055949  0.028437     12.000000
  0.121132 -0.069936  0.028437     12.000000
  0.145358 -0.083923  0.028437     12.000000
  0.048453  0.000000  0.028437     12.000000
  0.072679 -0.013987  0.028437     24.000000
  0.096906 -0.027974  0.028437     24.000000
  0.121132 -0.041961  0.028437     24.000000
  0.145358 -0.055949  0.028437     24.000000
  0.169585 -0.069936  0.028437     12.000000
  0.096906  0.000000  0.028437     12.000000
  0.121132 -0.013987  0.028437     24.000000
  0.145358 -0.027974  0.028437     24.000000
  0.169585 -0.041961  0.028437     24.000000
  0.145358  0.000000  0.028437     12.000000
  0.169585 -0.013987  0.028437     24.000000
  0.193811 -0.027974  0.028437     12.000000
  0.193811  0.000000  0.028437     12.000000
  0.000000  0.000000  0.056874      2.000000
  0.024226 -0.013987  0.056874     12.000000
  0.048453 -0.027974  0.056874     12.000000
  0.072679 -0.041961  0.056874     12.000000
  0.096906 -0.055949  0.056874     12.000000
  0.121132 -0.069936  0.056874     12.000000
  0.145358 -0.083923  0.056874     12.000000
  0.048453  0.000000  0.056874     12.000000
  0.072679 -0.013987  0.056874     24.000000
  0.096906 -0.027974  0.056874     24.000000
  0.121132 -0.041961  0.056874     24.000000
  0.145358 -0.055949  0.056874     24.000000
  0.169585 -0.069936  0.056874     12.000000
  0.096906  0.000000  0.056874     12.000000
  0.121132 -0.013987  0.056874     24.000000
  0.145358 -0.027974  0.056874     24.000000
  0.169585 -0.041961  0.056874     24.000000
  0.145358  0.000000  0.056874     12.000000
  0.169585 -0.013987  0.056874     24.000000
  0.193811 -0.027974  0.056874     12.000000
  0.193811  0.000000  0.056874     12.000000
  0.000000  0.000000  0.085311      1.000000
  0.024226 -0.013987  0.085311      6.000000
  0.048453 -0.027974  0.085311      6.000000
  0.072679 -0.041961  0.085311      6.000000
  0.096906 -0.055949  0.085311      6.000000
  0.121132 -0.069936  0.085311      6.000000
  0.145358 -0.083923  0.085311      6.000000
  0.048453  0.000000  0.085311      6.000000
  0.072679 -0.013987  0.085311     12.000000
  0.096906 -0.027974  0.085311     12.000000
  0.121132 -0.041961  0.085311     12.000000
  0.145358 -0.055949  0.085311     12.000000
  0.169585 -0.069936  0.085311      6.000000
  0.096906  0.000000  0.085311      6.000000
  0.121132 -0.013987  0.085311     12.000000
  0.145358 -0.027974  0.085311     12.000000
  0.169585 -0.041961  0.085311     12.000000
  0.145358  0.000000  0.085311      6.000000
  0.169585 -0.013987  0.085311     12.000000
  0.193811 -0.027974  0.085311      6.000000
  0.193811  0.000000  0.085311      6.000000
 


--------------------------------------------------------------------------------------------------------




 Dimension of arrays:
   k-points           NKPTS =     84   k-points in BZ     NKDIM =     84   number of bands    NBANDS=     12
   number of dos      NEDOS =    301   number of ions     NIONS =      4
   non local maximal  LDIM  =      4   non local SUM 2l+1 LMDIM =      8
   total plane-waves  NPLWV =  37632
   max r-space proj   IRMAX =      1   max aug-charges    IRDMAX= 196882
   dimension x,y,z NGX =    28 NGY =   28 NGZ =   48
   dimension x,y,z NGXF=    56 NGYF=   56 NGZF=   96
   support grid    NGXF=   112 NGYF=  112 NGZF=  192
   ions per type =               2   2
   NGX,Y,Z   is equivalent  to a cutoff of  14.66, 14.66, 13.62 a.u.
   NGXF,Y,Z  is equivalent  to a cutoff of  29.32, 29.32, 27.23 a.u.

 SYSTEM =  routine with relax: pwdword             
 POSCAR =  EA263                                   

 Startparameter for this run:
   NWRITE =      2    write-flag & timer
   PREC   = acc       normal or accurate (medium, high low for compatibility)
   ISTART =      0    job   : 0-new  1-cont  2-samecut
   ICHARG =      2    charge: 1-file 2-atom 10-const
   ISPIN  =      1    spin polarized calculation?
   LNONCOLLINEAR =      F non collinear calculations
   LSORBIT =      F    spin-orbit coupling
   INIWAV =      1    electr: 0-lowe 1-rand  2-diag
   LASPH  =      T    aspherical Exc in radial PAW
   METAGGA=      F    non-selfconsistent MetaGGA calc.

 Electronic Relaxation 1
   ENCUT  =  600.0 eV  44.10 Ry    6.64 a.u.   6.34  6.34 11.71*2*pi/ulx,y,z
   ENINI  =  600.0     initial cutoff
   ENAUG  =  535.5 eV  augmentation charge cutoff
   NELM   =    100;   NELMIN=  6; NELMDL= -5     # of ELM steps 
   EDIFF  = 0.1E-08   stopping-criterion for ELM
   LREAL  =      F    real-space projection
   NLSPLINE    = F    spline interpolate recip. space projectors
   LCOMPAT=      F    compatible to vasp.4.4
   GGA_COMPAT  = T    GGA compatible to vasp.4.4-vasp.4.6
   LMAXPAW     = -100 max onsite density
   LMAXMIX     =    2 max onsite mixed and CHGCAR
   VOSKOWN=      0    Vosko Wilk Nusair interpolation
   ROPT   =    0.00000   0.00000
 Ionic relaxation
   EDIFFG = 0.1E-07   stopping-criterion for IOM
   NSW    =      0    number of steps for IOM
   NBLOCK =      1;   KBLOCK =      1    inner block; outer block 
   IBRION =     -1    ionic relax: 0-MD 1-quasi-New 2-CG
   NFREE  =      0    steps in history (QN), initial steepest desc. (CG)
   ISIF   =     -1    stress and relaxation
   IWAVPR =     10    prediction:  0-non 1-charg 2-wave 3-comb
   ISYM   =      2    0-nonsym 1-usesym 2-fastsym
   LCORR  =      T    Harris-Foulkes like correction to forces

   POTIM  = 0.5000    time-step for ionic-motion
   TEIN   =    0.0    initial temperature
   TEBEG  =    0.0;   TEEND  =   0.0 temperature during run
   SMASS  =  -3.00    Nose mass-parameter (am)
   estimated Nose-frequenzy (Omega)   =  0.10E-29 period in steps = 0.13E+47 mass=  -0.230E-27a.u.
   SCALEE = 1.0000    scale energy and forces
   NPACO  =    256;   APACO  = 16.0  distance and # of slots for P.C.
   PSTRESS=    0.0 pullay stress

  Mass of Ions in am
   POMASS =  10.81 28.09
  Ionic Valenz
   ZVAL   =   3.00  4.00
  Atomic Wigner-Seitz radii
   RWIGS  =  -1.00 -1.00
  virtual crystal weights 
   VCA    =   1.00  1.00
   NELECT =      14.0000    total number of electrons
   NUPDOWN=      -1.0000    fix difference up-down

 DOS related values:
   EMIN   =  10.00;   EMAX   =-10.00  energy-range for DOS
   EFERMI =   0.00
   ISMEAR =     0;   SIGMA  =   0.02  broadening in eV -4-tet -1-fermi 0-gaus

 Electronic relaxation 2 (details)
   IALGO  =     58    algorithm
   LDIAG  =      T    sub-space diagonalisation (order eigenvalues)
   LSUBROT=      F    optimize rotation matrix (better conditioning)
   TURBO    =      0    0=normal 1=particle mesh
   IRESTART =      0    0=no restart 2=restart with 2 vectors
   NREBOOT  =      0    no. of reboots
   NMIN     =      0    reboot dimension
   EREF     =   0.00    reference energy to select bands
   IMIX   =      4    mixing-type and parameters
     AMIX     =   0.40;   BMIX     =  1.00
     AMIX_MAG =   1.60;   BMIX_MAG =  1.00
     AMIN     =   0.10
     WC   =   100.;   INIMIX=   1;  MIXPRE=   1;  MAXMIX= -45

 Intra band minimization:
   WEIMIN = 0.0000     energy-eigenvalue tresh-hold
   EBREAK =  0.21E-10  absolut break condition
   DEPER  =   0.30     relativ break condition  

   TIME   =   0.40     timestep for ELM

  volume/ion in A,a.u.               =      12.79        86.33
  Fermi-wavevector in a.u.,A,eV,Ry     =   1.062772  2.008348 15.367570  1.129485
  Thomas-Fermi vector in A             =   2.198234
 
 Write flags
   LWAVE        =      T    write WAVECAR
   LDOWNSAMPLE  =      F    k-point downsampling of WAVECAR
   LCHARG       =      T    write CHGCAR
   LVTOT        =      F    write LOCPOT, total local potential
   LVHAR        =      F    write LOCPOT, Hartree potential only
   LELF         =      F    write electronic localiz. function (ELF)
   LORBIT       =      0    0 simple, 1 ext, 2 COOP (PROOUT), +10 PAW based schemes


 Dipole corrections
   LMONO  =      F    monopole corrections only (constant potential shift)
   LDIPOL =      F    correct potential (dipole corrections)
   IDIPOL =      0    1-x, 2-y, 3-z, 4-all directions 
   EPSILON=  1.0000000 bulk dielectric constant

 Exchange correlation treatment:
   GGA     =    --    GGA type
   LEXCH   =     8    internal setting for exchange type
   VOSKOWN=      0    Vosko Wilk Nusair interpolation
   LHFCALC =     F    Hartree Fock is set to
   LHFONE  =     F    Hartree Fock one center treatment
   AEXX    =    0.0000 exact exchange contribution

 Linear response parameters
   LEPSILON=     F    determine dielectric tensor
   LRPA    =     F    only Hartree local field effects (RPA)
   LNABLA  =     F    use nabla operator in PAW spheres
   LVEL    =     F    velocity operator in full k-point grid
   LINTERFAST=   F  fast interpolation
   KINTER  =     0    interpolate to denser k-point grid
   CSHIFT  =0.1000    complex shift for real part using Kramers Kronig
   OMEGAMAX=  -1.0    maximum frequency
   DEG_THRESHOLD= 0.2000000E-02 threshold for treating states as degnerate
   RTIME   =   -0.100 relaxation time in fs
  (WPLASMAI=    0.000 imaginary part of plasma frequency in eV, 0.658/RTIME)
   DFIELD  = 0.0000000 0.0000000 0.0000000 field for delta impulse in time
 
 Orbital magnetization related:
   ORBITALMAG=     F  switch on orbital magnetization
   LCHIMAG   =     F  perturbation theory with respect to B field
   DQ        =  0.001000  dq finite difference perturbation B field
   LLRAUG    =     F  two centre corrections for induced B field



--------------------------------------------------------------------------------------------------------


 Static calculation
 charge density and potential will be updated during run
 non-spin polarized calculation
 Conjugate gradient for all bands (Freysoldt, et al. PRB 79, 241103 (2009))
 preconditioned conjugated gradient                                        
 perform sub-space diagonalisation
    before iterative eigenvector-optimisation
 modified Broyden-mixing scheme, WC =      100.0
 initial mixing is a Kerker type mixing with AMIX =  0.4000 and BMIX =      1.0000
 Hartree-type preconditioning will be used
 using additional bands            5
 reciprocal scheme for non local part
 use partial core corrections
 no Harris-corrections to forces 
 use gradient corrections 
 use of overlap-Matrix (Vanderbilt PP)
 Gauss-broadening in eV      SIGMA  =   0.02


--------------------------------------------------------------------------------------------------------


  energy-cutoff  :      600.00
  volume of cell :       51.17
      direct lattice vectors                 reciprocal lattice vectors
     1.587587000 -2.749781000  0.000000000     0.314943370 -0.181832662  0.000000000
     1.587587000  2.749781000  0.000000000     0.314943370  0.181832662  0.000000000
     0.000000000  0.000000000  5.860929000     0.000000000  0.000000000  0.170621415

  length of vectors
     3.175173701  3.175173701  5.860929000     0.363665290  0.363665290  0.170621415


 
 k-points in units of 2pi/SCALE and weight: EA                                      
   0.00000000  0.00000000  0.00000000       0.001
   0.02422641 -0.01398713  0.00000000       0.006
   0.04845283 -0.02797426  0.00000000       0.006
   0.07267924 -0.04196138  0.00000000       0.006
   0.09690565 -0.05594851  0.00000000       0.006
   0.12113207 -0.06993564  0.00000000       0.006
   0.14535848 -0.08392277  0.00000000       0.006
   0.04845283  0.00000000  0.00000000       0.006
   0.07267924 -0.01398713  0.00000000       0.012
   0.09690565 -0.02797426  0.00000000       0.012
   0.12113207 -0.04196138  0.00000000       0.012
   0.14535848 -0.05594851  0.00000000       0.012
   0.16958489 -0.06993564  0.00000000       0.006
   0.09690565  0.00000000  0.00000000       0.006
   0.12113207 -0.01398713  0.00000000       0.012
   0.14535848 -0.02797426  0.00000000       0.012
   0.16958489 -0.04196138  0.00000000       0.012
   0.14535848  0.00000000  0.00000000       0.006
   0.16958489 -0.01398713  0.00000000       0.012
   0.19381130 -0.02797426  0.00000000       0.006
   0.19381130  0.00000000  0.00000000       0.006
   0.00000000  0.00000000  0.02843690       0.002
   0.02422641 -0.01398713  0.02843690       0.012
   0.04845283 -0.02797426  0.02843690       0.012
   0.07267924 -0.04196138  0.02843690       0.012
   0.09690565 -0.05594851  0.02843690       0.012
   0.12113207 -0.06993564  0.02843690       0.012
   0.14535848 -0.08392277  0.02843690       0.012
   0.04845283  0.00000000  0.02843690       0.012
   0.07267924 -0.01398713  0.02843690       0.024
   0.09690565 -0.02797426  0.02843690       0.024
   0.12113207 -0.04196138  0.02843690       0.024
   0.14535848 -0.05594851  0.02843690       0.024
   0.16958489 -0.06993564  0.02843690       0.012
   0.09690565  0.00000000  0.02843690       0.012
   0.12113207 -0.01398713  0.02843690       0.024
   0.14535848 -0.02797426  0.02843690       0.024
   0.16958489 -0.04196138  0.02843690       0.024
   0.14535848  0.00000000  0.02843690       0.012
   0.16958489 -0.01398713  0.02843690       0.024
   0.19381130 -0.02797426  0.02843690       0.012
   0.19381130  0.00000000  0.02843690       0.012
   0.00000000  0.00000000  0.05687381       0.002
   0.02422641 -0.01398713  0.05687381       0.012
   0.04845283 -0.02797426  0.05687381       0.012
   0.07267924 -0.04196138  0.05687381       0.012
   0.09690565 -0.05594851  0.05687381       0.012
   0.12113207 -0.06993564  0.05687381       0.012
   0.14535848 -0.08392277  0.05687381       0.012
   0.04845283  0.00000000  0.05687381       0.012
   0.07267924 -0.01398713  0.05687381       0.024
   0.09690565 -0.02797426  0.05687381       0.024
   0.12113207 -0.04196138  0.05687381       0.024
   0.14535848 -0.05594851  0.05687381       0.024
   0.16958489 -0.06993564  0.05687381       0.012
   0.09690565  0.00000000  0.05687381       0.012
   0.12113207 -0.01398713  0.05687381       0.024
   0.14535848 -0.02797426  0.05687381       0.024
   0.16958489 -0.04196138  0.05687381       0.024
   0.14535848  0.00000000  0.05687381       0.012
   0.16958489 -0.01398713  0.05687381       0.024
   0.19381130 -0.02797426  0.05687381       0.012
   0.19381130  0.00000000  0.05687381       0.012
   0.00000000  0.00000000  0.08531071       0.001
   0.02422641 -0.01398713  0.08531071       0.006
   0.04845283 -0.02797426  0.08531071       0.006
   0.07267924 -0.04196138  0.08531071       0.006
   0.09690565 -0.05594851  0.08531071       0.006
   0.12113207 -0.06993564  0.08531071       0.006
   0.14535848 -0.08392277  0.08531071       0.006
   0.04845283  0.00000000  0.08531071       0.006
   0.07267924 -0.01398713  0.08531071       0.012
   0.09690565 -0.02797426  0.08531071       0.012
   0.12113207 -0.04196138  0.08531071       0.012
   0.14535848 -0.05594851  0.08531071       0.012
   0.16958489 -0.06993564  0.08531071       0.006
   0.09690565  0.00000000  0.08531071       0.006
   0.12113207 -0.01398713  0.08531071       0.012
   0.14535848 -0.02797426  0.08531071       0.012
   0.16958489 -0.04196138  0.08531071       0.012
   0.14535848  0.00000000  0.08531071       0.006
   0.16958489 -0.01398713  0.08531071       0.012
   0.19381130 -0.02797426  0.08531071       0.006
   0.19381130  0.00000000  0.08531071       0.006
 
 k-points in reciprocal lattice and weights: EA                                      
   0.00000000  0.00000000  0.00000000       0.001
   0.07692308 -0.00000000  0.00000000       0.006
   0.15384615 -0.00000000  0.00000000       0.006
   0.23076923  0.00000000  0.00000000       0.006
   0.30769231 -0.00000000  0.00000000       0.006
   0.38461538 -0.00000000  0.00000000       0.006
   0.46153846 -0.00000000  0.00000000       0.006
   0.07692308  0.07692308  0.00000000       0.006
   0.15384615  0.07692308  0.00000000       0.012
   0.23076923  0.07692308  0.00000000       0.012
   0.30769231  0.07692308  0.00000000       0.012
   0.38461538  0.07692308  0.00000000       0.012
   0.46153846  0.07692308  0.00000000       0.006
   0.15384615  0.15384615  0.00000000       0.006
   0.23076923  0.15384615  0.00000000       0.012
   0.30769231  0.15384615  0.00000000       0.012
   0.38461538  0.15384615  0.00000000       0.012
   0.23076923  0.23076923  0.00000000       0.006
   0.30769231  0.23076923  0.00000000       0.012
   0.38461538  0.23076923  0.00000000       0.006
   0.30769231  0.30769231  0.00000000       0.006
   0.00000000  0.00000000  0.16666667       0.002
   0.07692308 -0.00000000  0.16666667       0.012
   0.15384615 -0.00000000  0.16666667       0.012
   0.23076923  0.00000000  0.16666667       0.012
   0.30769231 -0.00000000  0.16666667       0.012
   0.38461538 -0.00000000  0.16666667       0.012
   0.46153846 -0.00000000  0.16666667       0.012
   0.07692308  0.07692308  0.16666667       0.012
   0.15384615  0.07692308  0.16666667       0.024
   0.23076923  0.07692308  0.16666667       0.024
   0.30769231  0.07692308  0.16666667       0.024
   0.38461538  0.07692308  0.16666667       0.024
   0.46153846  0.07692308  0.16666667       0.012
   0.15384615  0.15384615  0.16666667       0.012
   0.23076923  0.15384615  0.16666667       0.024
   0.30769231  0.15384615  0.16666667       0.024
   0.38461538  0.15384615  0.16666667       0.024
   0.23076923  0.23076923  0.16666667       0.012
   0.30769231  0.23076923  0.16666667       0.024
   0.38461538  0.23076923  0.16666667       0.012
   0.30769231  0.30769231  0.16666667       0.012
   0.00000000  0.00000000  0.33333333       0.002
   0.07692308 -0.00000000  0.33333333       0.012
   0.15384615 -0.00000000  0.33333333       0.012
   0.23076923  0.00000000  0.33333333       0.012
   0.30769231 -0.00000000  0.33333333       0.012
   0.38461538 -0.00000000  0.33333333       0.012
   0.46153846 -0.00000000  0.33333333       0.012
   0.07692308  0.07692308  0.33333333       0.012
   0.15384615  0.07692308  0.33333333       0.024
   0.23076923  0.07692308  0.33333333       0.024
   0.30769231  0.07692308  0.33333333       0.024
   0.38461538  0.07692308  0.33333333       0.024
   0.46153846  0.07692308  0.33333333       0.012
   0.15384615  0.15384615  0.33333333       0.012
   0.23076923  0.15384615  0.33333333       0.024
   0.30769231  0.15384615  0.33333333       0.024
   0.38461538  0.15384615  0.33333333       0.024
   0.23076923  0.23076923  0.33333333       0.012
   0.30769231  0.23076923  0.33333333       0.024
   0.38461538  0.23076923  0.33333333       0.012
   0.30769231  0.30769231  0.33333333       0.012
   0.00000000  0.00000000  0.50000000       0.001
   0.07692308 -0.00000000  0.50000000       0.006
   0.15384615 -0.00000000  0.50000000       0.006
   0.23076923  0.00000000  0.50000000       0.006
   0.30769231 -0.00000000  0.50000000       0.006
   0.38461538 -0.00000000  0.50000000       0.006
   0.46153846 -0.00000000  0.50000000       0.006
   0.07692308  0.07692308  0.50000000       0.006
   0.15384615  0.07692308  0.50000000       0.012
   0.23076923  0.07692308  0.50000000       0.012
   0.30769231  0.07692308  0.50000000       0.012
   0.38461538  0.07692308  0.50000000       0.012
   0.46153846  0.07692308  0.50000000       0.006
   0.15384615  0.15384615  0.50000000       0.006
   0.23076923  0.15384615  0.50000000       0.012
   0.30769231  0.15384615  0.50000000       0.012
   0.38461538  0.15384615  0.50000000       0.012
   0.23076923  0.23076923  0.50000000       0.006
   0.30769231  0.23076923  0.50000000       0.012
   0.38461538  0.23076923  0.50000000       0.006
   0.30769231  0.30769231  0.50000000       0.006
 
 position of ions in fractional coordinates (direct lattice) 
   0.66666700  0.33333300  0.51809400
   0.33333300  0.66666700  0.01809400
   0.66666700  0.33333300  0.85690500
   0.33333300  0.66666700  0.35690500
 
 position of ions in cartesian coordinates  (Angst):
   1.58758700 -0.91659550  3.03651215
   1.58758700  0.91659550  0.10604765
   1.58758700 -0.91659550  5.02225936
   1.58758700  0.91659550  2.09179486
 


--------------------------------------------------------------------------------------------------------


 k-point   1 :   0.0000 0.0000 0.0000  plane waves:    1727
 k-point   2 :   0.0769-0.0000 0.0000  plane waves:    1713
 k-point   3 :   0.1538-0.0000 0.0000  plane waves:    1719
 k-point   4 :   0.2308 0.0000 0.0000  plane waves:    1713
 k-point   5 :   0.3077-0.0000 0.0000  plane waves:    1721
 k-point   6 :   0.3846-0.0000 0.0000  plane waves:    1717
 k-point   7 :   0.4615-0.0000 0.0000  plane waves:    1717
 k-point   8 :   0.0769 0.0769 0.0000  plane waves:    1721
 k-point   9 :   0.1538 0.0769 0.0000  plane waves:    1720
 k-point  10 :   0.2308 0.0769 0.0000  plane waves:    1713
 k-point  11 :   0.3077 0.0769 0.0000  plane waves:    1717
 k-point  12 :   0.3846 0.0769 0.0000  plane waves:    1710
 k-point  13 :   0.4615 0.0769 0.0000  plane waves:    1708
 k-point  14 :   0.1538 0.1538 0.0000  plane waves:    1713
 k-point  15 :   0.2308 0.1538 0.0000  plane waves:    1712
 k-point  16 :   0.3077 0.1538 0.0000  plane waves:    1704
 k-point  17 :   0.3846 0.1538 0.0000  plane waves:    1699
 k-point  18 :   0.2308 0.2308 0.0000  plane waves:    1704
 k-point  19 :   0.3077 0.2308 0.0000  plane waves:    1690
 k-point  20 :   0.3846 0.2308 0.0000  plane waves:    1692
 k-point  21 :   0.3077 0.3077 0.0000  plane waves:    1686
 k-point  22 :   0.0000 0.0000 0.1667  plane waves:    1697
 k-point  23 :   0.0769-0.0000 0.1667  plane waves:    1717
 k-point  24 :   0.1538-0.0000 0.1667  plane waves:    1714
 k-point  25 :   0.2308 0.0000 0.1667  plane waves:    1711
 k-point  26 :   0.3077-0.0000 0.1667  plane waves:    1716
 k-point  27 :   0.3846-0.0000 0.1667  plane waves:    1708
 k-point  28 :   0.4615-0.0000 0.1667  plane waves:    1705
 k-point  29 :   0.0769 0.0769 0.1667  plane waves:    1719
 k-point  30 :   0.1538 0.0769 0.1667  plane waves:    1715
 k-point  31 :   0.2308 0.0769 0.1667  plane waves:    1713
 k-point  32 :   0.3077 0.0769 0.1667  plane waves:    1711
 k-point  33 :   0.3846 0.0769 0.1667  plane waves:    1705
 k-point  34 :   0.4615 0.0769 0.1667  plane waves:    1703
 k-point  35 :   0.1538 0.1538 0.1667  plane waves:    1707
 k-point  36 :   0.2308 0.1538 0.1667  plane waves:    1709
 k-point  37 :   0.3077 0.1538 0.1667  plane waves:    1705
 k-point  38 :   0.3846 0.1538 0.1667  plane waves:    1702
 k-point  39 :   0.2308 0.2308 0.1667  plane waves:    1702
 k-point  40 :   0.3077 0.2308 0.1667  plane waves:    1702
 k-point  41 :   0.3846 0.2308 0.1667  plane waves:    1697
 k-point  42 :   0.3077 0.3077 0.1667  plane waves:    1688
 k-point  43 :   0.0000 0.0000 0.3333  plane waves:    1710
 k-point  44 :   0.0769-0.0000 0.3333  plane waves:    1705
 k-point  45 :   0.1538-0.0000 0.3333  plane waves:    1718
 k-point  46 :   0.2308 0.0000 0.3333  plane waves:    1716
 k-point  47 :   0.3077-0.0000 0.3333  plane waves:    1709
 k-point  48 :   0.3846-0.0000 0.3333  plane waves:    1707
 k-point  49 :   0.4615-0.0000 0.3333  plane waves:    1711
 k-point  50 :   0.0769 0.0769 0.3333  plane waves:    1719
 k-point  51 :   0.1538 0.0769 0.3333  plane waves:    1714
 k-point  52 :   0.2308 0.0769 0.3333  plane waves:    1710
 k-point  53 :   0.3077 0.0769 0.3333  plane waves:    1706
 k-point  54 :   0.3846 0.0769 0.3333  plane waves:    1707
 k-point  55 :   0.4615 0.0769 0.3333  plane waves:    1710
 k-point  56 :   0.1538 0.1538 0.3333  plane waves:    1712
 k-point  57 :   0.2308 0.1538 0.3333  plane waves:    1704
 k-point  58 :   0.3077 0.1538 0.3333  plane waves:    1706
 k-point  59 :   0.3846 0.1538 0.3333  plane waves:    1698
 k-point  60 :   0.2308 0.2308 0.3333  plane waves:    1707
 k-point  61 :   0.3077 0.2308 0.3333  plane waves:    1700
 k-point  62 :   0.3846 0.2308 0.3333  plane waves:    1700
 k-point  63 :   0.3077 0.3077 0.3333  plane waves:    1703
 k-point  64 :   0.0000 0.0000 0.5000  plane waves:    1704
 k-point  65 :   0.0769-0.0000 0.5000  plane waves:    1712
 k-point  66 :   0.1538-0.0000 0.5000  plane waves:    1718
 k-point  67 :   0.2308 0.0000 0.5000  plane waves:    1708
 k-point  68 :   0.3077-0.0000 0.5000  plane waves:    1710
 k-point  69 :   0.3846-0.0000 0.5000  plane waves:    1716
 k-point  70 :   0.4615-0.0000 0.5000  plane waves:    1710
 k-point  71 :   0.0769 0.0769 0.5000  plane waves:    1716
 k-point  72 :   0.1538 0.0769 0.5000  plane waves:    1712
 k-point  73 :   0.2308 0.0769 0.5000  plane waves:    1714
 k-point  74 :   0.3077 0.0769 0.5000  plane waves:    1700
 k-point  75 :   0.3846 0.0769 0.5000  plane waves:    1704
 k-point  76 :   0.4615 0.0769 0.5000  plane waves:    1712
 k-point  77 :   0.1538 0.1538 0.5000  plane waves:    1718
 k-point  78 :   0.2308 0.1538 0.5000  plane waves:    1700
 k-point  79 :   0.3077 0.1538 0.5000  plane waves:    1702
 k-point  80 :   0.3846 0.1538 0.5000  plane waves:    1710
 k-point  81 :   0.2308 0.2308 0.5000  plane waves:    1712
 k-point  82 :   0.3077 0.2308 0.5000  plane waves:    1710
 k-point  83 :   0.3846 0.2308 0.5000  plane waves:    1702
 k-point  84 :   0.3077 0.3077 0.5000  plane waves:    1696

 maximum and minimum number of plane-waves per node :       870      841

 maximum number of plane-waves:      1727
 maximum index in each direction: 
   IXMAX=    6   IYMAX=    6   IZMAX=   11
   IXMIN=   -6   IYMIN=   -6   IZMIN=  -12


 parallel 3D FFT for wavefunctions:
    minimum data exchange during FFTs selected (reduces bandwidth)
 parallel 3D FFT for charge:
    minimum data exchange during FFTs selected (reduces bandwidth)


 total amount of memory used by VASP MPI-rank0    54134. kBytes
=======================================================================

   base      :      30000. kBytes
   nonl-proj :       9409. kBytes
   fftplans  :       4454. kBytes
   grid      :       3107. kBytes
   one-center:          6. kBytes
   wavefun   :       7158. kBytes
 
     INWAV:  cpu time    0.0000: real time    0.0000
 Broyden mixing: mesh for mixing (old mesh)
   NGX = 13   NGY = 13   NGZ = 23
  (NGX  = 56   NGY  = 56   NGZ  = 96)
  gives a total of   3887 points

 initial charge density was supplied:
 charge density of overlapping atoms calculated
 number of electron      14.0000000 magnetization 
 keeping initial charge density in first step


--------------------------------------------------------------------------------------------------------


 Maximum index for augmentation-charges        16406 (set IRDMAX)


--------------------------------------------------------------------------------------------------------


 First call to EWALD:  gamma=   0.477
 Maximum number of real-space cells 4x 4x 2
 Maximum number of reciprocal cells 2x 2x 4

    FEWALD:  cpu time    0.0014: real time    0.0014


--------------------------------------- Iteration      1(   1)  ---------------------------------------


    POTLOK:  cpu time    0.0336: real time    0.0340
    SETDIJ:  cpu time    0.1967: real time    0.1977
    TRIAL :  cpu time    0.5217: real time    0.5252
    CORREC:  cpu time    0.0005: real time    0.0005
    --------------------------------------------
      LOOP:  cpu time    0.7547: real time    0.7620

 eigenvalue-minimisations  :  2016
 total energy-change (2. order) : 0.1110123E+02  (-0.7661964E+03)
 number of electron      14.0000000 magnetization 
 augmentation part       14.0000000 magnetization 

 Free energy of the ion-electron system (eV)
  ---------------------------------------------------
  alpha Z        PSCENC =        17.15254597
  Ewald energy   TEWEN  =      -413.87025675
  -Hartree energ DENC   =       -14.54772448
  -exchange      EXHF   =         0.00000000
  -V(xc)+E(xc)   XCENC  =         7.37375063
  PAW double counting   =       250.01867259     -229.05981944
  entropy T*S    EENTRO =        -0.00024004
  eigenvalues    EBANDS =        45.56197893
  atomic energy  EATOM  =       348.47232061
  ---------------------------------------------------
  free energy    TOTEN  =        11.10122802 eV

  energy without entropy =       11.10146807  energy(sigma->0) =       11.10134805


--------------------------------------------------------------------------------------------------------




--------------------------------------- Iteration      1(   2)  ---------------------------------------


    TRIAL :  cpu time    0.6731: real time    0.6778
    CORREC:  cpu time    0.0004: real time    0.0004
    --------------------------------------------
      LOOP:  cpu time    0.6758: real time    0.6811

 eigenvalue-minimisations  :  3096
 total energy-change (2. order) :-0.4423310E+02  (-0.4339760E+02)
 number of electron      14.0000000 magnetization 
 augmentation part       14.0000000 magnetization 

 Free energy of the ion-electron system (eV)
  ---------------------------------------------------
  alpha Z        PSCENC =        17.15254597
  Ewald energy   TEWEN  =      -413.87025675
  -Hartree energ DENC   =       -14.54772448
  -exchange      EXHF   =         0.00000000
  -V(xc)+E(xc)   XCENC  =         7.37375063
  PAW double counting   =       250.01867259     -229.05981944
  entropy T*S    EENTRO =        -0.00067221
  eigenvalues    EBANDS =         1.32931276
  atomic energy  EATOM  =       348.47232061
  ---------------------------------------------------
  free energy    TOTEN  =       -33.13187031 eV

  energy without entropy =      -33.13119810  energy(sigma->0) =      -33.13153421


--------------------------------------------------------------------------------------------------------




--------------------------------------- Iteration      1(   3)  ---------------------------------------


    TRIAL :  cpu time    0.6579: real time    0.6625
    CORREC:  cpu time    0.0004: real time    0.0004
    --------------------------------------------
      LOOP:  cpu time    0.6607: real time    0.6657

 eigenvalue-minimisations  :  2676
 total energy-change (2. order) :-0.5624647E+00  (-0.5556725E+00)
 number of electron      14.0000000 magnetization 
 augmentation part       14.0000000 magnetization 

 Free energy of the ion-electron system (eV)
  ---------------------------------------------------
  alpha Z        PSCENC =        17.15254597
  Ewald energy   TEWEN  =      -413.87025675
  -Hartree energ DENC   =       -14.54772448
  -exchange      EXHF   =         0.00000000
  -V(xc)+E(xc)   XCENC  =         7.37375063
  PAW double counting   =       250.01867259     -229.05981944
  entropy T*S    EENTRO =        -0.00067251
  eigenvalues    EBANDS =         0.76684834
  atomic energy  EATOM  =       348.47232061
  ---------------------------------------------------
  free energy    TOTEN  =       -33.69433504 eV

  energy without entropy =      -33.69366252  energy(sigma->0) =      -33.69399878


--------------------------------------------------------------------------------------------------------




--------------------------------------- Iteration      1(   4)  ---------------------------------------


    TRIAL :  cpu time    0.7564: real time    0.7616
    CORREC:  cpu time    0.0004: real time    0.0004
    --------------------------------------------
      LOOP:  cpu time    0.7573: real time    0.7649

 eigenvalue-minimisations  :  3540
 total energy-change (2. order) :-0.1722037E-02  (-0.1721971E-02)
 number of electron      14.0000000 magnetization 
 augmentation part       14.0000000 magnetization 

 Free energy of the ion-electron system (eV)
  ---------------------------------------------------
  alpha Z        PSCENC =        17.15254597
  Ewald energy   TEWEN  =      -413.87025675
  -Hartree energ DENC   =       -14.54772448
  -exchange      EXHF   =         0.00000000
  -V(xc)+E(xc)   XCENC  =         7.37375063
  PAW double counting   =       250.01867259     -229.05981944
  entropy T*S    EENTRO =        -0.00066904
  eigenvalues    EBANDS =         0.76512282
  atomic energy  EATOM  =       348.47232061
  ---------------------------------------------------
  free energy    TOTEN  =       -33.69605707 eV

  energy without entropy =      -33.69538804  energy(sigma->0) =      -33.69572256


--------------------------------------------------------------------------------------------------------




--------------------------------------- Iteration      1(   5)  ---------------------------------------


    TRIAL :  cpu time    0.6103: real time    0.6144
    CORREC:  cpu time    0.0004: real time    0.0004
    CHARGE:  cpu time    0.1288: real time    0.1300
    --------------------------------------------
      LOOP:  cpu time    0.7417: real time    0.7476

 eigenvalue-minimisations  :  2664
 total energy-change (2. order) :-0.7468224E-06  (-0.7466788E-06)
 number of electron      14.0000000 magnetization 
 augmentation part       -0.4524015 magnetization 

 Free energy of the ion-electron system (eV)
  ---------------------------------------------------
  alpha Z        PSCENC =        17.15254597
  Ewald energy   TEWEN  =      -413.87025675
  -Hartree energ DENC   =       -14.54772448
  -exchange      EXHF   =         0.00000000
  -V(xc)+E(xc)   XCENC  =         7.37375063
  PAW double counting   =       250.01867259     -229.05981944
  entropy T*S    EENTRO =        -0.00066903
  eigenvalues    EBANDS =         0.76512207
  atomic energy  EATOM  =       348.47232061
  ---------------------------------------------------
  free energy    TOTEN  =       -33.69605782 eV

  energy without entropy =      -33.69538879  energy(sigma->0) =      -33.69572330


--------------------------------------------------------------------------------------------------------




--------------------------------------- Iteration      1(   6)  ---------------------------------------


    POTLOK:  cpu time    0.0315: real time    0.0316
    SETDIJ:  cpu time    0.1966: real time    0.1975
    TRIAL :  cpu time    0.4910: real time    0.4944
    CORREC:  cpu time    0.5100: real time    0.5131
    CHARGE:  cpu time    0.1280: real time    0.1289
    --------------------------------------------
      LOOP:  cpu time    1.3593: real time    1.3684

 eigenvalue-minimisations  :     0
 total energy-change (2. order) : 0.4032769E+01  (-0.8635292E+00)
 number of electron      14.0000000 magnetization 
 augmentation part       -0.4788131 magnetization 

 Free energy of the ion-electron system (eV)
  ---------------------------------------------------
  alpha Z        PSCENC =        17.15254597
  Ewald energy   TEWEN  =      -413.87025675
  -Hartree energ DENC   =       -28.43550196
  -exchange      EXHF   =         0.00000000
  -V(xc)+E(xc)   XCENC  =         9.91652280
  PAW double counting   =      1807.14240553    -1786.60331335
  entropy T*S    EENTRO =        -0.00051818
  eigenvalues    EBANDS =        16.56265766
  atomic energy  EATOM  =       348.47232061
  ---------------------------------------------------
  free energy    TOTEN  =       -29.66328852 eV

  energy without entropy =      -29.66277035  energy(sigma->0) =      -29.66302943


--------------------------------------------------------------------------------------------------------




--------------------------------------- Iteration      1(   7)  ---------------------------------------


    POTLOK:  cpu time    0.0311: real time    0.0313
    SETDIJ:  cpu time    0.1960: real time    0.1969
    TRIAL :  cpu time    0.4876: real time    0.4907
    CORREC:  cpu time    0.4992: real time    0.5022
    CHARGE:  cpu time    0.1252: real time    0.1261
    --------------------------------------------
      LOOP:  cpu time    1.3411: real time    1.3504

 eigenvalue-minimisations  :     0
 total energy-change (2. order) :-0.8705910E+00  (-0.7087910E-01)
 number of electron      14.0000000 magnetization 
 augmentation part       -0.4844470 magnetization 

 Free energy of the ion-electron system (eV)
  ---------------------------------------------------
  alpha Z        PSCENC =        17.15254597
  Ewald energy   TEWEN  =      -413.87025675
  -Hartree energ DENC   =       -23.01869949
  -exchange      EXHF   =         0.00000000
  -V(xc)+E(xc)   XCENC  =         9.21341518
  PAW double counting   =      2032.34254071    -2011.69854678
  entropy T*S    EENTRO =        -0.00045463
  eigenvalues    EBANDS =        10.87331917
  atomic energy  EATOM  =       348.47232061
  ---------------------------------------------------
  free energy    TOTEN  =       -30.53387956 eV

  energy without entropy =      -30.53342493  energy(sigma->0) =      -30.53365224


--------------------------------------------------------------------------------------------------------




--------------------------------------- Iteration      1(   8)  ---------------------------------------


    POTLOK:  cpu time    0.0308: real time    0.0310
    SETDIJ:  cpu time    0.1908: real time    0.1918
    TRIAL :  cpu time    0.4837: real time    0.4866
    CORREC:  cpu time    0.4972: real time    0.5002
    CHARGE:  cpu time    0.1211: real time    0.1221
    --------------------------------------------
      LOOP:  cpu time    1.3265: real time    1.3349

 eigenvalue-minimisations  :     0
 total energy-change (2. order) :-0.7159490E-01  (-0.1195124E-01)
 number of electron      14.0000000 magnetization 
 augmentation part       -0.4827501 magnetization 

 Free energy of the ion-electron system (eV)
  ---------------------------------------------------
  alpha Z        PSCENC =        17.15254597
  Ewald energy   TEWEN  =      -413.87025675
  -Hartree energ DENC   =       -22.97733948
  -exchange      EXHF   =         0.00000000
  -V(xc)+E(xc)   XCENC  =         9.21445947
  PAW double counting   =      2044.96896802    -2024.34203818
  entropy T*S    EENTRO =        -0.00037970
  eigenvalues    EBANDS =        10.77632052
  atomic energy  EATOM  =       348.47232061
  ---------------------------------------------------
  free energy    TOTEN  =       -30.60547445 eV

  energy without entropy =      -30.60509475  energy(sigma->0) =      -30.60528460


--------------------------------------------------------------------------------------------------------




--------------------------------------- Iteration      1(   9)  ---------------------------------------


    POTLOK:  cpu time    0.0303: real time    0.0306
    SETDIJ:  cpu time    0.2013: real time    0.2026
    TRIAL :  cpu time    0.5235: real time    0.5271
    CORREC:  cpu time    0.4996: real time    0.5026
    CHARGE:  cpu time    0.1254: real time    0.1263
    --------------------------------------------
      LOOP:  cpu time    1.3827: real time    1.3923

 eigenvalue-minimisations  :     0
 total energy-change (2. order) :-0.1181772E-01  (-0.2016745E-02)
 number of electron      14.0000000 magnetization 
 augmentation part       -0.4834600 magnetization 

 Free energy of the ion-electron system (eV)
  ---------------------------------------------------
  alpha Z        PSCENC =        17.15254597
  Ewald energy   TEWEN  =      -413.87025675
  -Hartree energ DENC   =       -22.81786455
  -exchange      EXHF   =         0.00000000
  -V(xc)+E(xc)   XCENC  =         9.19615027
  PAW double counting   =      2030.04337657    -2009.41707663
  entropy T*S    EENTRO =        -0.00030410
  eigenvalues    EBANDS =        10.62389205
  atomic energy  EATOM  =       348.47232061
  ---------------------------------------------------
  free energy    TOTEN  =       -30.61729217 eV

  energy without entropy =      -30.61698807  energy(sigma->0) =      -30.61714012


--------------------------------------------------------------------------------------------------------




--------------------------------------- Iteration      1(  10)  ---------------------------------------


    POTLOK:  cpu time    0.0306: real time    0.0307
    SETDIJ:  cpu time    0.1965: real time    0.1974
    TRIAL :  cpu time    0.5075: real time    0.5108
    CORREC:  cpu time    0.5212: real time    0.5243
    CHARGE:  cpu time    0.1298: real time    0.1307
    --------------------------------------------
      LOOP:  cpu time    1.3881: real time    1.3969

 eigenvalue-minimisations  :     0
 total energy-change (2. order) :-0.2021542E-02  (-0.2970018E-03)
 number of electron      14.0000000 magnetization 
 augmentation part       -0.4833497 magnetization 

 Free energy of the ion-electron system (eV)
  ---------------------------------------------------
  alpha Z        PSCENC =        17.15254597
  Ewald energy   TEWEN  =      -413.87025675
  -Hartree energ DENC   =       -22.75671406
  -exchange      EXHF   =         0.00000000
  -V(xc)+E(xc)   XCENC  =         9.18994953
  PAW double counting   =      2025.59130377    -2004.96386977
  entropy T*S    EENTRO =        -0.00028900
  eigenvalues    EBANDS =        10.56571109
  atomic energy  EATOM  =       348.47232061
  ---------------------------------------------------
  free energy    TOTEN  =       -30.61931371 eV

  energy without entropy =      -30.61902472  energy(sigma->0) =      -30.61916921


--------------------------------------------------------------------------------------------------------




--------------------------------------- Iteration      1(  11)  ---------------------------------------


    POTLOK:  cpu time    0.0309: real time    0.0310
    SETDIJ:  cpu time    0.1936: real time    0.1945
    TRIAL :  cpu time    0.4857: real time    0.4889
    CORREC:  cpu time    0.4938: real time    0.4968
    CHARGE:  cpu time    0.1237: real time    0.1246
    --------------------------------------------
      LOOP:  cpu time    1.3299: real time    1.3392

 eigenvalue-minimisations  :     0
 total energy-change (2. order) :-0.2986524E-03  (-0.3480544E-04)
 number of electron      14.0000000 magnetization 
 augmentation part       -0.4830912 magnetization 

 Free energy of the ion-electron system (eV)
  ---------------------------------------------------
  alpha Z        PSCENC =        17.15254597
  Ewald energy   TEWEN  =      -413.87025675
  -Hartree energ DENC   =       -22.75896959
  -exchange      EXHF   =         0.00000000
  -V(xc)+E(xc)   XCENC  =         9.19067943
  PAW double counting   =      2029.68090685    -2009.05378533
  entropy T*S    EENTRO =        -0.00028687
  eigenvalues    EBANDS =        10.56723543
  atomic energy  EATOM  =       348.47232061
  ---------------------------------------------------
  free energy    TOTEN  =       -30.61961237 eV

  energy without entropy =      -30.61932550  energy(sigma->0) =      -30.61946893


--------------------------------------------------------------------------------------------------------




--------------------------------------- Iteration      1(  12)  ---------------------------------------


    POTLOK:  cpu time    0.0303: real time    0.0305
    SETDIJ:  cpu time    0.1943: real time    0.1952
    TRIAL :  cpu time    0.4895: real time    0.4925
    CORREC:  cpu time    0.5203: real time    0.5232
    CHARGE:  cpu time    0.1260: real time    0.1269
    --------------------------------------------
      LOOP:  cpu time    1.3626: real time    1.3718

 eigenvalue-minimisations  :     0
 total energy-change (2. order) :-0.3643721E-04  (-0.3801392E-05)
 number of electron      14.0000000 magnetization 
 augmentation part       -0.4830485 magnetization 

 Free energy of the ion-electron system (eV)
  ---------------------------------------------------
  alpha Z        PSCENC =        17.15254597
  Ewald energy   TEWEN  =      -413.87025675
  -Hartree energ DENC   =       -22.75401657
  -exchange      EXHF   =         0.00000000
  -V(xc)+E(xc)   XCENC  =         9.19006526
  PAW double counting   =      2032.94983914    -2012.32270353
  entropy T*S    EENTRO =        -0.00028669
  eigenvalues    EBANDS =        10.56284394
  atomic energy  EATOM  =       348.47232061
  ---------------------------------------------------
  free energy    TOTEN  =       -30.61964880 eV

  energy without entropy =      -30.61936211  energy(sigma->0) =      -30.61950546


--------------------------------------------------------------------------------------------------------




--------------------------------------- Iteration      1(  13)  ---------------------------------------


    POTLOK:  cpu time    0.0308: real time    0.0310
    SETDIJ:  cpu time    0.1947: real time    0.1956
    TRIAL :  cpu time    0.4888: real time    0.4918
    CORREC:  cpu time    0.5077: real time    0.5106
    CHARGE:  cpu time    0.1244: real time    0.1253
    --------------------------------------------
      LOOP:  cpu time    1.3491: real time    1.3573

 eigenvalue-minimisations  :     0
 total energy-change (2. order) :-0.4055871E-05  (-0.6298463E-06)
 number of electron      14.0000000 magnetization 
 augmentation part       -0.4830457 magnetization 

 Free energy of the ion-electron system (eV)
  ---------------------------------------------------
  alpha Z        PSCENC =        17.15254597
  Ewald energy   TEWEN  =      -413.87025675
  -Hartree energ DENC   =       -22.75309275
  -exchange      EXHF   =         0.00000000
  -V(xc)+E(xc)   XCENC  =         9.19005256
  PAW double counting   =      2033.94145692    -2013.31429657
  entropy T*S    EENTRO =        -0.00028678
  eigenvalues    EBANDS =        10.56190385
  atomic energy  EATOM  =       348.47232061
  ---------------------------------------------------
  free energy    TOTEN  =       -30.61965286 eV

  energy without entropy =      -30.61936608  energy(sigma->0) =      -30.61950947


--------------------------------------------------------------------------------------------------------




--------------------------------------- Iteration      1(  14)  ---------------------------------------


    POTLOK:  cpu time    0.0310: real time    0.0312
    SETDIJ:  cpu time    0.1950: real time    0.1959
    TRIAL :  cpu time    0.4859: real time    0.4888
    CORREC:  cpu time    0.5047: real time    0.5076
    CHARGE:  cpu time    0.1265: real time    0.1274
    --------------------------------------------
      LOOP:  cpu time    1.3453: real time    1.3541

 eigenvalue-minimisations  :     0
 total energy-change (2. order) :-0.6591283E-06  (-0.1568560E-06)
 number of electron      14.0000000 magnetization 
 augmentation part       -0.4830410 magnetization 

 Free energy of the ion-electron system (eV)
  ---------------------------------------------------
  alpha Z        PSCENC =        17.15254597
  Ewald energy   TEWEN  =      -413.87025675
  -Hartree energ DENC   =       -22.75307548
  -exchange      EXHF   =         0.00000000
  -V(xc)+E(xc)   XCENC  =         9.19011038
  PAW double counting   =      2034.07598688    -2013.44882220
  entropy T*S    EENTRO =        -0.00028690
  eigenvalues    EBANDS =        10.56182385
  atomic energy  EATOM  =       348.47232061
  ---------------------------------------------------
  free energy    TOTEN  =       -30.61965352 eV

  energy without entropy =      -30.61936662  energy(sigma->0) =      -30.61951007


--------------------------------------------------------------------------------------------------------




--------------------------------------- Iteration      1(  15)  ---------------------------------------


    POTLOK:  cpu time    0.0303: real time    0.0304
    SETDIJ:  cpu time    0.1946: real time    0.1956
    TRIAL :  cpu time    0.4870: real time    0.4900
    CORREC:  cpu time    0.4974: real time    0.5004
    CHARGE:  cpu time    0.1217: real time    0.1226
    --------------------------------------------
      LOOP:  cpu time    1.3331: real time    1.3419

 eigenvalue-minimisations  :     0
 total energy-change (2. order) :-0.1268074E-06  (-0.4635011E-07)
 number of electron      14.0000000 magnetization 
 augmentation part       -0.4830380 magnetization 

 Free energy of the ion-electron system (eV)
  ---------------------------------------------------
  alpha Z        PSCENC =        17.15254597
  Ewald energy   TEWEN  =      -413.87025675
  -Hartree energ DENC   =       -22.75276110
  -exchange      EXHF   =         0.00000000
  -V(xc)+E(xc)   XCENC  =         9.19007472
  PAW double counting   =      2033.83910094    -2013.21193728
  entropy T*S    EENTRO =        -0.00028691
  eigenvalues    EBANDS =        10.56154614
  atomic energy  EATOM  =       348.47232061
  ---------------------------------------------------
  free energy    TOTEN  =       -30.61965364 eV

  energy without entropy =      -30.61936673  energy(sigma->0) =      -30.61951019


--------------------------------------------------------------------------------------------------------




--------------------------------------- Iteration      1(  16)  ---------------------------------------


    POTLOK:  cpu time    0.0303: real time    0.0305
    SETDIJ:  cpu time    0.1966: real time    0.1978
    TRIAL :  cpu time    0.5052: real time    0.5088
    CORREC:  cpu time    0.5015: real time    0.5046
    CHARGE:  cpu time    0.1267: real time    0.1276
    --------------------------------------------
      LOOP:  cpu time    1.3629: real time    1.3727

 eigenvalue-minimisations  :     0
 total energy-change (2. order) :-0.1215994E-07  (-0.1644079E-07)
 number of electron      14.0000000 magnetization 
 augmentation part       -0.4830380 magnetization 

 Free energy of the ion-electron system (eV)
  ---------------------------------------------------
  alpha Z        PSCENC =        17.15254597
  Ewald energy   TEWEN  =      -413.87025675
  -Hartree energ DENC   =       -22.75263498
  -exchange      EXHF   =         0.00000000
  -V(xc)+E(xc)   XCENC  =         9.19005193
  PAW double counting   =      2033.62255595    -2012.99539315
  entropy T*S    EENTRO =        -0.00028690
  eigenvalues    EBANDS =        10.56144367
  atomic energy  EATOM  =       348.47232061
  ---------------------------------------------------
  free energy    TOTEN  =       -30.61965366 eV

  energy without entropy =      -30.61936676  energy(sigma->0) =      -30.61951021


--------------------------------------------------------------------------------------------------------




--------------------------------------- Iteration      1(  17)  ---------------------------------------


    POTLOK:  cpu time    0.0305: real time    0.0307
    SETDIJ:  cpu time    0.2076: real time    0.2088
    TRIAL :  cpu time    0.5231: real time    0.5268
    CORREC:  cpu time    0.5094: real time    0.5124
    CHARGE:  cpu time    0.1178: real time    0.1186
    --------------------------------------------
      LOOP:  cpu time    1.3904: real time    1.4008

 eigenvalue-minimisations  :     0
 total energy-change (2. order) :-0.1398621E-07  (-0.4352878E-08)
 number of electron      14.0000000 magnetization 
 augmentation part       -0.4830380 magnetization 

 Free energy of the ion-electron system (eV)
  ---------------------------------------------------
  alpha Z        PSCENC =        17.15254597
  Ewald energy   TEWEN  =      -413.87025675
  -Hartree energ DENC   =       -22.75267768
  -exchange      EXHF   =         0.00000000
  -V(xc)+E(xc)   XCENC  =         9.19005973
  PAW double counting   =      2033.67504846    -2013.04788447
  entropy T*S    EENTRO =        -0.00028688
  eigenvalues    EBANDS =        10.56147736
  atomic energy  EATOM  =       348.47232061
  ---------------------------------------------------
  free energy    TOTEN  =       -30.61965367 eV

  energy without entropy =      -30.61936679  energy(sigma->0) =      -30.61951023


--------------------------------------------------------------------------------------------------------




--------------------------------------- Iteration      1(  18)  ---------------------------------------


    POTLOK:  cpu time    0.0310: real time    0.0312
    SETDIJ:  cpu time    0.1894: real time    0.1903
    TRIAL :  cpu time    0.4792: real time    0.4821
    CORREC:  cpu time    0.4990: real time    0.5020
    CHARGE:  cpu time    0.1282: real time    0.1291
    --------------------------------------------
      LOOP:  cpu time    1.3284: real time    1.3377

 eigenvalue-minimisations  :     0
 total energy-change (2. order) :-0.1378112E-08  (-0.1560365E-08)
 number of electron      14.0000000 magnetization 
 augmentation part       -0.4830381 magnetization 

 Free energy of the ion-electron system (eV)
  ---------------------------------------------------
  alpha Z        PSCENC =        17.15254597
  Ewald energy   TEWEN  =      -413.87025675
  -Hartree energ DENC   =       -22.75269680
  -exchange      EXHF   =         0.00000000
  -V(xc)+E(xc)   XCENC  =         9.19006302
  PAW double counting   =      2033.70565064    -2013.07848612
  entropy T*S    EENTRO =        -0.00028688
  eigenvalues    EBANDS =        10.56149265
  atomic energy  EATOM  =       348.47232061
  ---------------------------------------------------
  free energy    TOTEN  =       -30.61965367 eV

  energy without entropy =      -30.61936680  energy(sigma->0) =      -30.61951023


--------------------------------------------------------------------------------------------------------




--------------------------------------- Iteration      1(  19)  ---------------------------------------


    POTLOK:  cpu time    0.0308: real time    0.0309
    SETDIJ:  cpu time    0.1958: real time    0.1967
    TRIAL :  cpu time    0.4939: real time    0.4970
    CORREC:  cpu time    0.5060: real time    0.5089
    CHARGE:  cpu time    0.1225: real time    0.1234
    --------------------------------------------
      LOOP:  cpu time    1.3514: real time    1.3600

 eigenvalue-minimisations  :     0
 total energy-change (2. order) : 0.2883098E-09  (-0.1157715E-08)
 number of electron      14.0000000 magnetization 
 augmentation part       -0.4830382 magnetization 

 Free energy of the ion-electron system (eV)
  ---------------------------------------------------
  alpha Z        PSCENC =        17.15254597
  Ewald energy   TEWEN  =      -413.87025675
  -Hartree energ DENC   =       -22.75270343
  -exchange      EXHF   =         0.00000000
  -V(xc)+E(xc)   XCENC  =         9.19006387
  PAW double counting   =      2033.72151338    -2013.09434874
  entropy T*S    EENTRO =        -0.00028687
  eigenvalues    EBANDS =        10.56149829
  atomic energy  EATOM  =       348.47232061
  ---------------------------------------------------
  free energy    TOTEN  =       -30.61965367 eV

  energy without entropy =      -30.61936680  energy(sigma->0) =      -30.61951024


--------------------------------------------------------------------------------------------------------




--------------------------------------- Iteration      1(  20)  ---------------------------------------


    POTLOK:  cpu time    0.0311: real time    0.0312
    SETDIJ:  cpu time    0.1947: real time    0.1956
    TRIAL :  cpu time    0.5144: real time    0.5177
    CORREC:  cpu time    0.4927: real time    0.4956
    EDDIAG:  cpu time    0.1468: real time    0.1478
    CHARGE:  cpu time    0.1266: real time    0.1275
    --------------------------------------------
      LOOP:  cpu time    1.5091: real time    1.5187

 eigenvalue-minimisations  :     0
 total energy-change (2. order) : 0.1014087E-09  (-0.7355325E-09)
 number of electron      14.0000000 magnetization 
 augmentation part       -0.4830383 magnetization 

 Free energy of the ion-electron system (eV)
  ---------------------------------------------------
  alpha Z        PSCENC =        17.15254597
  Ewald energy   TEWEN  =      -413.87025675
  -Hartree energ DENC   =       -22.75271043
  -exchange      EXHF   =         0.00000000
  -V(xc)+E(xc)   XCENC  =         9.19006470
  PAW double counting   =      2033.73545449    -2013.10828980
  entropy T*S    EENTRO =        -0.00028686
  eigenvalues    EBANDS =        10.56150441
  atomic energy  EATOM  =       348.47232061
  ---------------------------------------------------
  free energy    TOTEN  =       -30.61965367 eV

  energy without entropy =      -30.61936681  energy(sigma->0) =      -30.61951024


--------------------------------------------------------------------------------------------------------


  average scaling for gradient   1.8400


 average (electrostatic) potential at core
  the test charge radii are     0.7672  0.9892
  (the norm of the test charge is              1.0000)
       1 -26.9370       2 -26.9370       3 -85.6395       4 -85.6395
 
 
 
 E-fermi :   5.6450     XC(G=0): -11.0147     alpha+bet :-13.7120

 Fermi energy:         5.6449654102

 k-point     1 :       0.0000    0.0000    0.0000
  band No.  band energies     occupation 
      1      -7.4021      2.00000
      2      -4.4924      2.00000
      3      -2.0130      2.00000
      4       5.7621      0.00000
      5       7.1757      0.00000
      6       7.1758      0.00000
      7       8.6417      0.00000
      8       8.6417      0.00000
      9      10.4784      0.00000
     10      12.3824      0.00000
     11      12.3825      0.00000
     12      13.3766      0.00000

 k-point     2 :       0.0769   -0.0000    0.0000
  band No.  band energies     occupation 
      1      -7.2945      2.00000
      2      -4.3859      2.00000
      3      -1.9203      2.00000
      4       5.7403      0.00000
      5       6.4844      0.00000
      6       6.9205      0.00000
      7       8.1499      0.00000
      8       8.5081      0.00000
      9      10.5835      0.00000
     10      12.0764      0.00000
     11      12.5419      0.00000
     12      13.8346      0.00000

 k-point     3 :       0.1538   -0.0000    0.0000
  band No.  band energies     occupation 
      1      -6.9728      2.00000
      2      -4.0678      2.00000
      3      -1.6480      2.00000
      4       4.9444      2.00000
      5       5.6726      0.04919
      6       6.3592      0.00000
      7       6.9319      0.00000
      8       8.1250      0.00000
      9      10.7934      0.00000
     10      11.4017      0.00000
     11      12.8173      0.00000
     12      14.0145      0.00000

 k-point     4 :       0.2308    0.0000    0.0000
  band No.  band energies     occupation 
      1      -6.4415      2.00000
      2      -3.5422      2.00000
      3      -1.2215      2.00000
      4       3.2256      2.00000
      5       5.3221      2.00000
      6       5.4840      2.00000
      7       5.7588      0.00000
      8       7.6357      0.00000
      9      10.4936      0.00000
     10      11.3319      0.00000
     11      12.7167      0.00000
     12      12.8382      0.00000

 k-point     5 :       0.3077   -0.0000    0.0000
  band No.  band energies     occupation 
      1      -5.7106      2.00000
      2      -2.8185      2.00000
      3      -0.7483      2.00000
      4       1.6303      2.00000
      5       3.7723      2.00000
      6       4.8982      2.00000
      7       5.2509      2.00000
      8       7.1875      0.00000
      9      10.0527      0.00000
     10      11.1399      0.00000
[...]
      9      11.2075      0.00000
     10      12.2773      0.00000
     11      13.3081      0.00000
     12      13.9509      0.00000

 k-point    52 :       0.2308    0.0769    0.3333
  band No.  band energies     occupation 
      1      -5.5978      2.00000
      2      -4.3851      2.00000
      3       0.9230      2.00000
      4       2.8725      2.00000
      5       3.2557      2.00000
      6       4.5300      2.00000
      7       5.3398      2.00000
      8       6.2605      0.00000
      9      10.4418      0.00000
     10      11.7827      0.00000
     11      12.6125      0.00000
     12      13.8164      0.00000

 k-point    53 :       0.3077    0.0769    0.3333
  band No.  band energies     occupation 
      1      -4.7817      2.00000
      2      -3.5833      2.00000
      3       0.5442      2.00000
      4       1.8356      2.00000
      5       2.3193      2.00000
      6       4.4085      2.00000
      7       4.9014      2.00000
      8       5.8142      0.00000
      9       9.7097      0.00000
     10      11.2764      0.00000
     11      11.9436      0.00000
     12      13.2914      0.00000

 k-point    54 :       0.3846    0.0769    0.3333
  band No.  band energies     occupation 
      1      -3.8363      2.00000
      2      -2.6809      2.00000
      3      -0.6687      2.00000
      4       0.4831      2.00000
      5       2.6988      2.00000
      6       4.2847      2.00000
      7       4.6431      2.00000
      8       5.5413      2.00000
      9       9.2516      0.00000
     10      10.8470      0.00000
     11      11.6049      0.00000
     12      12.5560      0.00000

 k-point    55 :       0.4615    0.0769    0.3333
  band No.  band energies     occupation 
      1      -3.1790      2.00000
      2      -2.2008      2.00000
      3      -1.2984      2.00000
      4      -0.3255      2.00000
      5       2.9926      2.00000
      6       4.1894      2.00000
      7       4.5122      2.00000
      8       5.4453      2.00000
      9       9.1289      0.00000
     10      10.6636      0.00000
     11      11.5170      0.00000
     12      12.2462      0.00000

 k-point    56 :       0.1538    0.1538    0.3333
  band No.  band energies     occupation 
      1      -5.7015      2.00000
      2      -4.4873      2.00000
      3       0.8989      2.00000
      4       3.4145      2.00000
      5       3.4370      2.00000
      6       4.6335      2.00000
      7       5.0330      2.00000
      8       5.8132      0.00000
      9      11.0364      0.00000
     10      11.8613      0.00000
     11      13.4476      0.00000
     12      14.1123      0.00000

 k-point    57 :       0.2308    0.1538    0.3333
  band No.  band energies     occupation 
      1      -4.9800      2.00000
      2      -3.7771      2.00000
      3       0.9526      2.00000
      4       2.4483      2.00000
      5       2.6258      2.00000
      6       3.9205      2.00000
      7       4.6409      2.00000
      8       5.0467      2.00000
      9      10.4284      0.00000
     10      11.3477      0.00000
     11      13.2501      0.00000
     12      13.6221      0.00000

 k-point    58 :       0.3077    0.1538    0.3333
  band No.  band energies     occupation 
      1      -4.0918      2.00000
      2      -2.9146      2.00000
      3       0.0374      2.00000
      4       1.2337      2.00000
      5       2.5925      2.00000
      6       3.5112      2.00000
      7       4.3099      2.00000
      8       4.8012      2.00000
      9       9.7582      0.00000
     10      11.0872      0.00000
     11      12.6776      0.00000
     12      13.0233      0.00000

 k-point    59 :       0.3846    0.1538    0.3333
  band No.  band energies     occupation 
      1      -3.1730      2.00000
      2      -2.1232      2.00000
      3      -0.9790      2.00000
      4       0.0672      2.00000
      5       2.7623      2.00000
      6       3.6102      2.00000
      7       4.0164      2.00000
      8       4.6200      2.00000
      9       9.3945      0.00000
     10      11.0658      0.00000
     11      12.0594      0.00000
     12      12.7785      0.00000

 k-point    60 :       0.2308    0.2308    0.3333
  band No.  band energies     occupation 
      1      -4.1811      2.00000
      2      -2.9985      2.00000
      3       0.4397      2.00000
      4       1.6758      2.00000
      5       2.7655      2.00000
      6       2.7843      2.00000
      7       3.8823      2.00000
      8       4.7006      2.00000
      9      10.4284      0.00000
     10      10.4879      0.00000
     11      12.9392      0.00000
     12      13.7573      0.00000

 k-point    61 :       0.3077    0.2308    0.3333
  band No.  band energies     occupation 
      1      -3.2559      2.00000
      2      -2.1465      2.00000
      3      -0.4343      2.00000
      4       0.6714      2.00000
      5       2.0780      2.00000
      6       3.0964      2.00000
      7       3.4260      2.00000
      8       4.5625      2.00000
      9       9.7867      0.00000
     10      10.7083      0.00000
     11      12.0942      0.00000
     12      13.5878      0.00000

 k-point    62 :       0.3846    0.2308    0.3333
  band No.  band energies     occupation 
      1      -2.5867      2.00000
      2      -1.8116      2.00000
      3      -0.8228      2.00000
      4      -0.0435      2.00000
      5       1.8621      2.00000
      6       2.9733      2.00000
      7       3.7073      2.00000
      8       4.3689      2.00000
      9       9.5329      0.00000
     10      11.2672      0.00000
     11      11.3083      0.00000
     12      13.4861      0.00000

 k-point    63 :       0.3077    0.3077    0.3333
  band No.  band energies     occupation 
      1      -2.3801      2.00000
      2      -1.7066      2.00000
      3      -0.6076      2.00000
      4       0.0635      2.00000
      5       1.3208      2.00000
      6       2.4248      2.00000
      7       3.8338      2.00000
      8       4.3071      2.00000
      9       9.5971      0.00000
     10      10.9401      0.00000
     11      11.5267      0.00000
     12      13.2153      0.00000

 k-point    64 :       0.0000    0.0000    0.5000
  band No.  band energies     occupation 
      1      -6.4481      2.00000
      2      -6.4481      2.00000
      3       1.6348      2.00000
      4       1.6348      2.00000
      5       7.7953      0.00000
      6       7.7954      0.00000
      7       7.7954      0.00000
      8       7.7954      0.00000
      9      13.1259      0.00000
     10      13.1259      0.00000
     11      13.3884      0.00000
     12      13.3884      0.00000

 k-point    65 :       0.0769   -0.0000    0.5000
  band No.  band energies     occupation 
      1      -6.3413      2.00000
      2      -6.3413      2.00000
      3       1.7109      2.00000
      4       1.7109      2.00000
      5       7.1631      0.00000
      6       7.1631      0.00000
      7       7.5769      0.00000
      8       7.5769      0.00000
      9      12.6903      0.00000
     10      12.6904      0.00000
     11      13.8382      0.00000
     12      13.8800      0.00000

 k-point    66 :       0.1538   -0.0000    0.5000
  band No.  band energies     occupation 
      1      -6.0222      2.00000
      2      -6.0222      2.00000
      3       1.9233      2.00000
      4       1.9233      2.00000
      5       5.7472      0.00000
      6       5.7472      0.00000
      7       7.0701      0.00000
      8       7.0701      0.00000
      9      11.9577      0.00000
     10      11.9577      0.00000
     11      14.3812      0.00000
     12      14.3908      0.00000

 k-point    67 :       0.2308    0.0000    0.5000
  band No.  band energies     occupation 
      1      -5.4956      2.00000
      2      -5.4956      2.00000
      3       2.1757      2.00000
      4       2.1757      2.00000
      5       4.1787      2.00000
      6       4.1787      2.00000
      7       6.5045      0.00000
      8       6.5045      0.00000
      9      11.1882      0.00000
     10      11.1882      0.00000
     11      13.6760      0.00000
     12      13.6760      0.00000

 k-point    68 :       0.3077   -0.0000    0.5000
  band No.  band energies     occupation 
      1      -4.7728      2.00000
      2      -4.7728      2.00000
      3       1.7865      2.00000
      4       1.7865      2.00000
      5       3.3472      2.00000
      6       3.3472      2.00000
      7       6.0158      0.00000
      8       6.0158      0.00000
      9      10.4795      0.00000
     10      10.4795      0.00000
     11      12.5472      0.00000
     12      12.5472      0.00000

 k-point    69 :       0.3846   -0.0000    0.5000
  band No.  band energies     occupation 
      1      -3.8859      2.00000
      2      -3.8859      2.00000
      3       0.4471      2.00000
      4       0.4471      2.00000
      5       3.6039      2.00000
      6       3.6039      2.00000
      7       5.6673      0.11285
      8       5.6673      0.11284
      9       9.8537      0.00000
     10       9.8537      0.00000
     11      11.6529      0.00000
     12      11.6529      0.00000

 k-point    70 :       0.4615   -0.0000    0.5000
  band No.  band energies     occupation 
      1      -2.9902      2.00000
      2      -2.9902      2.00000
      3      -0.7593      2.00000
      4      -0.7593      2.00000
      5       3.9006      2.00000
      6       3.9006      2.00000
      7       5.4875      2.00000
      8       5.4875      2.00000
      9       9.4271      0.00000
     10       9.4271      0.00000
     11      11.2031      0.00000
     12      11.2031      0.00000

 k-point    71 :       0.0769    0.0769    0.5000
  band No.  band energies     occupation 
      1      -6.1283      2.00000
      2      -6.1283      2.00000
      3       1.8558      2.00000
      4       1.8558      2.00000
      5       6.2477      0.00000
      6       6.2477      0.00000
      7       7.0893      0.00000
      8       7.0893      0.00000
      9      12.3956      0.00000
     10      12.3956      0.00000
     11      13.7802      0.00000
     12      13.7805      0.00000

 k-point    72 :       0.1538    0.0769    0.5000
  band No.  band energies     occupation 
      1      -5.7053      2.00000
      2      -5.7053      2.00000
      3       2.1023      2.00000
      4       2.1023      2.00000
      5       4.8820      2.00000
      6       4.8820      2.00000
      7       6.3684      0.00000
      8       6.3684      0.00000
      9      11.8677      0.00000
     10      11.8677      0.00000
     11      14.0003      0.00000
     12      14.0007      0.00000

 k-point    73 :       0.2308    0.0769    0.5000
  band No.  band energies     occupation 
      1      -5.0796      2.00000
      2      -5.0796      2.00000
      3       2.1716      2.00000
      4       2.1716      2.00000
      5       3.6083      2.00000
      6       3.6083      2.00000
      7       5.7393      0.00000
      8       5.7393      0.00000
      9      11.1637      0.00000
     10      11.1637      0.00000
     11      13.3198      0.00000
     12      13.3198      0.00000

 k-point    74 :       0.3077    0.0769    0.5000
  band No.  band energies     occupation 
      1      -4.2698      2.00000
      2      -4.2698      2.00000
      3       1.1756      2.00000
      4       1.1756      2.00000
      5       3.4707      2.00000
      6       3.4707      2.00000
      7       5.2843      2.00000
      8       5.2843      2.00000
      9      10.4231      0.00000
     10      10.4231      0.00000
     11      12.4559      0.00000
     12      12.4559      0.00000

 k-point    75 :       0.3846    0.0769    0.5000
  band No.  band energies     occupation 
      1      -3.3398      2.00000
      2      -3.3398      2.00000
      3      -0.1660      2.00000
      4      -0.1660      2.00000
      5       3.7759      2.00000
      6       3.7759      2.00000
      7       5.0331      2.00000
      8       5.0331      2.00000
      9       9.7819      0.00000
     10       9.7819      0.00000
     11      11.9111      0.00000
     12      11.9111      0.00000

 k-point    76 :       0.4615    0.0769    0.5000
  band No.  band energies     occupation 
      1      -2.7183      2.00000
      2      -2.7183      2.00000
      3      -0.9431      2.00000
      4      -0.9431      2.00000
      5       3.9146      2.00000
      6       3.9146      2.00000
      7       4.9661      2.00000
      8       4.9661      2.00000
      9       9.5127      0.00000
     10       9.5127      0.00000
     11      11.7354      0.00000
     12      11.7354      0.00000

 k-point    77 :       0.1538    0.1538    0.5000
  band No.  band energies     occupation 
      1      -5.1826      2.00000
      2      -5.1826      2.00000
      3       2.2539      2.00000
      4       2.2539      2.00000
      5       3.9912      2.00000
      6       3.9912      2.00000
      7       5.2845      2.00000
      8       5.2845      2.00000
      9      11.7078      0.00000
     10      11.7078      0.00000
     11      13.8201      0.00000
     12      13.8202      0.00000

 k-point    78 :       0.2308    0.1538    0.5000
  band No.  band energies     occupation 
      1      -4.4662      2.00000
      2      -4.4662      2.00000
      3       1.7786      2.00000
      4       1.7786      2.00000
      5       3.5367      2.00000
      6       3.5367      2.00000
      7       4.4833      2.00000
      8       4.4833      2.00000
      9      11.0864      0.00000
     10      11.0864      0.00000
     11      13.4113      0.00000
     12      13.4113      0.00000

 k-point    79 :       0.3077    0.1538    0.5000
  band No.  band energies     occupation 
      1      -3.5884      2.00000
      2      -3.5884      2.00000
      3       0.5790      2.00000
      4       0.5790      2.00000
      5       3.5295      2.00000
      6       3.5295      2.00000
      7       4.2321      2.00000
      8       4.2321      2.00000
      9      10.3612      0.00000
     10      10.3612      0.00000
     11      12.9518      0.00000
     12      12.9518      0.00000

 k-point    80 :       0.3846    0.1538    0.5000
  band No.  band energies     occupation 
      1      -2.7024      2.00000
      2      -2.7024      2.00000
      3      -0.5592      2.00000
      4      -0.5592      2.00000
      5       3.4257      2.00000
      6       3.4257      2.00000
      7       4.3710      2.00000
      8       4.3710      2.00000
      9       9.8667      0.00000
     10       9.8667      0.00000
     11      12.6933      0.00000
     12      12.6933      0.00000

 k-point    81 :       0.2308    0.2308    0.5000
  band No.  band energies     occupation 
      1      -3.6758      2.00000
      2      -3.6758      2.00000
      3       1.0202      2.00000
      4       1.0202      2.00000
      5       3.2037      2.00000
      6       3.2037      2.00000
      7       3.9749      2.00000
      8       3.9749      2.00000
      9      10.7047      0.00000
     10      10.7047      0.00000
     11      12.8519      0.00000
     12      12.8519      0.00000

 k-point    82 :       0.3077    0.2308    0.5000
  band No.  band energies     occupation 
      1      -2.7739      2.00000
      2      -2.7738      2.00000
      3       0.0402      2.00000
      4       0.0402      2.00000
      5       2.5636      2.00000
      6       2.5636      2.00000
      7       4.2744      2.00000
      8       4.2744      2.00000
      9      10.3287      0.00000
     10      10.3287      0.00000
     11      12.2617      0.00000
     12      12.2617      0.00000

 k-point    83 :       0.3846    0.2308    0.5000
  band No.  band energies     occupation 
      1      -2.1708      2.00000
      2      -2.1708      2.00000
      3      -0.6193      2.00000
      4      -0.6193      2.00000
      5       2.3621      2.00000
      6       2.3621      2.00000
      7       4.4159      2.00000
      8       4.4159      2.00000
      9      10.1673      0.00000
     10      10.1673      0.00000
     11      12.0464      0.00000
     12      12.0464      0.00000

 k-point    84 :       0.3077    0.3077    0.5000
  band No.  band energies     occupation 
      1      -1.9912      2.00000
      2      -1.9912      2.00000
      3      -0.4808      2.00000
      4      -0.4808      2.00000
      5       1.8066      2.00000
      6       1.8066      2.00000
      7       4.4619      2.00000
      8       4.4619      2.00000
      9      10.4975      0.00000
     10      10.4975      0.00000
     11      11.4675      0.00000
     12      11.4675      0.00000


--------------------------------------------------------------------------------------------------------


 soft charge-density along one line, spin component           1
         0         1         2         3         4         5         6         7         8         9
 total charge-density along one line
 
 pseudopotential strength for first ion, spin component:           1
  6.100   9.252  -0.000  -0.002   0.000  -0.000  -0.003   0.000
  9.252  14.025  -0.000  -0.002   0.000  -0.000  -0.005   0.000
 -0.000  -0.000  -2.024  -0.000   0.000  -3.394  -0.000   0.000
 -0.002  -0.002  -0.000  -2.041  -0.000  -0.000  -3.424  -0.000
  0.000   0.000   0.000  -0.000  -2.024   0.000  -0.000  -3.394
 -0.000  -0.000  -3.394  -0.000   0.000  -5.481  -0.000   0.000
 -0.003  -0.005  -0.000  -3.424  -0.000  -0.000  -5.535  -0.000
  0.000   0.000   0.000  -0.000  -3.394   0.000  -0.000  -5.481
 total augmentation occupancy for first ion, spin component:           1
  3.505  -0.871   0.000  -0.060   0.000   0.000   0.034   0.000
 -0.871   0.232   0.000   0.048   0.000   0.000  -0.017   0.000
  0.000   0.000   2.305   0.000   0.000  -0.591  -0.000   0.000
 -0.060   0.048  -0.000   3.183   0.000   0.000  -0.813   0.000
  0.000   0.000   0.000   0.000   2.305   0.000  -0.000  -0.591
  0.000   0.000  -0.591   0.000   0.000   0.155  -0.000   0.000
  0.034  -0.017   0.000  -0.813  -0.000   0.000   0.213  -0.000
  0.000   0.000   0.000  -0.000  -0.591   0.000   0.000   0.155


------------------------ aborting loop because EDIFF is reached ----------------------------------------




--------------------------------------------------------------------------------------------------------



  FREE ENERGIE OF THE ION-ELECTRON SYSTEM (eV)
  ---------------------------------------------------
  free  energy   TOTEN  =       -30.61965367 eV

  energy  without entropy=      -30.61936681  energy(sigma->0) =      -30.61951024
 


--------------------------------------------------------------------------------------------------------


    POTLOK:  cpu time    0.2361: real time    0.2393


--------------------------------------------------------------------------------------------------------


 writing wavefunctions
     LOOP+:  cpu time   24.5898: real time   24.7747
    4ORBIT:  cpu time    0.0000: real time    0.0000

 total amount of memory used by VASP MPI-rank0    54134. kBytes
=======================================================================

   base      :      30000. kBytes
   nonl-proj :       9409. kBytes
   fftplans  :       4454. kBytes
   grid      :       3107. kBytes
   one-center:          6. kBytes
   wavefun   :       7158. kBytes
 
  
  
 General timing and accounting informations for this job:
 ========================================================
  
                  Total CPU time used (sec):       25.948
                            User time (sec):       25.074
                          System time (sec):        0.874
                         Elapsed time (sec):       27.099
  
                   Maximum memory used (kb):      177492.
                   Average memory used (kb):          N/A
  
                          Minor page faults:        80400
                          Major page faults:           52
                 Voluntary context switches:         1115
