<?xml version="1.0" encoding="ISO-8859-1"?>
<modeling>
 <generator>
  <i name="program" type="string">vasp </i>
  <i name="version" type="string">6.2.0  </i>
  <i name="subversion" type="string">18Jan21 (build Jan 05 2022 15:41:44) complex                          parallel </i>
  <i name="platform" type="string">LinuxIFC </i>
  <i name="date" type="string">2025 05 07 </i>
  <i name="time" type="string">15:16:23 </i>
 </generator>
 <incar>
  <i type="string" name="SYSTEM">routine with relax: pwdword</i>
  <i type="string" name="PREC">Acc</i>
  <i type="int" name="IALGO">    38</i>
  <i type="string" name="ALGO">A</i>
  <i type="logical" name="ADDGRID"> T  </i>
  <i type="int" name="ICHARG">     2</i>
  <i type="int" name="NELM">   100</i>
  <i type="int" name="NELMIN">     6</i>
  <i name="EDIFF">      0.00000000</i>
  <i type="int" name="NSW">     0</i>
  <i type="int" name="ISIF">    -1</i>
  <i name="SYMPREC">      0.00010000</i>
  <i name="ENCUT">    600.00000000</i>
  <i type="logical" name="LREAL"> F  </i>
  <i type="int" name="ISMEAR">     0</i>
  <i name="SIGMA">      0.02000000</i>
  <i type="logical" name="LASPH"> T  </i>
  <i type="string" name="METAGGA">R2SCAN</i>
  <i type="logical" name="LMIXTAU"> F  </i>
 </incar>
 <primitive_cell>
  <structure name="primitive_cell" >
   <crystal>
    <varray name="basis" >
     <v>       4.85665502       0.00000000      -2.92706322 </v>
     <v>      -1.54968407       4.60277930      -2.92706322 </v>
     <v>       0.00000000       0.00000000       5.67052000 </v>
    </varray>
    <i name="volume">    126.75943445 </i>
    <varray name="rec_basis" >
     <v>       0.20590303       0.06932434       0.00000000 </v>
     <v>       0.00000000       0.21726004       0.00000000 </v>
     <v>       0.10628500       0.14793186       0.17635067 </v>
    </varray>
   </crystal>
   <varray name="positions" >
    <v>       0.50000000       0.50000000       0.50000000 </v>
    <v>       0.50000000       0.00000000       0.00000000 </v>
    <v>       0.00000000       0.00000000       0.50000000 </v>
    <v>       0.00000000       0.50000000       0.00000000 </v>
    <v>       0.23247000       0.73247000       0.96495000 </v>
    <v>       0.25000000       0.25000000       0.00000000 </v>
    <v>       0.76753000       0.26753000       0.03505000 </v>
    <v>       0.75000000       0.75000000       0.00000000 </v>
    <v>       0.73247000       0.76753000       0.50000000 </v>
    <v>       0.26753000       0.23247000       0.50000000 </v>
    <v>       0.29132000       0.20868000       0.50000000 </v>
    <v>       0.70868000       0.79132000       0.50000000 </v>
    <v>       0.20868000       0.70868000       0.91737000 </v>
    <v>       0.79132000       0.29132000       0.08263000 </v>
   </varray>
  </structure>
  <varray name="primitive_index" >
   <v type="int" >        1 </v>
   <v type="int" >        2 </v>
   <v type="int" >        3 </v>
   <v type="int" >        4 </v>
   <v type="int" >        5 </v>
   <v type="int" >        6 </v>
   <v type="int" >        7 </v>
   <v type="int" >        8 </v>
   <v type="int" >        9 </v>
   <v type="int" >       10 </v>
   <v type="int" >       11 </v>
   <v type="int" >       12 </v>
   <v type="int" >       13 </v>
   <v type="int" >       14 </v>
  </varray>
 </primitive_cell>
 <kpoints>
  <generation param="Gamma">
   <v type="int" name="divisions">       8        8        9 </v>
   <v name="usershift">      0.00000000       0.00000000       0.00000000 </v>
   <v name="genvec1">      0.12500000       0.00000000       0.00000000 </v>
   <v name="genvec2">      0.00000000       0.12500000       0.00000000 </v>
   <v name="genvec3">      0.00000000       0.00000000       0.11111111 </v>
   <v name="shift">      0.00000000       0.00000000       0.00000000 </v>
  </generation>
  <varray name="kpointlist" >
   <v>       0.00000000       0.00000000       0.00000000 </v>
   <v>       0.12500000      -0.00000000       0.00000000 </v>
   <v>       0.25000000      -0.00000000       0.00000000 </v>
   <v>       0.37500000      -0.00000000       0.00000000 </v>
   <v>       0.50000000      -0.00000000       0.00000000 </v>
   <v>       0.12500000       0.12500000       0.00000000 </v>
   <v>       0.25000000       0.12500000       0.00000000 </v>
   <v>       0.37500000       0.12500000       0.00000000 </v>
   <v>       0.50000000       0.12500000       0.00000000 </v>
   <v>      -0.37500000       0.12500000       0.00000000 </v>
   <v>      -0.25000000       0.12500000       0.00000000 </v>
   <v>      -0.12500000       0.12500000       0.00000000 </v>
   <v>       0.25000000       0.25000000       0.00000000 </v>
   <v>       0.37500000       0.25000000       0.00000000 </v>
   <v>       0.50000000       0.25000000       0.00000000 </v>
   <v>      -0.37500000       0.25000000       0.00000000 </v>
   <v>      -0.25000000       0.25000000       0.00000000 </v>
   <v>       0.37500000       0.37500000       0.00000000 </v>
   <v>       0.50000000       0.37500000       0.00000000 </v>
   <v>      -0.37500000       0.37500000       0.00000000 </v>
   <v>       0.50000000       0.50000000       0.00000000 </v>
   <v>      -0.00000000      -0.00000000       0.11111111 </v>
   <v>       0.12500000      -0.00000000       0.11111111 </v>
   <v>       0.25000000      -0.00000000       0.11111111 </v>
   <v>       0.37500000      -0.00000000       0.11111111 </v>
   <v>       0.50000000      -0.00000000       0.11111111 </v>
   <v>      -0.37500000       0.00000000       0.11111111 </v>
   <v>      -0.25000000      -0.00000000       0.11111111 </v>
   <v>      -0.12500000      -0.00000000       0.11111111 </v>
   <v>       0.12500000       0.12500000       0.11111111 </v>
   <v>       0.25000000       0.12500000       0.11111111 </v>
   <v>       0.37500000       0.12500000       0.11111111 </v>
   <v>       0.50000000       0.12500000       0.11111111 </v>
   <v>      -0.37500000       0.12500000       0.11111111 </v>
   <v>      -0.25000000       0.12500000       0.11111111 </v>
   <v>      -0.12500000       0.12500000       0.11111111 </v>
   <v>       0.25000000       0.25000000       0.11111111 </v>
   <v>       0.37500000       0.25000000       0.11111111 </v>
   <v>       0.50000000       0.25000000       0.11111111 </v>
   <v>      -0.37500000       0.25000000       0.11111111 </v>
   <v>      -0.25000000       0.25000000       0.11111111 </v>
   <v>      -0.12500000       0.25000000       0.11111111 </v>
   <v>       0.37500000       0.37500000       0.11111111 </v>
   <v>       0.50000000       0.37500000       0.11111111 </v>
   <v>      -0.37500000       0.37500000       0.11111111 </v>
   <v>      -0.25000000       0.37500000       0.11111111 </v>
   <v>      -0.12500000       0.37500000       0.11111111 </v>
   <v>       0.50000000       0.50000000       0.11111111 </v>
   <v>      -0.37500000       0.50000000       0.11111111 </v>
   <v>      -0.25000000       0.50000000       0.11111111 </v>
   <v>      -0.12500000       0.50000000       0.11111111 </v>
   <v>      -0.37500000      -0.37500000       0.11111111 </v>
   <v>      -0.25000000      -0.37500000       0.11111111 </v>
   <v>      -0.12500000      -0.37500000       0.11111111 </v>
   <v>      -0.25000000      -0.25000000       0.11111111 </v>
   <v>      -0.12500000      -0.25000000       0.11111111 </v>
   <v>      -0.12500000      -0.12500000       0.11111111 </v>
   <v>       0.00000000      -0.00000000       0.22222222 </v>
   <v>       0.12500000      -0.00000000       0.22222222 </v>
   <v>       0.25000000      -0.00000000       0.22222222 </v>
   <v>       0.37500000       0.00000000       0.22222222 </v>
   <v>       0.50000000       0.00000000       0.22222222 </v>
   <v>      -0.37500000       0.00000000       0.22222222 </v>
   <v>      -0.25000000       0.00000000       0.22222222 </v>
   <v>      -0.12500000       0.00000000       0.22222222 </v>
   <v>       0.12500000       0.12500000       0.22222222 </v>
   <v>       0.25000000       0.12500000       0.22222222 </v>
   <v>       0.37500000       0.12500000       0.22222222 </v>
   <v>       0.50000000       0.12500000       0.22222222 </v>
   <v>      -0.37500000       0.12500000       0.22222222 </v>
   <v>      -0.25000000       0.12500000       0.22222222 </v>
   <v>      -0.12500000       0.12500000       0.22222222 </v>
   <v>       0.25000000       0.25000000       0.22222222 </v>
   <v>       0.37500000       0.25000000       0.22222222 </v>
   <v>       0.50000000       0.25000000       0.22222222 </v>
   <v>      -0.37500000       0.25000000       0.22222222 </v>
   <v>      -0.25000000       0.25000000       0.22222222 </v>
   <v>      -0.12500000       0.25000000       0.22222222 </v>
   <v>       0.37500000       0.37500000       0.22222222 </v>
   <v>       0.50000000       0.37500000       0.22222222 </v>
   <v>      -0.37500000       0.37500000       0.22222222 </v>
   <v>      -0.25000000       0.37500000       0.22222222 </v>
   <v>      -0.12500000       0.37500000       0.22222222 </v>
   <v>       0.50000000       0.50000000       0.22222222 </v>
   <v>      -0.37500000       0.50000000       0.22222222 </v>
   <v>      -0.25000000       0.50000000       0.22222222 </v>
   <v>      -0.12500000       0.50000000       0.22222222 </v>
   <v>      -0.37500000      -0.37500000       0.22222222 </v>
   <v>      -0.25000000      -0.37500000       0.22222222 </v>
   <v>      -0.12500000      -0.37500000       0.22222222 </v>
   <v>      -0.25000000      -0.25000000       0.22222222 </v>
   <v>      -0.12500000      -0.25000000       0.22222222 </v>
   <v>      -0.12500000      -0.12500000       0.22222222 </v>
   <v>       0.00000000      -0.00000000       0.33333333 </v>
   <v>       0.12500000      -0.00000000       0.33333333 </v>
   <v>       0.25000000      -0.00000000       0.33333333 </v>
   <v>       0.37500000      -0.00000000       0.33333333 </v>
   <v>       0.50000000      -0.00000000       0.33333333 </v>
   <v>      -0.37500000      -0.00000000       0.33333333 </v>
   <v>      -0.25000000      -0.00000000       0.33333333 </v>
   <v>      -0.12500000      -0.00000000       0.33333333 </v>
   <v>       0.12500000       0.12500000       0.33333333 </v>
   <v>       0.25000000       0.12500000       0.33333333 </v>
   <v>       0.37500000       0.12500000       0.33333333 </v>
   <v>       0.50000000       0.12500000       0.33333333 </v>
   <v>      -0.37500000       0.12500000       0.33333333 </v>
   <v>      -0.25000000       0.12500000       0.33333333 </v>
   <v>      -0.12500000       0.12500000       0.33333333 </v>
   <v>       0.25000000       0.25000000       0.33333333 </v>
   <v>       0.37500000       0.25000000       0.33333333 </v>
   <v>       0.50000000       0.25000000       0.33333333 </v>
   <v>      -0.37500000       0.25000000       0.33333333 </v>
   <v>      -0.25000000       0.25000000       0.33333333 </v>
   <v>      -0.12500000       0.25000000       0.33333333 </v>
   <v>       0.37500000       0.37500000       0.33333333 </v>
   <v>       0.50000000       0.37500000       0.33333333 </v>
   <v>      -0.37500000       0.37500000       0.33333333 </v>
   <v>      -0.25000000       0.37500000       0.33333333 </v>
   <v>      -0.12500000       0.37500000       0.33333333 </v>
   <v>       0.50000000       0.50000000       0.33333333 </v>
   <v>      -0.37500000       0.50000000       0.33333333 </v>
   <v>      -0.25000000       0.50000000       0.33333333 </v>
   <v>      -0.12500000       0.50000000       0.33333333 </v>
   <v>      -0.37500000      -0.37500000       0.33333333 </v>
   <v>      -0.25000000      -0.37500000       0.33333333 </v>
   <v>      -0.12500000      -0.37500000       0.33333333 </v>
   <v>      -0.25000000      -0.25000000       0.33333333 </v>
   <v>      -0.12500000      -0.25000000       0.33333333 </v>
   <v>      -0.12500000      -0.12500000       0.33333333 </v>
   <v>       0.00000000      -0.00000000       0.44444444 </v>
   <v>       0.12500000      -0.00000000       0.44444444 </v>
   <v>       0.25000000      -0.00000000       0.44444444 </v>
   <v>       0.37500000      -0.00000000       0.44444444 </v>
   <v>       0.50000000      -0.00000000       0.44444444 </v>
   <v>      -0.37500000       0.00000000       0.44444444 </v>
   <v>      -0.25000000       0.00000000       0.44444444 </v>
   <v>      -0.12500000      -0.00000000       0.44444444 </v>
   <v>       0.12500000       0.12500000       0.44444444 </v>
   <v>       0.25000000       0.12500000       0.44444444 </v>
   <v>       0.37500000       0.12500000       0.44444444 </v>
   <v>       0.50000000       0.12500000       0.44444444 </v>
   <v>      -0.37500000       0.12500000       0.44444444 </v>
   <v>      -0.25000000       0.12500000       0.44444444 </v>
   <v>      -0.12500000       0.12500000       0.44444444 </v>
   <v>       0.25000000       0.25000000       0.44444444 </v>
   <v>       0.37500000       0.25000000       0.44444444 </v>
   <v>       0.50000000       0.25000000       0.44444444 </v>
   <v>      -0.37500000       0.25000000       0.44444444 </v>
   <v>      -0.25000000       0.25000000       0.44444444 </v>
   <v>      -0.12500000       0.25000000       0.44444444 </v>
   <v>       0.37500000       0.37500000       0.44444444 </v>
   <v>       0.50000000       0.37500000       0.44444444 </v>
   <v>      -0.37500000       0.37500000       0.44444444 </v>
   <v>      -0.25000000       0.37500000       0.44444444 </v>
   <v>      -0.12500000       0.37500000       0.44444444 </v>
   <v>       0.50000000       0.50000000       0.44444444 </v>
   <v>      -0.37500000       0.50000000       0.44444444 </v>
   <v>      -0.25000000       0.50000000       0.44444444 </v>
   <v>      -0.12500000       0.50000000       0.44444444 </v>
   <v>      -0.37500000      -0.37500000       0.44444444 </v>
   <v>      -0.25000000      -0.37500000       0.44444444 </v>
   <v>      -0.12500000      -0.37500000       0.44444444 </v>
   <v>      -0.25000000      -0.25000000       0.44444444 </v>
   <v>      -0.12500000      -0.25000000       0.44444444 </v>
   <v>      -0.12500000      -0.12500000       0.44444444 </v>
  </varray>
  <varray name="weights" >
   <v>       0.00173611 </v>
   <v>       0.00694444 </v>
   <v>       0.00694444 </v>
   <v>       0.00694444 </v>
   <v>       0.00347222 </v>
   <v>       0.00347222 </v>
   <v>       0.00694444 </v>
   <v>       0.00694444 </v>
   <v>       0.00694444 </v>
   <v>       0.00694444 </v>
   <v>       0.00694444 </v>
   <v>       0.00347222 </v>
   <v>       0.00347222 </v>
   <v>       0.00694444 </v>
   <v>       0.00694444 </v>
   <v>       0.00694444 </v>
   <v>       0.00347222 </v>
   <v>       0.00347222 </v>
   <v>       0.00694444 </v>
   <v>       0.00347222 </v>
   <v>       0.00173611 </v>
   <v>       0.00347222 </v>
   <v>       0.00694444 </v>
   <v>       0.00694444 </v>
   <v>       0.00694444 </v>
   <v>       0.00694444 </v>
   <v>       0.00694444 </v>
   <v>       0.00694444 </v>
   <v>       0.00694444 </v>
   <v>       0.00347222 </v>
   <v>       0.00694444 </v>
   <v>       0.00694444 </v>
   <v>       0.00694444 </v>
   <v>       0.00694444 </v>
   <v>       0.00694444 </v>
   <v>       0.00694444 </v>
   <v>       0.00347222 </v>
   <v>       0.00694444 </v>
   <v>       0.00694444 </v>
   <v>       0.00694444 </v>
   <v>       0.00694444 </v>
   <v>       0.00694444 </v>
   <v>       0.00347222 </v>
   <v>       0.00694444 </v>
   <v>       0.00694444 </v>
   <v>       0.00694444 </v>
   <v>       0.00694444 </v>
   <v>       0.00347222 </v>
   <v>       0.00694444 </v>
   <v>       0.00694444 </v>
   <v>       0.00694444 </v>
   <v>       0.00347222 </v>
   <v>       0.00694444 </v>
   <v>       0.00694444 </v>
   <v>       0.00347222 </v>
   <v>       0.00694444 </v>
   <v>       0.00347222 </v>
   <v>       0.00347222 </v>
   <v>       0.00694444 </v>
   <v>       0.00694444 </v>
   <v>       0.00694444 </v>
   <v>       0.00694444 </v>
   <v>       0.00694444 </v>
   <v>       0.00694444 </v>
   <v>       0.00694444 </v>
   <v>       0.00347222 </v>
   <v>       0.00694444 </v>
   <v>       0.00694444 </v>
   <v>       0.00694444 </v>
   <v>       0.00694444 </v>
   <v>       0.00694444 </v>
   <v>       0.00694444 </v>
   <v>       0.00347222 </v>
   <v>       0.00694444 </v>
   <v>       0.00694444 </v>
   <v>       0.00694444 </v>
   <v>       0.00694444 </v>
   <v>       0.00694444 </v>
   <v>       0.00347222 </v>
   <v>       0.00694444 </v>
   <v>       0.00694444 </v>
   <v>       0.00694444 </v>
   <v>       0.00694444 </v>
   <v>       0.00347222 </v>
   <v>       0.00694444 </v>
   <v>       0.00694444 </v>
   <v>       0.00694444 </v>
   <v>       0.00347222 </v>
   <v>       0.00694444 </v>
   <v>       0.00694444 </v>
   <v>       0.00347222 </v>
   <v>       0.00694444 </v>
   <v>       0.00347222 </v>
   <v>       0.00347222 </v>
   <v>       0.00694444 </v>
   <v>       0.00694444 </v>
   <v>       0.00694444 </v>
   <v>       0.00694444 </v>
   <v>       0.00694444 </v>
   <v>       0.00694444 </v>
   <v>       0.00694444 </v>
   <v>       0.00347222 </v>
   <v>       0.00694444 </v>
   <v>       0.00694444 </v>
   <v>       0.00694444 </v>
   <v>       0.00694444 </v>
   <v>       0.00694444 </v>
   <v>       0.00694444 </v>
   <v>       0.00347222 </v>
   <v>       0.00694444 </v>
   <v>       0.00694444 </v>
   <v>       0.00694444 </v>
   <v>       0.00694444 </v>
   <v>       0.00694444 </v>
   <v>       0.00347222 </v>
   <v>       0.00694444 </v>
   <v>       0.00694444 </v>
   <v>       0.00694444 </v>
   <v>       0.00694444 </v>
   <v>       0.00347222 </v>
   <v>       0.00694444 </v>
   <v>       0.00694444 </v>
   <v>       0.00694444 </v>
   <v>       0.00347222 </v>
   <v>       0.00694444 </v>
   <v>       0.00694444 </v>
   <v>       0.00347222 </v>
   <v>       0.00694444 </v>
   <v>       0.00347222 </v>
   <v>       0.00347222 </v>
   <v>       0.00694444 </v>
   <v>       0.00694444 </v>
   <v>       0.00694444 </v>
   <v>       0.00694444 </v>
   <v>       0.00694444 </v>
   <v>       0.00694444 </v>
   <v>       0.00694444 </v>
   <v>       0.00347222 </v>
   <v>       0.00694444 </v>
   <v>       0.00694444 </v>
   <v>       0.00694444 </v>
   <v>       0.00694444 </v>
   <v>       0.00694444 </v>
   <v>       0.00694444 </v>
   <v>       0.00347222 </v>
   <v>       0.00694444 </v>
   <v>       0.00694444 </v>
   <v>       0.00694444 </v>
   <v>       0.00694444 </v>
   <v>       0.00694444 </v>
   <v>       0.00347222 </v>
   <v>       0.00694444 </v>
   <v>       0.00694444 </v>
   <v>       0.00694444 </v>
   <v>       0.00694444 </v>
   <v>       0.00347222 </v>
   <v>       0.00694444 </v>
   <v>       0.00694444 </v>
   <v>       0.00694444 </v>
   <v>       0.00347222 </v>
   <v>       0.00694444 </v>
   <v>       0.00694444 </v>
   <v>       0.00347222 </v>
   <v>       0.00694444 </v>
   <v>       0.00347222 </v>
  </varray>
 </kpoints>
 <parameters>
  <separator name="general" >
   <i type="string" name="SYSTEM">routine with relax: pwdword</i>
   <i type="logical" name="LCOMPAT"> F  </i>
  </separator>
  <separator name="electronic" >
   <i type="string" name="PREC">acc</i>
   <i name="ENMAX">    600.00000000</i>
   <i name="ENAUG">    535.51400000</i>
   <i name="EDIFF">      0.00000000</i>
   <i type="int" name="IALGO">    58</i>
   <i type="int" name="IWAVPR">    10</i>
   <i type="int" name="NBANDS">    72</i>
   <i type="int" name="NBANDSLOW">    -1</i>
   <i type="int" name="NBANDSHIGH">    -1</i>
   <i name="NELECT">    112.00000000</i>
   <i type="int" name="TURBO">     0</i>
   <i type="int" name="IRESTART">     0</i>
   <i type="int" name="NREBOOT">     0</i>
   <i type="int" name="NMIN">     0</i>
   <i name="EREF">      0.00000000</i>
   <separator name="electronic smearing" >
    <i type="int" name="ISMEAR">     0</i>
    <i name="SIGMA">      0.02000000</i>
    <i name="KSPACING">      0.50000000</i>
    <i type="logical" name="KGAMMA"> T  </i>
    <i type="logical" name="KBLOWUP"> F  </i>
   </separator>
   <separator name="electronic projectors" >
    <i type="logical" name="LREAL"> F  </i>
    <v name="ROPT">      0.00000000      0.00000000      0.00000000</v>
    <i type="int" name="LMAXPAW">  -100</i>
    <i type="int" name="LMAXMIX">     2</i>
    <i type="logical" name="NLSPLINE"> F  </i>
   </separator>
   <separator name="electronic startup" >
    <i type="int" name="ISTART">     0</i>
    <i type="int" name="ICHARG">     2</i>
    <i type="int" name="INIWAV">     1</i>
   </separator>
   <separator name="electronic spin" >
    <i type="int" name="ISPIN">     1</i>
    <i type="logical" name="LNONCOLLINEAR"> F  </i>
    <v name="MAGMOM">      1.00000000      1.00000000      1.00000000      1.00000000      1.00000000      1.00000000      1.00000000      1.00000000      1.00000000      1.00000000      1.00000000      1.00000000      1.00000000      1.00000000</v>
    <i name="NUPDOWN">     -1.00000000</i>
    <i type="logical" name="LSORBIT"> F  </i>
    <v name="SAXIS">      0.00000000      0.00000000      1.00000000</v>
    <i type="logical" name="LSPIRAL"> F  </i>
    <v name="QSPIRAL">      0.00000000      0.00000000      0.00000000</v>
    <i type="logical" name="LZEROZ"> F  </i>
   </separator>
   <separator name="electronic exchange-correlation" >
    <i type="logical" name="LASPH"> T  </i>
    <i type="logical" name="LMETAGGA"> F  </i>
   </separator>
   <separator name="electronic convergence" >
    <i type="int" name="NELM">   100</i>
    <i type="int" name="NELMDL">    -5</i>
    <i type="int" name="NELMIN">     6</i>
    <i name="ENINI">    600.00000000</i>
    <separator name="electronic convergence detail" >
     <i type="logical" name="LDIAG"> T  </i>
     <i type="logical" name="LSUBROT"> F  </i>
     <i name="WEIMIN">      0.00000000</i>
     <i name="EBREAK">      0.00000000</i>
     <i name="DEPER">      0.30000000</i>
     <i type="int" name="NRMM">     4</i>
     <i name="TIME">      0.40000000</i>
    </separator>
   </separator>
   <separator name="electronic mixer" >
    <i name="AMIX">      0.40000000</i>
    <i name="BMIX">      1.00000000</i>
    <i name="AMIN">      0.10000000</i>
    <i name="AMIX_MAG">      1.60000000</i>
    <i name="BMIX_MAG">      1.00000000</i>
    <separator name="electronic mixer details" >
     <i type="int" name="IMIX">     4</i>
     <i type="logical" name="MIXFIRST"> F  </i>
     <i type="int" name="MAXMIX">   -45</i>
     <i name="WC">    100.00000000</i>
     <i type="int" name="INIMIX">     1</i>
     <i type="int" name="MIXPRE">     1</i>
     <i type="int" name="MREMOVE">     5</i>
    </separator>
   </separator>
   <separator name="electronic dipolcorrection" >
    <i type="logical" name="LDIPOL"> F  </i>
    <i type="logical" name="LMONO"> F  </i>
    <i type="int" name="IDIPOL">     0</i>
    <i name="EPSILON">      1.00000000</i>
    <v name="DIPOL">   -100.00000000   -100.00000000   -100.00000000</v>
    <i name="EFIELD">      0.00000000</i>
   </separator>
  </separator>
  <separator name="grids" >
   <i type="int" name="NGX">    48</i>
   <i type="int" name="NGY">    48</i>
   <i type="int" name="NGZ">    48</i>
   <i type="int" name="NGXF">    96</i>
   <i type="int" name="NGYF">    96</i>
   <i type="int" name="NGZF">    96</i>
   <i type="logical" name="ADDGRID"> T  </i>
  </separator>
  <separator name="ionic" >
   <i type="int" name="NSW">     0</i>
   <i type="int" name="IBRION">    -1</i>
   <i type="int" name="MDALGO">     0</i>
   <i type="int" name="ISIF">    -1</i>
   <i name="PSTRESS">      0.00000000</i>
   <i name="EDIFFG">      0.00000001</i>
   <i type="int" name="NFREE">     0</i>
   <i name="POTIM">      0.50000000</i>
   <i name="SMASS">     -3.00000000</i>
   <i name="SCALEE">      1.00000000</i>
  </separator>
  <separator name="ionic md" >
   <i name="TEBEG">      0.00010000</i>
   <i name="TEEND">      0.00010000</i>
   <i type="int" name="NBLOCK">     1</i>
   <i type="int" name="KBLOCK">     1</i>
   <i type="int" name="NPACO">   256</i>
   <i name="APACO">     16.00000000</i>
  </separator>
  <separator name="symmetry" >
   <i type="int" name="ISYM">     2</i>
   <i name="SYMPREC">      0.00010000</i>
  </separator>
  <separator name="dos" >
   <i type="int" name="LORBIT">     0</i>
   <v name="RWIGS">     -1.00000000     -1.00000000     -1.00000000</v>
   <i type="int" name="NEDOS">   301</i>
   <i name="EMIN">     10.00000000</i>
   <i name="EMAX">    -10.00000000</i>
   <i name="EFERMI">      0.00000000</i>
  </separator>
  <separator name="writing" >
   <i type="int" name="NWRITE">     2</i>
   <i type="logical" name="LWAVE"> T  </i>
   <i type="logical" name="LDOWNSAMPLE"> F  </i>
   <i type="logical" name="LCHARG"> T  </i>
   <i type="logical" name="LPARD"> F  </i>
   <i type="logical" name="LVTOT"> F  </i>
   <i type="logical" name="LVHAR"> F  </i>
   <i type="logical" name="LELF"> F  </i>
   <i type="logical" name="LOPTICS"> F  </i>
   <v name="STM">      0.00000000      0.00000000      0.00000000      0.00000000      0.00000000      0.00000000      0.00000000</v>
  </separator>
  <separator name="performance" >
   <i type="int" name="NPAR">     6</i>
   <i type="int" name="NSIM">     4</i>
   <i type="int" name="NBLK">    -1</i>
   <i type="logical" name="LPLANE"> T  </i>
   <i type="logical" name="LSCALAPACK"> T  </i>
   <i type="logical" name="LSCAAWARE"> F  </i>
   <i type="logical" name="LSCALU"> F  </i>
   <i type="logical" name="LASYNC"> F  </i>
   <i type="logical" name="LORBITALREAL"> F  </i>
  </separator>
  <separator name="miscellaneous" >
   <i type="int" name="IDIOT">     3</i>
   <i type="int" name="PHON_NSTRUCT">    -1</i>
   <i type="logical" name="LMUSIC"> F  </i>
   <v name="POMASS">     10.81100000     95.94000000     28.08500000</v>
   <v name="DARWINR">      0.00000000      0.00000000      0.00000000</v>
   <v name="DARWINV">      1.00000000      1.00000000      1.00000000</v>
   <i type="logical" name="LCORR"> T  </i>
  </separator>
  <i type="logical" name="GGA_COMPAT"> T  </i>
  <i type="logical" name="LBERRY"> F  </i>
  <i type="int" name="ICORELEVEL">     0</i>
  <i type="logical" name="LDAU"> F  </i>
  <i type="int" name="I_CONSTRAINED_M">     0</i>
  <separator name="electronic exchange-correlation" >
   <i type="string" name="GGA">--</i>
   <i type="int" name="VOSKOWN">     0</i>
   <i type="logical" name="LHFCALC"> F  </i>
   <i type="string" name="PRECFOCK"></i>
   <i type="logical" name="LSYMGRAD"> F  </i>
   <i type="logical" name="LHFONE"> F  </i>
   <i type="logical" name="LRHFCALC"> F  </i>
   <i type="logical" name="LTHOMAS"> F  </i>
   <i type="logical" name="LMODELHF"> F  </i>
   <i type="logical" name="LFOCKACE"> F  </i>
   <i name="ENCUT4O">     -1.00000000</i>
   <i type="int" name="EXXOEP">     0</i>
   <i type="int" name="FOURORBIT">     0</i>
   <i name="AEXX">      0.00000000</i>
   <i name="HFALPHA">      0.00000000</i>
   <i name="MCALPHA">      0.00000000</i>
   <i name="ALDAX">      1.00000000</i>
   <i name="AGGAX">      1.00000000</i>
   <i name="ALDAC">      1.00000000</i>
   <i name="AGGAC">      1.00000000</i>
   <i type="int" name="NKREDX">     1</i>
   <i type="int" name="NKREDY">     1</i>
   <i type="int" name="NKREDZ">     1</i>
   <i type="logical" name="SHIFTRED"> F  </i>
   <i type="logical" name="ODDONLY"> F  </i>
   <i type="logical" name="EVENONLY"> F  </i>
   <i type="int" name="LMAXFOCK">     0</i>
   <i type="int" name="NMAXFOCKAE">     0</i>
   <i type="logical" name="LFOCKAEDFT"> F  </i>
   <i name="HFSCREEN">      0.00000000</i>
   <i name="HFSCREENC">      0.00000000</i>
   <i type="int" name="NBANDSGWLOW">     0</i>
  </separator>
  <separator name="vdW DFT" >
   <i type="logical" name="LUSE_VDW"> F  </i>
   <i name="Zab_VDW">     -0.84910000</i>
   <i name="PARAM1">      0.12340000</i>
   <i name="PARAM2">      1.00000000</i>
   <i name="PARAM3">      0.00000000</i>
  </separator>
  <separator name="model GW" >
   <i type="int" name="MODEL_GW">     0</i>
   <i name="MODEL_EPS0">      5.43254719</i>
   <i name="MODEL_ALPHA">      1.00000000</i>
  </separator>
  <separator name="linear response parameters" >
   <i type="logical" name="LEPSILON"> F  </i>
   <i type="logical" name="LRPA"> F  </i>
   <i type="logical" name="LNABLA"> F  </i>
   <i type="logical" name="LVEL"> F  </i>
   <i type="int" name="KINTER">     0</i>
   <i name="CSHIFT">      0.10000000</i>
   <i name="OMEGAMAX">     -1.00000000</i>
   <i name="DEG_THRESHOLD">      0.00200000</i>
   <i name="RTIME">     -0.10000000</i>
   <i name="WPLASMAI">      0.00000000</i>
   <v name="DFIELD">      0.00000000      0.00000000      0.00000000</v>
   <v name="WPLASMA">      0.00000000      0.00000000      0.00000000      0.00000000      0.00000000      0.00000000      0.00000000      0.00000000      0.00000000</v>
  </separator>
  <separator name="orbital magnetization" >
   <i type="logical" name="NUCIND"> F  </i>
   <v name="MAGPOS">      0.00000000      0.00000000      0.00000000</v>
   <i type="logical" name="LNICSALL"> T  </i>
   <i type="logical" name="ORBITALMAG"> F  </i>
   <i type="logical" name="LMAGBLOCH"> F  </i>
   <i type="logical" name="LCHIMAG"> F  </i>
   <i type="logical" name="LGAUGE"> T  </i>
   <i type="int" name="MAGATOM">     0</i>
   <v name="MAGDIPOL">      0.00000000      0.00000000      0.00000000</v>
   <v name="AVECCONST">      0.00000000      0.00000000      0.00000000</v>
  </separator>
  <separator name="response functions" >
   <i type="logical" name="LFINITE_TEMPERATURE"> F  </i>
   <i type="logical" name="LADDER"> F  </i>
   <i type="logical" name="LRPAFORCE"> F  </i>
   <i type="logical" name="LFXC"> F  </i>
   <i type="logical" name="LHARTREE"> T  </i>
   <i type="int" name="IBSE">     0</i>
   <v type="int" name="KPOINT">    -1     0     0     0</v>
   <i type="logical" name="LTCTC"> F  </i>
   <i type="logical" name="LTCTE"> F  </i>
   <i type="logical" name="LTETE"> F  </i>
   <i type="logical" name="LTRIPLET"> F  </i>
   <i type="logical" name="LFXCEPS"> F  </i>
   <i type="logical" name="LFXHEG"> F  </i>
   <i type="int" name="NATURALO">     2</i>
   <i type="logical" name="LHOLEGF"> F  </i>
   <i type="logical" name="L2ORDER"> F  </i>
   <i type="logical" name="LDMP1"> F  </i>
   <i type="logical" name="LMP2LT"> F  </i>
   <i type="logical" name="LSMP2LT"> F  </i>
   <i type="logical" name="LGWLF"> F  </i>
   <i name="ENCUTGW">     -2.00000000</i>
   <i name="ENCUTGWSOFT">     -2.00000000</i>
   <i name="ENCUTLF">     -1.00000000</i>
   <i type="logical" name="LESF_SPLINES"> F  </i>
   <i type="int" name="LMAXMP2">    -1</i>
   <i name="SCISSOR">      0.00000000</i>
   <i type="int" name="NOMEGA">     0</i>
   <i type="int" name="NOMEGAR">     0</i>
   <i type="int" name="NBANDSGW">    -1</i>
   <i type="int" name="NBANDSO">    -1</i>
   <i type="int" name="NBANDSV">    -1</i>
   <i type="int" name="NELM">   100</i>
   <i type="int" name="NELMHF">     1</i>
   <i type="int" name="DIM">     3</i>
   <i type="int" name="IESPILON">     4</i>
   <i type="int" name="ANTIRES">     0</i>
   <i name="OMEGAMAX">    -30.00000000</i>
   <i name="OMEGAMIN">    -30.00000000</i>
   <i name="OMEGATL">   -200.00000000</i>
   <i type="int" name="OMEGAGRID">     0</i>
   <i name="CSHIFT">     -0.10000000</i>
   <i type="logical" name="LSELFENERGY"> F  </i>
   <i type="logical" name="LSPECTRAL"> F  </i>
   <i type="logical" name="LSPECTRALGW"> F  </i>
   <i type="logical" name="LSINGLES"> F  </i>
   <i type="logical" name="LFERMIGW"> F  </i>
   <i type="logical" name="ODDONLYGW"> F  </i>
   <i type="logical" name="EVENONLYGW"> F  </i>
   <i type="int" name="NKREDLFX">     1</i>
   <i type="int" name="NKREDLFY">     1</i>
   <i type="int" name="NKREDLFZ">     1</i>
   <i type="int" name="MAXMEM">  2800</i>
   <i type="int" name="TELESCOPE">     0</i>
   <i type="int" name="NTAUPAR">    -1</i>
   <i type="int" name="NOMEGAPAR">    -1</i>
   <i name="DAMP_NEWTON">      0.80000001</i>
   <i name="LAMBDA">      1.00000000</i>
  </separator>
  <separator name="External order field" >
   <i name="OFIELD_KAPPA">      0.00000000</i>
   <v name="OFIELD_K">      0.00000000      0.00000000      0.00000000</v>
   <i name="OFIELD_Q6_NEAR">      0.00000000</i>
   <i name="OFIELD_Q6_FAR">      0.00000000</i>
   <i name="OFIELD_A">      0.00000000</i>
  </separator>
 </parameters>
 <atominfo>
  <atoms>      14 </atoms>
  <types>       3 </types>
  <array name="atoms" >
   <dimension dim="1">ion</dimension>
   <field type="string">element</field>
   <field type="int">atomtype</field>
   <set>
    <rc><c>B </c><c>   1</c></rc>
    <rc><c>B </c><c>   1</c></rc>
    <rc><c>B </c><c>   1</c></rc>
    <rc><c>B </c><c>   1</c></rc>
    <rc><c>Mo</c><c>   2</c></rc>
    <rc><c>Mo</c><c>   2</c></rc>
    <rc><c>Mo</c><c>   2</c></rc>
    <rc><c>Mo</c><c>   2</c></rc>
    <rc><c>Mo</c><c>   2</c></rc>
    <rc><c>Mo</c><c>   2</c></rc>
    <rc><c>Si</c><c>   3</c></rc>
    <rc><c>Si</c><c>   3</c></rc>
    <rc><c>Si</c><c>   3</c></rc>
    <rc><c>Si</c><c>   3</c></rc>
   </set>
  </array>
  <array name="atomtypes" >
   <dimension dim="1">type</dimension>
   <field type="int">atomspertype</field>
   <field type="string">element</field>
   <field>mass</field>
   <field>valence</field>
   <field type="string">pseudopotential</field>
   <set>
    <rc><c>   4</c><c>B </c><c>     10.81100000</c><c>      3.00000000</c><c>  PAW_PBE B 06Sep2000                   </c></rc>
    <rc><c>   6</c><c>Mo</c><c>     95.94000000</c><c>     14.00000000</c><c>  PAW_PBE Mo_sv 02Feb2006               </c></rc>
    <rc><c>   4</c><c>Si</c><c>     28.08500000</c><c>      4.00000000</c><c>  PAW_PBE Si 05Jan2001                  </c></rc>
   </set>
  </array>
 </atominfo>
 <structure name="initialpos" >
  <crystal>
   <varray name="basis" >
    <v>       4.85665502       0.00000000      -2.92706322 </v>
    <v>      -1.54968407       4.60277930      -2.92706322 </v>
    <v>       0.00000000       0.00000000       5.67052000 </v>
   </varray>
   <i name="volume">    126.75943445 </i>
   <varray name="rec_basis" >
    <v>       0.20590303       0.06932434       0.00000000 </v>
    <v>       0.00000000       0.21726004       0.00000000 </v>
    <v>       0.10628500       0.14793186       0.17635067 </v>
   </varray>
  </crystal>
  <varray name="positions" >
   <v>       0.50000000       0.50000000       0.50000000 </v>
   <v>       0.50000000       0.00000000       0.00000000 </v>
   <v>       0.00000000       0.00000000       0.50000000 </v>
   <v>       0.00000000       0.50000000       0.00000000 </v>
   <v>       0.23247000       0.73247000       0.96495000 </v>
   <v>       0.25000000       0.25000000       0.00000000 </v>
   <v>       0.76753000       0.26753000       0.03505000 </v>
   <v>       0.75000000       0.75000000       0.00000000 </v>
   <v>       0.73247000       0.76753000       0.50000000 </v>
   <v>       0.26753000       0.23247000       0.50000000 </v>
   <v>       0.29132000       0.20868000       0.50000000 </v>
   <v>       0.70868000       0.79132000       0.50000000 </v>
   <v>       0.20868000       0.70868000       0.91737000 </v>
   <v>       0.79132000       0.29132000       0.08263000 </v>
  </varray>
 </structure>
 <calculation>
  <scstep>
   <time name="total">   29.92   30.20</time>
   <energy>
    <i name="alphaZ">    808.62779803 </i>
    <i name="ewald">   4043.33210616 </i>
    <i name="hartreedc">  -2575.18047686 </i>
    <i name="XCdc">    482.36160572 </i>
    <i name="pawpsdc">   9416.99506030 </i>
    <i name="pawaedc">  -9355.19475361 </i>
    <i name="eentropy">     -0.00037951 </i>
    <i name="bandstr">  -1532.19483156 </i>
    <i name="atom">  11870.63976582 </i>
    <i name="e_fr_energy">  13159.38589448 </i>
    <i name="e_wo_entrp">  13159.38627400 </i>
    <i name="e_0_energy">  13159.38608424 </i>
   </energy>
  </scstep>
  <scstep>
   <time name="total">   28.36   28.63</time>
   <energy>
    <i name="e_fr_energy">  11656.97247912 </i>
    <i name="e_wo_entrp">  11656.97332235 </i>
    <i name="e_0_energy">  11656.97290074 </i>
   </energy>
  </scstep>
  <scstep>
   <time name="total">   30.85   31.14</time>
   <energy>
    <i name="e_fr_energy">  11598.58968423 </i>
    <i name="e_wo_entrp">  11598.59082015 </i>
    <i name="e_0_energy">  11598.59025219 </i>
   </energy>
  </scstep>
  <scstep>
   <time name="total">   30.29   30.58</time>
   <energy>
    <i name="e_fr_energy">  11597.20830131 </i>
    <i name="e_wo_entrp">  11597.20944697 </i>
    <i name="e_0_energy">  11597.20887414 </i>
   </energy>
  </scstep>
  <scstep>
   <time name="total">   35.29   35.61</time>
   <energy>
    <i name="e_fr_energy">  11597.14898971 </i>
    <i name="e_wo_entrp">  11597.15013787 </i>
    <i name="e_0_energy">  11597.14956379 </i>
   </energy>
  </scstep>
  <scstep>
   <time name="total">   32.16   32.43</time>
   <energy>
    <i name="e_fr_energy">  12669.39059319 </i>
    <i name="e_wo_entrp">  12669.39174942 </i>
    <i name="e_0_energy">  12669.39117130 </i>
   </energy>
  </scstep>
  <scstep>
   <time name="total">   32.38   32.64</time>
   <energy>
    <i name="e_fr_energy">  12266.37089326 </i>
    <i name="e_wo_entrp">  12266.37208492 </i>
    <i name="e_0_energy">  12266.37148909 </i>
   </energy>
  </scstep>
  <scstep>
   <time name="total">   32.12   32.38</time>
   <energy>
    <i name="e_fr_energy">  12214.48901643 </i>
    <i name="e_wo_entrp">  12214.49020560 </i>
    <i name="e_0_energy">  12214.48961102 </i>
   </energy>
  </scstep>
  <scstep>
   <time name="total">   32.94   33.21</time>
   <energy>
    <i name="e_fr_energy">  12195.54761039 </i>
    <i name="e_wo_entrp">  12195.54935043 </i>
    <i name="e_0_energy">  12195.54848041 </i>
   </energy>
  </scstep>
  <scstep>
   <time name="total">   32.41   32.67</time>
   <energy>
    <i name="e_fr_energy">  12184.30305844 </i>
    <i name="e_wo_entrp">  12184.30426180 </i>
    <i name="e_0_energy">  12184.30366012 </i>
   </energy>
  </scstep>
  <scstep>
   <time name="total">   31.84   32.11</time>
   <energy>
    <i name="e_fr_energy">  12177.90735765 </i>
    <i name="e_wo_entrp">  12177.90870982 </i>
    <i name="e_0_energy">  12177.90803374 </i>
   </energy>
  </scstep>
  <scstep>
   <time name="total">   32.53   32.79</time>
   <energy>
    <i name="e_fr_energy">  12176.87044107 </i>
    <i name="e_wo_entrp">  12176.87191397 </i>
    <i name="e_0_energy">  12176.87117752 </i>
   </energy>
  </scstep>
  <scstep>
   <time name="total">   32.74   33.01</time>
   <energy>
    <i name="e_fr_energy">  12175.59725647 </i>
    <i name="e_wo_entrp">  12175.59923401 </i>
    <i name="e_0_energy">  12175.59824524 </i>
   </energy>
  </scstep>
  <scstep>
   <time name="total">   32.35   32.60</time>
   <energy>
    <i name="e_fr_energy">  12174.84143048 </i>
    <i name="e_wo_entrp">  12174.84344995 </i>
    <i name="e_0_energy">  12174.84244022 </i>
   </energy>
  </scstep>
  <scstep>
   <time name="total">   32.52   32.78</time>
   <energy>
    <i name="e_fr_energy">  12174.27699130 </i>
    <i name="e_wo_entrp">  12174.27914042 </i>
    <i name="e_0_energy">  12174.27806586 </i>
   </energy>
  </scstep>
  <scstep>
   <time name="total">   32.46   32.73</time>
   <energy>
    <i name="e_fr_energy">  12173.84214293 </i>
    <i name="e_wo_entrp">  12173.84378944 </i>
    <i name="e_0_energy">  12173.84296619 </i>
   </energy>
  </scstep>
  <scstep>
   <time name="total">   32.50   32.76</time>
   <energy>
    <i name="e_fr_energy">  12173.53779267 </i>
    <i name="e_wo_entrp">  12173.53953688 </i>
    <i name="e_0_energy">  12173.53866478 </i>
   </energy>
  </scstep>
  <scstep>
   <time name="total">   31.87   32.13</time>
   <energy>
    <i name="e_fr_energy">  12173.30259903 </i>
    <i name="e_wo_entrp">  12173.30410678 </i>
    <i name="e_0_energy">  12173.30335291 </i>
   </energy>
  </scstep>
  <scstep>
   <time name="total">   33.14   33.40</time>
   <energy>
    <i name="e_fr_energy">  12173.09485658 </i>
    <i name="e_wo_entrp">  12173.09611311 </i>
    <i name="e_0_energy">  12173.09548484 </i>
   </energy>
  </scstep>
  <scstep>
   <time name="total">   32.62   32.88</time>
   <energy>
    <i name="e_fr_energy">  12172.93145084 </i>
    <i name="e_wo_entrp">  12172.93280662 </i>
    <i name="e_0_energy">  12172.93212873 </i>
   </energy>
  </scstep>
  <scstep>
   <time name="total">   32.45   32.70</time>
   <energy>
    <i name="e_fr_energy">  12172.82366558 </i>
    <i name="e_wo_entrp">  12172.82503480 </i>
    <i name="e_0_energy">  12172.82435019 </i>
   </energy>
  </scstep>
  <scstep>
   <time name="total">   32.41   32.66</time>
   <energy>
    <i name="e_fr_energy">  12172.74555503 </i>
    <i name="e_wo_entrp">  12172.74703948 </i>
    <i name="e_0_energy">  12172.74629726 </i>
   </energy>
  </scstep>
  <scstep>
   <time name="total">   32.61   32.86</time>
   <energy>
    <i name="e_fr_energy">  12172.67890515 </i>
    <i name="e_wo_entrp">  12172.68061421 </i>
    <i name="e_0_energy">  12172.67975968 </i>
   </energy>
  </scstep>
  <scstep>
   <time name="total">   32.58   32.84</time>
   <energy>
    <i name="e_fr_energy">  12172.62731927 </i>
    <i name="e_wo_entrp">  12172.62910082 </i>
    <i name="e_0_energy">  12172.62821005 </i>
   </energy>
  </scstep>
  <scstep>
   <time name="total">   32.36   32.61</time>
   <energy>
    <i name="e_fr_energy">  12172.59381934 </i>
    <i name="e_wo_entrp">  12172.59561313 </i>
    <i name="e_0_energy">  12172.59471624 </i>
   </energy>
  </scstep>
  <scstep>
   <time name="total">   32.69   32.94</time>
   <energy>
    <i name="e_fr_energy">  12172.56856408 </i>
    <i name="e_wo_entrp">  12172.57041866 </i>
    <i name="e_0_energy">  12172.56949137 </i>
   </energy>
  </scstep>
  <scstep>
   <time name="total">   32.60   32.86</time>
   <energy>
    <i name="e_fr_energy">  12172.54763483 </i>
    <i name="e_wo_entrp">  12172.54948340 </i>
    <i name="e_0_energy">  12172.54855911 </i>
   </energy>
  </scstep>
  <scstep>
   <time name="total">   32.40   32.65</time>
   <energy>
    <i name="e_fr_energy">  12172.53223436 </i>
    <i name="e_wo_entrp">  12172.53405541 </i>
    <i name="e_0_energy">  12172.53314489 </i>
   </energy>
  </scstep>
  <scstep>
   <time name="total">   32.22   32.48</time>
   <energy>
    <i name="e_fr_energy">  12172.52134364 </i>
    <i name="e_wo_entrp">  12172.52317058 </i>
    <i name="e_0_energy">  12172.52225711 </i>
   </energy>
  </scstep>
  <scstep>
   <time name="total">   31.96   32.22</time>
   <energy>
    <i name="e_fr_energy">  12172.51267629 </i>
    <i name="e_wo_entrp">  12172.51452832 </i>
    <i name="e_0_energy">  12172.51360230 </i>
   </energy>
  </scstep>
  <scstep>
   <time name="total">   33.16   33.42</time>
   <energy>
    <i name="e_fr_energy">  12172.50576141 </i>
    <i name="e_wo_entrp">  12172.50763079 </i>
    <i name="e_0_energy">  12172.50669610 </i>
   </energy>
  </scstep>
  <scstep>
   <time name="total">   32.56   32.81</time>
   <energy>
    <i name="e_fr_energy">  12172.50074547 </i>
    <i name="e_wo_entrp">  12172.50262027 </i>
    <i name="e_0_energy">  12172.50168287 </i>
   </energy>
  </scstep>
  <scstep>
   <time name="total">   32.83   33.09</time>
   <energy>
    <i name="e_fr_energy">  12172.49706863 </i>
    <i name="e_wo_entrp">  12172.49893941 </i>
    <i name="e_0_energy">  12172.49800402 </i>
   </energy>
  </scstep>
  <scstep>
   <time name="total">   32.66   32.91</time>
   <energy>
    <i name="e_fr_energy">  12172.49423855 </i>
    <i name="e_wo_entrp">  12172.49609740 </i>
    <i name="e_0_energy">  12172.49516797 </i>
   </energy>
  </scstep>
  <scstep>
   <time name="total">   32.75   33.01</time>
   <energy>
    <i name="e_fr_energy">  12172.49218326 </i>
    <i name="e_wo_entrp">  12172.49402500 </i>
    <i name="e_0_energy">  12172.49310413 </i>
   </energy>
  </scstep>
  <scstep>
   <time name="total">   32.14   32.39</time>
   <energy>
    <i name="e_fr_energy">  12172.49070372 </i>
    <i name="e_wo_entrp">  12172.49252900 </i>
    <i name="e_0_energy">  12172.49161636 </i>
   </energy>
  </scstep>
  <scstep>
   <time name="total">   32.19   32.44</time>
   <energy>
    <i name="e_fr_energy">  12172.48954793 </i>
    <i name="e_wo_entrp">  12172.49137902 </i>
    <i name="e_0_energy">  12172.49046347 </i>
   </energy>
  </scstep>
  <scstep>
   <time name="total">   32.25   32.50</time>
   <energy>
    <i name="e_fr_energy">  12172.48710465 </i>
    <i name="e_wo_entrp">  12172.48891575 </i>
    <i name="e_0_energy">  12172.48801020 </i>
   </energy>
  </scstep>
  <scstep>
   <time name="total">   32.99   33.25</time>
   <energy>
    <i name="e_fr_energy">  12172.48629325 </i>
    <i name="e_wo_entrp">  12172.48809961 </i>
    <i name="e_0_energy">  12172.48719643 </i>
   </energy>
  </scstep>
  <scstep>
   <time name="total">   31.91   32.16</time>
   <energy>
    <i name="e_fr_energy">  12172.48608654 </i>
    <i name="e_wo_entrp">  12172.48789139 </i>
    <i name="e_0_energy">  12172.48698896 </i>
   </energy>
  </scstep>
  <scstep>
   <time name="total">   33.00   33.25</time>
   <energy>
    <i name="e_fr_energy">  12172.48603713 </i>
    <i name="e_wo_entrp">  12172.48784011 </i>
    <i name="e_0_energy">  12172.48693862 </i>
   </energy>
  </scstep>
  <scstep>
   <time name="total">   32.73   32.99</time>
   <energy>
    <i name="e_fr_energy">  12172.48601990 </i>
    <i name="e_wo_entrp">  12172.48782207 </i>
    <i name="e_0_energy">  12172.48692099 </i>
   </energy>
  </scstep>
  <scstep>
   <time name="total">   32.35   32.60</time>
   <energy>
    <i name="e_fr_energy">  12172.48601388 </i>
    <i name="e_wo_entrp">  12172.48781604 </i>
    <i name="e_0_energy">  12172.48691496 </i>
   </energy>
  </scstep>
  <scstep>
   <time name="total">   32.55   32.81</time>
   <energy>
    <i name="e_fr_energy">  12172.48601221 </i>
    <i name="e_wo_entrp">  12172.48781448 </i>
    <i name="e_0_energy">  12172.48691334 </i>
   </energy>
  </scstep>
  <scstep>
   <time name="total">   31.73   31.98</time>
   <energy>
    <i name="e_fr_energy">  12172.48601117 </i>
    <i name="e_wo_entrp">  12172.48781346 </i>
    <i name="e_0_energy">  12172.48691232 </i>
   </energy>
  </scstep>
  <scstep>
   <time name="total">   34.03   34.29</time>
   <energy>
    <i name="e_fr_energy">  12172.48601093 </i>
    <i name="e_wo_entrp">  12172.48781323 </i>
    <i name="e_0_energy">  12172.48691208 </i>
   </energy>
  </scstep>
  <scstep>
   <time name="total">   34.03   34.28</time>
   <energy>
    <i name="e_fr_energy">  12172.48601144 </i>
    <i name="e_wo_entrp">  12172.48781375 </i>
    <i name="e_0_energy">  12172.48691259 </i>
   </energy>
  </scstep>
  <scstep>
   <time name="total">   33.43   33.68</time>
   <energy>
    <i name="e_fr_energy">  12172.48601090 </i>
    <i name="e_wo_entrp">  12172.48781323 </i>
    <i name="e_0_energy">  12172.48691207 </i>
   </energy>
  </scstep>
  <scstep>
   <time name="total">   32.80   33.05</time>
   <energy>
    <i name="e_fr_energy">  12172.48601159 </i>
    <i name="e_wo_entrp">  12172.48781394 </i>
    <i name="e_0_energy">  12172.48691276 </i>
   </energy>
  </scstep>
  <scstep>
   <time name="total">   32.25   32.54</time>
   <energy>
    <i name="e_fr_energy">  12172.48601060 </i>
    <i name="e_wo_entrp">  12172.48781296 </i>
    <i name="e_0_energy">  12172.48691178 </i>
   </energy>
  </scstep>
  <scstep>
   <time name="total">   31.65   31.88</time>
   <energy>
    <i name="e_fr_energy">  12172.48601108 </i>
    <i name="e_wo_entrp">  12172.48781344 </i>
    <i name="e_0_energy">  12172.48691226 </i>
   </energy>
  </scstep>
  <scstep>
   <time name="total">   31.07   31.31</time>
   <energy>
    <i name="e_fr_energy">  12172.48601168 </i>
    <i name="e_wo_entrp">  12172.48781405 </i>
    <i name="e_0_energy">  12172.48691286 </i>
   </energy>
  </scstep>
  <scstep>
   <time name="total">   31.95   32.19</time>
   <energy>
    <i name="e_fr_energy">  12172.48601132 </i>
    <i name="e_wo_entrp">  12172.48781369 </i>
    <i name="e_0_energy">  12172.48691250 </i>
   </energy>
  </scstep>
  <scstep>
   <time name="total">   31.01   31.26</time>
   <energy>
    <i name="e_fr_energy">  12172.48601138 </i>
    <i name="e_wo_entrp">  12172.48781376 </i>
    <i name="e_0_energy">  12172.48691257 </i>
   </energy>
  </scstep>
  <scstep>
   <time name="total">   31.94   32.18</time>
   <energy>
    <i name="e_fr_energy">  12172.48601129 </i>
    <i name="e_wo_entrp">  12172.48781367 </i>
    <i name="e_0_energy">  12172.48691248 </i>
   </energy>
  </scstep>
  <scstep>
   <time name="total">   30.68   30.92</time>
   <energy>
    <i name="e_fr_energy">  12172.48601218 </i>
    <i name="e_wo_entrp">  12172.48781458 </i>
    <i name="e_0_energy">  12172.48691338 </i>
   </energy>
  </scstep>
  <scstep>
   <time name="total">   31.49   31.73</time>
   <energy>
    <i name="e_fr_energy">  12172.48601200 </i>
    <i name="e_wo_entrp">  12172.48781441 </i>
    <i name="e_0_energy">  12172.48691321 </i>
   </energy>
  </scstep>
  <scstep>
   <time name="total">   31.73   31.98</time>
   <energy>
    <i name="e_fr_energy">  12172.48601179 </i>
    <i name="e_wo_entrp">  12172.48781420 </i>
    <i name="e_0_energy">  12172.48691300 </i>
   </energy>
  </scstep>
  <scstep>
   <time name="total">   31.93   32.17</time>
   <energy>
    <i name="e_fr_energy">  12172.48601197 </i>
    <i name="e_wo_entrp">  12172.48781438 </i>
    <i name="e_0_energy">  12172.48691318 </i>
   </energy>
  </scstep>
  <scstep>
   <time name="total">   31.73   31.96</time>
   <energy>
    <i name="e_fr_energy">  12172.48601168 </i>
    <i name="e_wo_entrp">  12172.48781408 </i>
    <i name="e_0_energy">  12172.48691288 </i>
   </energy>
  </scstep>
  <scstep>
   <time name="total">   31.94   32.18</time>
   <energy>
    <i name="e_fr_energy">  12172.48601185 </i>
    <i name="e_wo_entrp">  12172.48781426 </i>
    <i name="e_0_energy">  12172.48691306 </i>
   </energy>
  </scstep>
  <scstep>
   <time name="total">   31.99   32.24</time>
   <energy>
    <i name="e_fr_energy">  12172.48601144 </i>
    <i name="e_wo_entrp">  12172.48781384 </i>
    <i name="e_0_energy">  12172.48691264 </i>
   </energy>
  </scstep>
  <scstep>
   <time name="total">   31.88   32.12</time>
   <energy>
    <i name="e_fr_energy">  12172.48601191 </i>
    <i name="e_wo_entrp">  12172.48781432 </i>
    <i name="e_0_energy">  12172.48691312 </i>
   </energy>
  </scstep>
  <scstep>
   <time name="total">   31.63   31.87</time>
   <energy>
    <i name="e_fr_energy">  12172.48601171 </i>
    <i name="e_wo_entrp">  12172.48781411 </i>
    <i name="e_0_energy">  12172.48691291 </i>
   </energy>
  </scstep>
  <scstep>
   <time name="total">   31.04   31.29</time>
   <energy>
    <i name="e_fr_energy">  12172.48601197 </i>
    <i name="e_wo_entrp">  12172.48781439 </i>
    <i name="e_0_energy">  12172.48691318 </i>
   </energy>
  </scstep>
  <scstep>
   <time name="total">   31.34   31.60</time>
   <energy>
    <i name="e_fr_energy">  12172.48601168 </i>
    <i name="e_wo_entrp">  12172.48781409 </i>
    <i name="e_0_energy">  12172.48691288 </i>
   </energy>
  </scstep>
  <scstep>
   <time name="total">   31.75   32.01</time>
   <energy>
    <i name="e_fr_energy">  12172.48601173 </i>
    <i name="e_wo_entrp">  12172.48781415 </i>
    <i name="e_0_energy">  12172.48691294 </i>
   </energy>
  </scstep>
  <scstep>
   <time name="total">   31.12   31.36</time>
   <energy>
    <i name="e_fr_energy">  12172.48601317 </i>
    <i name="e_wo_entrp">  12172.48781558 </i>
    <i name="e_0_energy">  12172.48691437 </i>
   </energy>
  </scstep>
  <scstep>
   <time name="total">   31.58   31.83</time>
   <energy>
    <i name="e_fr_energy">  12172.48601191 </i>
    <i name="e_wo_entrp">  12172.48781434 </i>
    <i name="e_0_energy">  12172.48691312 </i>
   </energy>
  </scstep>
  <scstep>
   <time name="total">   31.90   32.15</time>
   <energy>
    <i name="e_fr_energy">  12172.48601176 </i>
    <i name="e_wo_entrp">  12172.48781419 </i>
    <i name="e_0_energy">  12172.48691298 </i>
   </energy>
  </scstep>
  <scstep>
   <time name="total">   31.21   31.45</time>
   <energy>
    <i name="e_fr_energy">  12172.48601254 </i>
    <i name="e_wo_entrp">  12172.48781496 </i>
    <i name="e_0_energy">  12172.48691375 </i>
   </energy>
  </scstep>
  <scstep>
   <time name="total">   30.80   31.04</time>
   <energy>
    <i name="e_fr_energy">  12172.48601200 </i>
    <i name="e_wo_entrp">  12172.48781443 </i>
    <i name="e_0_energy">  12172.48691322 </i>
   </energy>
  </scstep>
  <scstep>
   <time name="total">   31.58   31.82</time>
   <energy>
    <i name="e_fr_energy">  12172.48601182 </i>
    <i name="e_wo_entrp">  12172.48781425 </i>
    <i name="e_0_energy">  12172.48691304 </i>
   </energy>
  </scstep>
  <scstep>
