<?xml version="1.0" encoding="ISO-8859-1"?>
<modeling>
 <generator>
  <i name="program" type="string">vasp </i>
  <i name="version" type="string">6.2.0  </i>
  <i name="subversion" type="string">18Jan21 (build Jan 05 2022 15:41:44) complex                          parallel </i>
  <i name="platform" type="string">LinuxIFC </i>
  <i name="date" type="string">2025 05 07 </i>
  <i name="time" type="string">20:03:16 </i>
 </generator>
 <incar>
  <i type="string" name="SYSTEM">routine with relax: pwdword</i>
  <i type="string" name="PREC">Acc</i>
  <i type="int" name="IALGO">    38</i>
  <i type="string" name="ALGO">A</i>
  <i type="logical" name="ADDGRID"> T  </i>
  <i type="int" name="ICHARG">     2</i>
  <i type="int" name="NELM">   100</i>
  <i type="int" name="NELMIN">     6</i>
  <i name="EDIFF">      0.00000000</i>
  <i type="int" name="NSW">     0</i>
  <i type="int" name="ISIF">    -1</i>
  <i name="ENCUT">    600.00000000</i>
  <i type="logical" name="LREAL"> F  </i>
  <i type="int" name="ISMEAR">     0</i>
  <i name="SIGMA">      0.02000000</i>
  <i type="logical" name="LASPH"> T  </i>
  <i type="string" name="METAGGA">R2SCAN</i>
  <i type="logical" name="LMIXTAU"> F  </i>
 </incar>
 <primitive_cell>
  <structure name="primitive_cell" >
   <crystal>
    <varray name="basis" >
     <v>       6.01040415       0.00000000      -3.24696700 </v>
     <v>      -2.13762113       5.61743125      -3.24696700 </v>
     <v>       0.00000000       0.00000000       6.83138000 </v>
    </varray>
    <i name="volume">    230.64810227 </i>
    <varray name="rec_basis" >
     <v>       0.16637816       0.06331248       0.00000000 </v>
     <v>       0.00000000       0.17801731       0.00000000 </v>
     <v>       0.07907984       0.11470447       0.14638331 </v>
    </varray>
   </crystal>
   <varray name="positions" >
    <v>       0.41375000       0.08625000       0.50000000 </v>
    <v>       0.58625000       0.91375000       0.50000000 </v>
    <v>       0.08625000       0.58625000       0.67250000 </v>
    <v>       0.91375000       0.41375000       0.32750000 </v>
    <v>       0.00000000       0.00000000       0.00000000 </v>
    <v>       0.25000000       0.25000000       0.00000000 </v>
    <v>       0.75000000       0.75000000       0.00000000 </v>
    <v>       0.50000000       0.50000000       0.00000000 </v>
    <v>       0.68122000       0.18122000       0.86245000 </v>
    <v>       0.31878000       0.81878000       0.13755000 </v>
    <v>       0.18122000       0.31878000       0.50000000 </v>
    <v>       0.81878000       0.68122000       0.50000000 </v>
   </varray>
  </structure>
  <varray name="primitive_index" >
   <v type="int" >        1 </v>
   <v type="int" >        2 </v>
   <v type="int" >        3 </v>
   <v type="int" >        4 </v>
   <v type="int" >        5 </v>
   <v type="int" >        6 </v>
   <v type="int" >        7 </v>
   <v type="int" >        8 </v>
   <v type="int" >        9 </v>
   <v type="int" >       10 </v>
   <v type="int" >       11 </v>
   <v type="int" >       12 </v>
  </varray>
 </primitive_cell>
 <kpoints>
  <generation param="Gamma">
   <v type="int" name="divisions">       6        6        7 </v>
   <v name="usershift">      0.00000000       0.00000000       0.00000000 </v>
   <v name="genvec1">      0.16666667      -0.00000000       0.00000000 </v>
   <v name="genvec2">      0.00000000       0.16666667       0.00000000 </v>
   <v name="genvec3">      0.00000000       0.00000000       0.14285714 </v>
   <v name="shift">      0.00000000       0.00000000       0.00000000 </v>
  </generation>
  <varray name="kpointlist" >
   <v>       0.00000000       0.00000000       0.00000000 </v>
   <v>       0.16666667      -0.00000000       0.00000000 </v>
   <v>       0.33333333      -0.00000000       0.00000000 </v>
   <v>       0.50000000      -0.00000000       0.00000000 </v>
   <v>       0.16666667       0.16666667       0.00000000 </v>
   <v>       0.33333333       0.16666667       0.00000000 </v>
   <v>       0.50000000       0.16666667       0.00000000 </v>
   <v>      -0.33333333       0.16666667       0.00000000 </v>
   <v>      -0.16666667       0.16666667       0.00000000 </v>
   <v>       0.33333333       0.33333333       0.00000000 </v>
   <v>       0.50000000       0.33333333       0.00000000 </v>
   <v>      -0.33333333       0.33333333       0.00000000 </v>
   <v>       0.50000000       0.50000000       0.00000000 </v>
   <v>       0.00000000       0.00000000       0.14285714 </v>
   <v>       0.16666667      -0.00000000       0.14285714 </v>
   <v>       0.33333333       0.00000000       0.14285714 </v>
   <v>       0.50000000      -0.00000000       0.14285714 </v>
   <v>      -0.33333333       0.00000000       0.14285714 </v>
   <v>      -0.16666667       0.00000000       0.14285714 </v>
   <v>       0.16666667       0.16666667       0.14285714 </v>
   <v>       0.33333333       0.16666667       0.14285714 </v>
   <v>       0.50000000       0.16666667       0.14285714 </v>
   <v>      -0.33333333       0.16666667       0.14285714 </v>
   <v>      -0.16666667       0.16666667       0.14285714 </v>
   <v>       0.33333333       0.33333333       0.14285714 </v>
   <v>       0.50000000       0.33333333       0.14285714 </v>
   <v>      -0.33333333       0.33333333       0.14285714 </v>
   <v>      -0.16666667       0.33333333       0.14285714 </v>
   <v>       0.50000000       0.50000000       0.14285714 </v>
   <v>      -0.33333333       0.50000000       0.14285714 </v>
   <v>      -0.16666667       0.50000000       0.14285714 </v>
   <v>      -0.33333333      -0.33333333       0.14285714 </v>
   <v>      -0.16666667      -0.33333333       0.14285714 </v>
   <v>      -0.16666667      -0.16666667       0.14285714 </v>
   <v>       0.00000000       0.00000000       0.28571429 </v>
   <v>       0.16666667      -0.00000000       0.28571429 </v>
   <v>       0.33333333      -0.00000000       0.28571429 </v>
   <v>       0.50000000      -0.00000000       0.28571429 </v>
   <v>      -0.33333333       0.00000000       0.28571429 </v>
   <v>      -0.16666667      -0.00000000       0.28571429 </v>
   <v>       0.16666667       0.16666667       0.28571429 </v>
   <v>       0.33333333       0.16666667       0.28571429 </v>
   <v>       0.50000000       0.16666667       0.28571429 </v>
   <v>      -0.33333333       0.16666667       0.28571429 </v>
   <v>      -0.16666667       0.16666667       0.28571429 </v>
   <v>       0.33333333       0.33333333       0.28571429 </v>
   <v>       0.50000000       0.33333333       0.28571429 </v>
   <v>      -0.33333333       0.33333333       0.28571429 </v>
   <v>      -0.16666667       0.33333333       0.28571429 </v>
   <v>       0.50000000       0.50000000       0.28571429 </v>
   <v>      -0.33333333       0.50000000       0.28571429 </v>
   <v>      -0.16666667       0.50000000       0.28571429 </v>
   <v>      -0.33333333      -0.33333333       0.28571429 </v>
   <v>      -0.16666667      -0.33333333       0.28571429 </v>
   <v>      -0.16666667      -0.16666667       0.28571429 </v>
   <v>       0.00000000       0.00000000       0.42857143 </v>
   <v>       0.16666667      -0.00000000       0.42857143 </v>
   <v>       0.33333333      -0.00000000       0.42857143 </v>
   <v>       0.50000000      -0.00000000       0.42857143 </v>
   <v>      -0.33333333       0.00000000       0.42857143 </v>
   <v>      -0.16666667       0.00000000       0.42857143 </v>
   <v>       0.16666667       0.16666667       0.42857143 </v>
   <v>       0.33333333       0.16666667       0.42857143 </v>
   <v>       0.50000000       0.16666667       0.42857143 </v>
   <v>      -0.33333333       0.16666667       0.42857143 </v>
   <v>      -0.16666667       0.16666667       0.42857143 </v>
   <v>       0.33333333       0.33333333       0.42857143 </v>
   <v>       0.50000000       0.33333333       0.42857143 </v>
   <v>      -0.33333333       0.33333333       0.42857143 </v>
   <v>      -0.16666667       0.33333333       0.42857143 </v>
   <v>       0.50000000       0.50000000       0.42857143 </v>
   <v>      -0.33333333       0.50000000       0.42857143 </v>
   <v>      -0.16666667       0.50000000       0.42857143 </v>
   <v>      -0.33333333      -0.33333333       0.42857143 </v>
   <v>      -0.16666667      -0.33333333       0.42857143 </v>
   <v>      -0.16666667      -0.16666667       0.42857143 </v>
  </varray>
  <varray name="weights" >
   <v>       0.00396825 </v>
   <v>       0.01587302 </v>
   <v>       0.01587302 </v>
   <v>       0.00793651 </v>
   <v>       0.00793651 </v>
   <v>       0.01587302 </v>
   <v>       0.01587302 </v>
   <v>       0.01587302 </v>
   <v>       0.00793651 </v>
   <v>       0.00793651 </v>
   <v>       0.01587302 </v>
   <v>       0.00793651 </v>
   <v>       0.00396825 </v>
   <v>       0.00793651 </v>
   <v>       0.01587302 </v>
   <v>       0.01587302 </v>
   <v>       0.01587302 </v>
   <v>       0.01587302 </v>
   <v>       0.01587302 </v>
   <v>       0.00793651 </v>
   <v>       0.01587302 </v>
   <v>       0.01587302 </v>
   <v>       0.01587302 </v>
   <v>       0.01587302 </v>
   <v>       0.00793651 </v>
   <v>       0.01587302 </v>
   <v>       0.01587302 </v>
   <v>       0.01587302 </v>
   <v>       0.00793651 </v>
   <v>       0.01587302 </v>
   <v>       0.01587302 </v>
   <v>       0.00793651 </v>
   <v>       0.01587302 </v>
   <v>       0.00793651 </v>
   <v>       0.00793651 </v>
   <v>       0.01587302 </v>
   <v>       0.01587302 </v>
   <v>       0.01587302 </v>
   <v>       0.01587302 </v>
   <v>       0.01587302 </v>
   <v>       0.00793651 </v>
   <v>       0.01587302 </v>
   <v>       0.01587302 </v>
   <v>       0.01587302 </v>
   <v>       0.01587302 </v>
   <v>       0.00793651 </v>
   <v>       0.01587302 </v>
   <v>       0.01587302 </v>
   <v>       0.01587302 </v>
   <v>       0.00793651 </v>
   <v>       0.01587302 </v>
   <v>       0.01587302 </v>
   <v>       0.00793651 </v>
   <v>       0.01587302 </v>
   <v>       0.00793651 </v>
   <v>       0.00793651 </v>
   <v>       0.01587302 </v>
   <v>       0.01587302 </v>
   <v>       0.01587302 </v>
   <v>       0.01587302 </v>
   <v>       0.01587302 </v>
   <v>       0.00793651 </v>
   <v>       0.01587302 </v>
   <v>       0.01587302 </v>
   <v>       0.01587302 </v>
   <v>       0.01587302 </v>
   <v>       0.00793651 </v>
   <v>       0.01587302 </v>
   <v>       0.01587302 </v>
   <v>       0.01587302 </v>
   <v>       0.00793651 </v>
   <v>       0.01587302 </v>
   <v>       0.01587302 </v>
   <v>       0.00793651 </v>
   <v>       0.01587302 </v>
   <v>       0.00793651 </v>
  </varray>
 </kpoints>
 <parameters>
  <separator name="general" >
   <i type="string" name="SYSTEM">routine with relax: pwdword</i>
   <i type="logical" name="LCOMPAT"> F  </i>
  </separator>
  <separator name="electronic" >
   <i type="string" name="PREC">acc</i>
   <i name="ENMAX">    600.00000000</i>
   <i name="ENAUG">    535.51400000</i>
   <i name="EDIFF">      0.00000000</i>
   <i type="int" name="IALGO">    58</i>
   <i type="int" name="IWAVPR">    10</i>
   <i type="int" name="NBANDS">    54</i>
   <i type="int" name="NBANDSLOW">    -1</i>
   <i type="int" name="NBANDSHIGH">    -1</i>
   <i name="NELECT">     84.00000000</i>
   <i type="int" name="TURBO">     0</i>
   <i type="int" name="IRESTART">     0</i>
   <i type="int" name="NREBOOT">     0</i>
   <i type="int" name="NMIN">     0</i>
   <i name="EREF">      0.00000000</i>
   <separator name="electronic smearing" >
    <i type="int" name="ISMEAR">     0</i>
    <i name="SIGMA">      0.02000000</i>
    <i name="KSPACING">      0.50000000</i>
    <i type="logical" name="KGAMMA"> T  </i>
    <i type="logical" name="KBLOWUP"> F  </i>
   </separator>
   <separator name="electronic projectors" >
    <i type="logical" name="LREAL"> F  </i>
    <v name="ROPT">      0.00000000      0.00000000      0.00000000</v>
    <i type="int" name="LMAXPAW">  -100</i>
    <i type="int" name="LMAXMIX">     2</i>
    <i type="logical" name="NLSPLINE"> F  </i>
   </separator>
   <separator name="electronic startup" >
    <i type="int" name="ISTART">     0</i>
    <i type="int" name="ICHARG">     2</i>
    <i type="int" name="INIWAV">     1</i>
   </separator>
   <separator name="electronic spin" >
    <i type="int" name="ISPIN">     1</i>
    <i type="logical" name="LNONCOLLINEAR"> F  </i>
    <v name="MAGMOM">      1.00000000      1.00000000      1.00000000      1.00000000      1.00000000      1.00000000      1.00000000      1.00000000      1.00000000      1.00000000      1.00000000      1.00000000</v>
    <i name="NUPDOWN">     -1.00000000</i>
    <i type="logical" name="LSORBIT"> F  </i>
    <v name="SAXIS">      0.00000000      0.00000000      1.00000000</v>
    <i type="logical" name="LSPIRAL"> F  </i>
    <v name="QSPIRAL">      0.00000000      0.00000000      0.00000000</v>
    <i type="logical" name="LZEROZ"> F  </i>
   </separator>
   <separator name="electronic exchange-correlation" >
    <i type="logical" name="LASPH"> T  </i>
    <i type="logical" name="LMETAGGA"> F  </i>
   </separator>
   <separator name="electronic convergence" >
    <i type="int" name="NELM">   100</i>
    <i type="int" name="NELMDL">    -5</i>
    <i type="int" name="NELMIN">     6</i>
    <i name="ENINI">    600.00000000</i>
    <separator name="electronic convergence detail" >
     <i type="logical" name="LDIAG"> T  </i>
     <i type="logical" name="LSUBROT"> F  </i>
     <i name="WEIMIN">      0.00000000</i>
     <i name="EBREAK">      0.00000000</i>
     <i name="DEPER">      0.30000000</i>
     <i type="int" name="NRMM">     4</i>
     <i name="TIME">      0.40000000</i>
    </separator>
   </separator>
   <separator name="electronic mixer" >
    <i name="AMIX">      0.40000000</i>
    <i name="BMIX">      1.00000000</i>
    <i name="AMIN">      0.10000000</i>
    <i name="AMIX_MAG">      1.60000000</i>
    <i name="BMIX_MAG">      1.00000000</i>
    <separator name="electronic mixer details" >
     <i type="int" name="IMIX">     4</i>
     <i type="logical" name="MIXFIRST"> F  </i>
     <i type="int" name="MAXMIX">   -45</i>
     <i name="WC">    100.00000000</i>
     <i type="int" name="INIMIX">     1</i>
     <i type="int" name="MIXPRE">     1</i>
     <i type="int" name="MREMOVE">     5</i>
    </separator>
   </separator>
   <separator name="electronic dipolcorrection" >
    <i type="logical" name="LDIPOL"> F  </i>
    <i type="logical" name="LMONO"> F  </i>
    <i type="int" name="IDIPOL">     0</i>
    <i name="EPSILON">      1.00000000</i>
    <v name="DIPOL">   -100.00000000   -100.00000000   -100.00000000</v>
    <i name="EFIELD">      0.00000000</i>
   </separator>
  </separator>
  <separator name="grids" >
   <i type="int" name="NGX">    56</i>
   <i type="int" name="NGY">    56</i>
   <i type="int" name="NGZ">    56</i>
   <i type="int" name="NGXF">   112</i>
   <i type="int" name="NGYF">   112</i>
   <i type="int" name="NGZF">   112</i>
   <i type="logical" name="ADDGRID"> T  </i>
  </separator>
  <separator name="ionic" >
   <i type="int" name="NSW">     0</i>
   <i type="int" name="IBRION">    -1</i>
   <i type="int" name="MDALGO">     0</i>
   <i type="int" name="ISIF">    -1</i>
   <i name="PSTRESS">      0.00000000</i>
   <i name="EDIFFG">      0.00000001</i>
   <i type="int" name="NFREE">     0</i>
   <i name="POTIM">      0.50000000</i>
   <i name="SMASS">     -3.00000000</i>
   <i name="SCALEE">      1.00000000</i>
  </separator>
  <separator name="ionic md" >
   <i name="TEBEG">      0.00010000</i>
   <i name="TEEND">      0.00010000</i>
   <i type="int" name="NBLOCK">     1</i>
   <i type="int" name="KBLOCK">     1</i>
   <i type="int" name="NPACO">   256</i>
   <i name="APACO">     16.00000000</i>
  </separator>
  <separator name="symmetry" >
   <i type="int" name="ISYM">     2</i>
   <i name="SYMPREC">      0.00001000</i>
  </separator>
  <separator name="dos" >
   <i type="int" name="LORBIT">     0</i>
   <v name="RWIGS">     -1.00000000     -1.00000000     -1.00000000</v>
   <i type="int" name="NEDOS">   301</i>
   <i name="EMIN">     10.00000000</i>
   <i name="EMAX">    -10.00000000</i>
   <i name="EFERMI">      0.00000000</i>
  </separator>
  <separator name="writing" >
   <i type="int" name="NWRITE">     2</i>
   <i type="logical" name="LWAVE"> T  </i>
   <i type="logical" name="LDOWNSAMPLE"> F  </i>
   <i type="logical" name="LCHARG"> T  </i>
   <i type="logical" name="LPARD"> F  </i>
   <i type="logical" name="LVTOT"> F  </i>
   <i type="logical" name="LVHAR"> F  </i>
   <i type="logical" name="LELF"> F  </i>
   <i type="logical" name="LOPTICS"> F  </i>
   <v name="STM">      0.00000000      0.00000000      0.00000000      0.00000000      0.00000000      0.00000000      0.00000000</v>
  </separator>
  <separator name="performance" >
   <i type="int" name="NPAR">     6</i>
   <i type="int" name="NSIM">     4</i>
   <i type="int" name="NBLK">    -1</i>
   <i type="logical" name="LPLANE"> T  </i>
   <i type="logical" name="LSCALAPACK"> T  </i>
   <i type="logical" name="LSCAAWARE"> F  </i>
   <i type="logical" name="LSCALU"> F  </i>
   <i type="logical" name="LASYNC"> F  </i>
   <i type="logical" name="LORBITALREAL"> F  </i>
  </separator>
  <separator name="miscellaneous" >
   <i type="int" name="IDIOT">     3</i>
   <i type="int" name="PHON_NSTRUCT">    -1</i>
   <i type="logical" name="LMUSIC"> F  </i>
   <v name="POMASS">     10.81100000     95.94000000     28.08500000</v>
   <v name="DARWINR">      0.00000000      0.00000000      0.00000000</v>
   <v name="DARWINV">      1.00000000      1.00000000      1.00000000</v>
   <i type="logical" name="LCORR"> T  </i>
  </separator>
  <i type="logical" name="GGA_COMPAT"> T  </i>
  <i type="logical" name="LBERRY"> F  </i>
  <i type="int" name="ICORELEVEL">     0</i>
  <i type="logical" name="LDAU"> F  </i>
  <i type="int" name="I_CONSTRAINED_M">     0</i>
  <separator name="electronic exchange-correlation" >
   <i type="string" name="GGA">--</i>
   <i type="int" name="VOSKOWN">     0</i>
   <i type="logical" name="LHFCALC"> F  </i>
   <i type="string" name="PRECFOCK"></i>
   <i type="logical" name="LSYMGRAD"> F  </i>
   <i type="logical" name="LHFONE"> F  </i>
   <i type="logical" name="LRHFCALC"> F  </i>
   <i type="logical" name="LTHOMAS"> F  </i>
   <i type="logical" name="LMODELHF"> F  </i>
   <i type="logical" name="LFOCKACE"> F  </i>
   <i name="ENCUT4O">     -1.00000000</i>
   <i type="int" name="EXXOEP">     0</i>
   <i type="int" name="FOURORBIT">     0</i>
   <i name="AEXX">      0.00000000</i>
   <i name="HFALPHA">      0.00000000</i>
   <i name="MCALPHA">      0.00000000</i>
   <i name="ALDAX">      1.00000000</i>
   <i name="AGGAX">      1.00000000</i>
   <i name="ALDAC">      1.00000000</i>
   <i name="AGGAC">      1.00000000</i>
   <i type="int" name="NKREDX">     1</i>
   <i type="int" name="NKREDY">     1</i>
   <i type="int" name="NKREDZ">     1</i>
   <i type="logical" name="SHIFTRED"> F  </i>
   <i type="logical" name="ODDONLY"> F  </i>
   <i type="logical" name="EVENONLY"> F  </i>
   <i type="int" name="LMAXFOCK">     0</i>
   <i type="int" name="NMAXFOCKAE">     0</i>
   <i type="logical" name="LFOCKAEDFT"> F  </i>
   <i name="HFSCREEN">      0.00000000</i>
   <i name="HFSCREENC">      0.00000000</i>
   <i type="int" name="NBANDSGWLOW">     0</i>
  </separator>
  <separator name="vdW DFT" >
   <i type="logical" name="LUSE_VDW"> F  </i>
   <i name="Zab_VDW">     -0.84910000</i>
   <i name="PARAM1">      0.12340000</i>
   <i name="PARAM2">      1.00000000</i>
   <i name="PARAM3">      0.00000000</i>
  </separator>
  <separator name="model GW" >
   <i type="int" name="MODEL_GW">     0</i>
   <i name="MODEL_EPS0">     11.53240511</i>
   <i name="MODEL_ALPHA">      1.00000000</i>
  </separator>
  <separator name="linear response parameters" >
   <i type="logical" name="LEPSILON"> F  </i>
   <i type="logical" name="LRPA"> F  </i>
   <i type="logical" name="LNABLA"> F  </i>
   <i type="logical" name="LVEL"> F  </i>
   <i type="int" name="KINTER">     0</i>
   <i name="CSHIFT">      0.10000000</i>
   <i name="OMEGAMAX">     -1.00000000</i>
   <i name="DEG_THRESHOLD">      0.00200000</i>
   <i name="RTIME">     -0.10000000</i>
   <i name="WPLASMAI">      0.00000000</i>
   <v name="DFIELD">      0.00000000      0.00000000      0.00000000</v>
   <v name="WPLASMA">      0.00000000      0.00000000      0.00000000      0.00000000      0.00000000      0.00000000      0.00000000      0.00000000      0.00000000</v>
  </separator>
  <separator name="orbital magnetization" >
   <i type="logical" name="NUCIND"> F  </i>
   <v name="MAGPOS">      0.00000000      0.00000000      0.00000000</v>
   <i type="logical" name="LNICSALL"> T  </i>
   <i type="logical" name="ORBITALMAG"> F  </i>
   <i type="logical" name="LMAGBLOCH"> F  </i>
   <i type="logical" name="LCHIMAG"> F  </i>
   <i type="logical" name="LGAUGE"> T  </i>
   <i type="int" name="MAGATOM">     0</i>
   <v name="MAGDIPOL">      0.00000000      0.00000000      0.00000000</v>
   <v name="AVECCONST">      0.00000000      0.00000000      0.00000000</v>
  </separator>
  <separator name="response functions" >
   <i type="logical" name="LFINITE_TEMPERATURE"> F  </i>
   <i type="logical" name="LADDER"> F  </i>
   <i type="logical" name="LRPAFORCE"> F  </i>
   <i type="logical" name="LFXC"> F  </i>
   <i type="logical" name="LHARTREE"> T  </i>
   <i type="int" name="IBSE">     0</i>
   <v type="int" name="KPOINT">    -1     0     0     0</v>
   <i type="logical" name="LTCTC"> F  </i>
   <i type="logical" name="LTCTE"> F  </i>
   <i type="logical" name="LTETE"> F  </i>
   <i type="logical" name="LTRIPLET"> F  </i>
   <i type="logical" name="LFXCEPS"> F  </i>
   <i type="logical" name="LFXHEG"> F  </i>
   <i type="int" name="NATURALO">     2</i>
   <i type="logical" name="LHOLEGF"> F  </i>
   <i type="logical" name="L2ORDER"> F  </i>
   <i type="logical" name="LDMP1"> F  </i>
   <i type="logical" name="LMP2LT"> F  </i>
   <i type="logical" name="LSMP2LT"> F  </i>
   <i type="logical" name="LGWLF"> F  </i>
   <i name="ENCUTGW">     -2.00000000</i>
   <i name="ENCUTGWSOFT">     -2.00000000</i>
   <i name="ENCUTLF">     -1.00000000</i>
   <i type="logical" name="LESF_SPLINES"> F  </i>
   <i type="int" name="LMAXMP2">    -1</i>
   <i name="SCISSOR">      0.00000000</i>
   <i type="int" name="NOMEGA">     0</i>
   <i type="int" name="NOMEGAR">     0</i>
   <i type="int" name="NBANDSGW">    -1</i>
   <i type="int" name="NBANDSO">    -1</i>
   <i type="int" name="NBANDSV">    -1</i>
   <i type="int" name="NELM">   100</i>
   <i type="int" name="NELMHF">     1</i>
   <i type="int" name="DIM">     3</i>
   <i type="int" name="IESPILON">     4</i>
   <i type="int" name="ANTIRES">     0</i>
   <i name="OMEGAMAX">    -30.00000000</i>
   <i name="OMEGAMIN">    -30.00000000</i>
   <i name="OMEGATL">   -200.00000000</i>
   <i type="int" name="OMEGAGRID">     0</i>
   <i name="CSHIFT">     -0.10000000</i>
   <i type="logical" name="LSELFENERGY"> F  </i>
   <i type="logical" name="LSPECTRAL"> F  </i>
   <i type="logical" name="LSPECTRALGW"> F  </i>
   <i type="logical" name="LSINGLES"> F  </i>
   <i type="logical" name="LFERMIGW"> F  </i>
   <i type="logical" name="ODDONLYGW"> F  </i>
   <i type="logical" name="EVENONLYGW"> F  </i>
   <i type="int" name="NKREDLFX">     1</i>
   <i type="int" name="NKREDLFY">     1</i>
   <i type="int" name="NKREDLFZ">     1</i>
   <i type="int" name="MAXMEM">  2800</i>
   <i type="int" name="TELESCOPE">     0</i>
   <i type="int" name="NTAUPAR">    -1</i>
   <i type="int" name="NOMEGAPAR">    -1</i>
   <i name="DAMP_NEWTON">      0.80000001</i>
   <i name="LAMBDA">      1.00000000</i>
  </separator>
  <separator name="External order field" >
   <i name="OFIELD_KAPPA">      0.00000000</i>
   <v name="OFIELD_K">      0.00000000      0.00000000      0.00000000</v>
   <i name="OFIELD_Q6_NEAR">      0.00000000</i>
   <i name="OFIELD_Q6_FAR">      0.00000000</i>
   <i name="OFIELD_A">      0.00000000</i>
  </separator>
 </parameters>
 <atominfo>
  <atoms>      12 </atoms>
  <types>       3 </types>
  <array name="atoms" >
   <dimension dim="1">ion</dimension>
   <field type="string">element</field>
   <field type="int">atomtype</field>
   <set>
    <rc><c>B </c><c>   1</c></rc>
    <rc><c>B </c><c>   1</c></rc>
    <rc><c>B </c><c>   1</c></rc>
    <rc><c>B </c><c>   1</c></rc>
    <rc><c>Mo</c><c>   2</c></rc>
    <rc><c>Mo</c><c>   2</c></rc>
    <rc><c>Mo</c><c>   2</c></rc>
    <rc><c>Mo</c><c>   2</c></rc>
    <rc><c>Si</c><c>   3</c></rc>
    <rc><c>Si</c><c>   3</c></rc>
    <rc><c>Si</c><c>   3</c></rc>
    <rc><c>Si</c><c>   3</c></rc>
   </set>
  </array>
  <array name="atomtypes" >
   <dimension dim="1">type</dimension>
   <field type="int">atomspertype</field>
   <field type="string">element</field>
   <field>mass</field>
   <field>valence</field>
   <field type="string">pseudopotential</field>
   <set>
    <rc><c>   4</c><c>B </c><c>     10.81100000</c><c>      3.00000000</c><c>  PAW_PBE B 06Sep2000                   </c></rc>
    <rc><c>   4</c><c>Mo</c><c>     95.94000000</c><c>     14.00000000</c><c>  PAW_PBE Mo_sv 02Feb2006               </c></rc>
    <rc><c>   4</c><c>Si</c><c>     28.08500000</c><c>      4.00000000</c><c>  PAW_PBE Si 05Jan2001                  </c></rc>
   </set>
  </array>
 </atominfo>
 <structure name="initialpos" >
  <crystal>
   <varray name="basis" >
    <v>       6.01040415       0.00000000      -3.24696700 </v>
    <v>      -2.13762113       5.61743125      -3.24696700 </v>
    <v>       0.00000000       0.00000000       6.83138000 </v>
   </varray>
   <i name="volume">    230.64810227 </i>
   <varray name="rec_basis" >
    <v>       0.16637816       0.06331248       0.00000000 </v>
    <v>       0.00000000       0.17801731       0.00000000 </v>
    <v>       0.07907984       0.11470447       0.14638331 </v>
   </varray>
  </crystal>
  <varray name="positions" >
   <v>       0.41375000       0.08625000       0.50000000 </v>
   <v>       0.58625000       0.91375000       0.50000000 </v>
   <v>       0.08625000       0.58625000       0.67250000 </v>
   <v>       0.91375000       0.41375000       0.32750000 </v>
   <v>       0.00000000       0.00000000       0.00000000 </v>
   <v>       0.25000000       0.25000000       0.00000000 </v>
   <v>       0.75000000       0.75000000       0.00000000 </v>
   <v>       0.50000000       0.50000000       0.00000000 </v>
   <v>       0.68122000       0.18122000       0.86245000 </v>
   <v>       0.31878000       0.81878000       0.13755000 </v>
   <v>       0.18122000       0.31878000       0.50000000 </v>
   <v>       0.81878000       0.68122000       0.50000000 </v>
  </varray>
 </structure>
 <calculation>
  <scstep>
   <time name="total">   22.13   22.81</time>
   <energy>
    <i name="alphaZ">    237.42453804 </i>
    <i name="ewald">  -4896.78298401 </i>
    <i name="hartreedc">  -2886.00676239 </i>
    <i name="XCdc">    314.82530972 </i>
    <i name="pawpsdc">   6444.67582193 </i>
    <i name="pawaedc">  -6389.50304870 </i>
    <i name="eentropy">     -0.00094431 </i>
    <i name="bandstr">   -346.70162371 </i>
    <i name="atom">   8146.07472429 </i>
    <i name="e_fr_energy">    624.00503085 </i>
    <i name="e_wo_entrp">    624.00597517 </i>
    <i name="e_0_energy">    624.00550301 </i>
   </energy>
  </scstep>
  <scstep>
   <time name="total">   22.39   22.82</time>
   <energy>
    <i name="e_fr_energy">   -147.58729793 </i>
    <i name="e_wo_entrp">   -147.58579575 </i>
    <i name="e_0_energy">   -147.58654684 </i>
   </energy>
  </scstep>
  <scstep>
   <time name="total">   24.92   25.45</time>
   <energy>
    <i name="e_fr_energy">   -183.27976556 </i>
    <i name="e_wo_entrp">   -183.27843255 </i>
    <i name="e_0_energy">   -183.27909906 </i>
   </energy>
  </scstep>
  <scstep>
   <time name="total">   24.05   24.59</time>
   <energy>
    <i name="e_fr_energy">   -184.30885701 </i>
    <i name="e_wo_entrp">   -184.30696706 </i>
    <i name="e_0_energy">   -184.30791204 </i>
   </energy>
  </scstep>
  <scstep>
   <time name="total">   26.27   26.80</time>
   <energy>
    <i name="e_fr_energy">   -184.33659479 </i>
    <i name="e_wo_entrp">   -184.33474348 </i>
    <i name="e_0_energy">   -184.33566913 </i>
   </energy>
  </scstep>
  <scstep>
   <time name="total">   25.62   25.90</time>
   <energy>
    <i name="e_fr_energy">   -105.90163674 </i>
    <i name="e_wo_entrp">   -105.90039951 </i>
    <i name="e_0_energy">   -105.90101813 </i>
   </energy>
  </scstep>
  <scstep>
   <time name="total">   27.59   27.85</time>
   <energy>
    <i name="e_fr_energy">   -142.48338866 </i>
    <i name="e_wo_entrp">   -142.48092596 </i>
    <i name="e_0_energy">   -142.48215731 </i>
   </energy>
  </scstep>
  <scstep>
   <time name="total">   26.62   26.91</time>
   <energy>
    <i name="e_fr_energy">   -146.78469035 </i>
    <i name="e_wo_entrp">   -146.78088228 </i>
    <i name="e_0_energy">   -146.78278631 </i>
   </energy>
  </scstep>
  <scstep>
   <time name="total">   28.50   28.94</time>
   <energy>
    <i name="e_fr_energy">   -148.09040289 </i>
    <i name="e_wo_entrp">   -148.08671113 </i>
    <i name="e_0_energy">   -148.08855701 </i>
   </energy>
  </scstep>
  <scstep>
   <time name="total">   28.32   28.72</time>
   <energy>
    <i name="e_fr_energy">   -148.56815280 </i>
    <i name="e_wo_entrp">   -148.56481727 </i>
    <i name="e_0_energy">   -148.56648503 </i>
   </energy>
  </scstep>
  <scstep>
   <time name="total">   28.56   29.17</time>
   <energy>
    <i name="e_fr_energy">   -148.83117526 </i>
    <i name="e_wo_entrp">   -148.82813585 </i>
    <i name="e_0_energy">   -148.82965556 </i>
   </energy>
  </scstep>
  <scstep>
   <time name="total">   28.51   28.98</time>
   <energy>
    <i name="e_fr_energy">   -149.07549617 </i>
    <i name="e_wo_entrp">   -149.07239272 </i>
    <i name="e_0_energy">   -149.07394445 </i>
   </energy>
  </scstep>
  <scstep>
   <time name="total">   28.07   28.46</time>
   <energy>
    <i name="e_fr_energy">   -149.18597644 </i>
    <i name="e_wo_entrp">   -149.18305702 </i>
    <i name="e_0_energy">   -149.18451673 </i>
   </energy>
  </scstep>
  <scstep>
   <time name="total">   27.07   27.33</time>
   <energy>
    <i name="e_fr_energy">   -149.23449377 </i>
    <i name="e_wo_entrp">   -149.23166062 </i>
    <i name="e_0_energy">   -149.23307719 </i>
   </energy>
  </scstep>
  <scstep>
   <time name="total">   28.53   28.90</time>
   <energy>
    <i name="e_fr_energy">   -149.28713784 </i>
    <i name="e_wo_entrp">   -149.28431381 </i>
    <i name="e_0_energy">   -149.28572583 </i>
   </energy>
  </scstep>
  <scstep>
   <time name="total">   28.39   28.64</time>
   <energy>
    <i name="e_fr_energy">   -149.31593168 </i>
    <i name="e_wo_entrp">   -149.31319587 </i>
    <i name="e_0_energy">   -149.31456377 </i>
   </energy>
  </scstep>
  <scstep>
   <time name="total">   27.84   28.22</time>
   <energy>
    <i name="e_fr_energy">   -149.33920519 </i>
    <i name="e_wo_entrp">   -149.33686213 </i>
    <i name="e_0_energy">   -149.33803366 </i>
   </energy>
  </scstep>
  <scstep>
   <time name="total">   29.12   29.55</time>
   <energy>
    <i name="e_fr_energy">   -149.36249898 </i>
    <i name="e_wo_entrp">   -149.36047822 </i>
    <i name="e_0_energy">   -149.36148860 </i>
   </energy>
  </scstep>
  <scstep>
   <time name="total">   28.53   29.03</time>
   <energy>
    <i name="e_fr_energy">   -149.37216181 </i>
    <i name="e_wo_entrp">   -149.37044442 </i>
    <i name="e_0_energy">   -149.37130311 </i>
   </energy>
  </scstep>
  <scstep>
   <time name="total">   27.33   28.05</time>
   <energy>
    <i name="e_fr_energy">   -149.38108084 </i>
    <i name="e_wo_entrp">   -149.37957757 </i>
    <i name="e_0_energy">   -149.38032921 </i>
   </energy>
  </scstep>
  <scstep>
   <time name="total">   26.36   26.60</time>
   <energy>
    <i name="e_fr_energy">   -149.39097175 </i>
    <i name="e_wo_entrp">   -149.38947319 </i>
    <i name="e_0_energy">   -149.39022247 </i>
   </energy>
  </scstep>
  <scstep>
   <time name="total">   27.87   28.33</time>
   <energy>
    <i name="e_fr_energy">   -149.39511961 </i>
    <i name="e_wo_entrp">   -149.39358598 </i>
    <i name="e_0_energy">   -149.39435280 </i>
   </energy>
  </scstep>
  <scstep>
   <time name="total">   28.19   28.54</time>
   <energy>
    <i name="e_fr_energy">   -149.39923582 </i>
    <i name="e_wo_entrp">   -149.39767793 </i>
    <i name="e_0_energy">   -149.39845687 </i>
   </energy>
  </scstep>
  <scstep>
   <time name="total">   28.17   28.66</time>
   <energy>
    <i name="e_fr_energy">   -149.40274856 </i>
    <i name="e_wo_entrp">   -149.40116885 </i>
    <i name="e_0_energy">   -149.40195871 </i>
   </energy>
  </scstep>
  <scstep>
   <time name="total">   28.87   29.37</time>
   <energy>
    <i name="e_fr_energy">   -149.40433309 </i>
    <i name="e_wo_entrp">   -149.40269466 </i>
    <i name="e_0_energy">   -149.40351388 </i>
   </energy>
  </scstep>
  <scstep>
   <time name="total">   28.23   28.75</time>
   <energy>
    <i name="e_fr_energy">   -149.40598134 </i>
    <i name="e_wo_entrp">   -149.40430001 </i>
    <i name="e_0_energy">   -149.40514067 </i>
   </energy>
  </scstep>
  <scstep>
   <time name="total">   29.65   29.91</time>
   <energy>
    <i name="e_fr_energy">   -149.40713345 </i>
    <i name="e_wo_entrp">   -149.40543848 </i>
    <i name="e_0_energy">   -149.40628596 </i>
   </energy>
  </scstep>
  <scstep>
   <time name="total">   27.64   28.19</time>
   <energy>
    <i name="e_fr_energy">   -149.40789427 </i>
    <i name="e_wo_entrp">   -149.40619440 </i>
    <i name="e_0_energy">   -149.40704433 </i>
   </energy>
  </scstep>
  <scstep>
   <time name="total">   29.58   30.00</time>
   <energy>
    <i name="e_fr_energy">   -149.40852872 </i>
    <i name="e_wo_entrp">   -149.40682179 </i>
    <i name="e_0_energy">   -149.40767526 </i>
   </energy>
  </scstep>
  <scstep>
   <time name="total">   28.12   28.37</time>
   <energy>
    <i name="e_fr_energy">   -149.40884673 </i>
    <i name="e_wo_entrp">   -149.40712435 </i>
    <i name="e_0_energy">   -149.40798554 </i>
   </energy>
  </scstep>
  <scstep>
   <time name="total">   27.86   28.11</time>
   <energy>
    <i name="e_fr_energy">   -149.40922743 </i>
    <i name="e_wo_entrp">   -149.40749532 </i>
    <i name="e_0_energy">   -149.40836137 </i>
   </energy>
  </scstep>
  <scstep>
   <time name="total">   27.52   27.85</time>
   <energy>
    <i name="e_fr_energy">   -149.40946326 </i>
    <i name="e_wo_entrp">   -149.40772722 </i>
    <i name="e_0_energy">   -149.40859524 </i>
   </energy>
  </scstep>
  <scstep>
   <time name="total">   28.85   29.46</time>
   <energy>
    <i name="e_fr_energy">   -149.40957023 </i>
    <i name="e_wo_entrp">   -149.40782732 </i>
    <i name="e_0_energy">   -149.40869878 </i>
   </energy>
  </scstep>
  <scstep>
   <time name="total">   28.39   29.07</time>
   <energy>
    <i name="e_fr_energy">   -149.40974768 </i>
    <i name="e_wo_entrp">   -149.40800145 </i>
    <i name="e_0_energy">   -149.40887456 </i>
   </energy>
  </scstep>
  <scstep>
   <time name="total">   27.68   28.02</time>
   <energy>
    <i name="e_fr_energy">   -149.40983388 </i>
    <i name="e_wo_entrp">   -149.40808675 </i>
    <i name="e_0_energy">   -149.40896031 </i>
   </energy>
  </scstep>
  <scstep>
   <time name="total">   28.85   29.31</time>
   <energy>
    <i name="e_fr_energy">   -149.40987172 </i>
    <i name="e_wo_entrp">   -149.40812555 </i>
    <i name="e_0_energy">   -149.40899864 </i>
   </energy>
  </scstep>
  <scstep>
   <time name="total">   29.04   29.31</time>
   <energy>
    <i name="e_fr_energy">   -149.40993506 </i>
    <i name="e_wo_entrp">   -149.40818969 </i>
    <i name="e_0_energy">   -149.40906238 </i>
   </energy>
  </scstep>
  <scstep>
   <time name="total">   27.88   28.24</time>
   <energy>
    <i name="e_fr_energy">   -149.40997450 </i>
    <i name="e_wo_entrp">   -149.40822878 </i>
    <i name="e_0_energy">   -149.40910164 </i>
   </energy>
  </scstep>
  <scstep>
   <time name="total">   29.30   29.80</time>
   <energy>
    <i name="e_fr_energy">   -149.41000835 </i>
    <i name="e_wo_entrp">   -149.40826581 </i>
    <i name="e_0_energy">   -149.40913708 </i>
   </energy>
  </scstep>
  <scstep>
   <time name="total">   27.47   27.72</time>
   <energy>
    <i name="e_fr_energy">   -149.41001668 </i>
    <i name="e_wo_entrp">   -149.40827435 </i>
    <i name="e_0_energy">   -149.40914552 </i>
   </energy>
  </scstep>
  <scstep>
   <time name="total">   28.70   28.97</time>
   <energy>
    <i name="e_fr_energy">   -149.41002303 </i>
    <i name="e_wo_entrp">   -149.40828010 </i>
    <i name="e_0_energy">   -149.40915156 </i>
   </energy>
  </scstep>
  <scstep>
   <time name="total">   28.11   28.35</time>
   <energy>
    <i name="e_fr_energy">   -149.41002567 </i>
    <i name="e_wo_entrp">   -149.40828334 </i>
    <i name="e_0_energy">   -149.40915450 </i>
   </energy>
  </scstep>
  <scstep>
   <time name="total">   27.45   27.71</time>
   <energy>
    <i name="e_fr_energy">   -149.41002700 </i>
    <i name="e_wo_entrp">   -149.40828486 </i>
    <i name="e_0_energy">   -149.40915593 </i>
   </energy>
  </scstep>
  <scstep>
   <time name="total">   29.29   29.80</time>
   <energy>
    <i name="e_fr_energy">   -149.41002744 </i>
    <i name="e_wo_entrp">   -149.40828518 </i>
    <i name="e_0_energy">   -149.40915631 </i>
   </energy>
  </scstep>
  <scstep>
   <time name="total">   27.37   27.63</time>
   <energy>
    <i name="e_fr_energy">   -149.41002766 </i>
    <i name="e_wo_entrp">   -149.40828531 </i>
    <i name="e_0_energy">   -149.40915649 </i>
   </energy>
  </scstep>
  <scstep>
   <time name="total">   27.80   28.05</time>
   <energy>
    <i name="e_fr_energy">   -149.41002779 </i>
    <i name="e_wo_entrp">   -149.40828543 </i>
    <i name="e_0_energy">   -149.40915661 </i>
   </energy>
  </scstep>
  <scstep>
   <time name="total">   28.54   29.01</time>
   <energy>
    <i name="e_fr_energy">   -149.41002790 </i>
    <i name="e_wo_entrp">   -149.40828558 </i>
    <i name="e_0_energy">   -149.40915674 </i>
   </energy>
  </scstep>
  <scstep>
   <time name="total">   28.42   28.86</time>
   <energy>
    <i name="e_fr_energy">   -149.41002787 </i>
    <i name="e_wo_entrp">   -149.40828558 </i>
    <i name="e_0_energy">   -149.40915673 </i>
   </energy>
  </scstep>
  <scstep>
   <time name="total">   28.23   28.76</time>
   <energy>
    <i name="e_fr_energy">   -149.41002806 </i>
    <i name="e_wo_entrp">   -149.40828574 </i>
    <i name="e_0_energy">   -149.40915690 </i>
   </energy>
  </scstep>
  <scstep>
   <time name="total">   28.35   28.75</time>
   <energy>
    <i name="e_fr_energy">   -149.41002806 </i>
    <i name="e_wo_entrp">   -149.40828573 </i>
    <i name="e_0_energy">   -149.40915690 </i>
   </energy>
  </scstep>
  <scstep>
   <time name="total">   28.71   28.97</time>
   <energy>
    <i name="e_fr_energy">   -149.41002807 </i>
    <i name="e_wo_entrp">   -149.40828575 </i>
    <i name="e_0_energy">   -149.40915691 </i>
   </energy>
  </scstep>
  <scstep>
   <time name="total">   46.72   47.15</time>
   <energy>
    <i name="e_fr_energy">   -149.41002808 </i>
    <i name="e_wo_entrp">   -149.40828578 </i>
    <i name="e_0_energy">   -149.40915693 </i>
   </energy>
  </scstep>
  <scstep>
   <time name="total">   27.27   27.51</time>
   <energy>
    <i name="e_fr_energy">   -149.41002807 </i>
    <i name="e_wo_entrp">   -149.40828583 </i>
    <i name="e_0_energy">   -149.40915695 </i>
   </energy>
  </scstep>
  <scstep>
   <time name="total">   27.90   28.19</time>
   <energy>
    <i name="e_fr_energy">   -149.41002814 </i>
    <i name="e_wo_entrp">   -149.40828590 </i>
    <i name="e_0_energy">   -149.40915702 </i>
   </energy>
  </scstep>
  <scstep>
   <time name="total">   28.99   29.32</time>
   <energy>
    <i name="e_fr_energy">   -149.41002814 </i>
    <i name="e_wo_entrp">   -149.40828594 </i>
    <i name="e_0_energy">   -149.40915704 </i>
   </energy>
  </scstep>
  <scstep>
   <time name="total">   29.10   29.46</time>
   <energy>
    <i name="e_fr_energy">   -149.41002815 </i>
    <i name="e_wo_entrp">   -149.40828595 </i>
    <i name="e_0_energy">   -149.40915705 </i>
   </energy>
  </scstep>
  <scstep>
   <time name="total">   33.73   34.19</time>
   <energy>
    <i name="alphaZ">    237.42453804 </i>
    <i name="ewald">  -4896.78298401 </i>
    <i name="hartreedc">  -2853.54151259 </i>
    <i name="XCdc">    324.13088622 </i>
    <i name="pawpsdc">  10397.71380288 </i>
    <i name="pawaedc"> -10351.33784079 </i>
    <i name="eentropy">     -0.00174219 </i>
    <i name="bandstr">  -1153.08989999 </i>
    <i name="atom">   8146.07472429 </i>
    <i name="e_fr_energy">   -149.41002815 </i>
    <i name="e_wo_entrp">   -149.40828596 </i>
    <i name="e_0_energy">   -149.40915705 </i>
   </energy>
  </scstep>
  <structure>
   <crystal>
    <varray name="basis" >
     <v>       6.01040415       0.00000000      -3.24696700 </v>
     <v>      -2.13762113       5.61743125      -3.24696700 </v>
     <v>       0.00000000       0.00000000       6.83138000 </v>
    </varray>
    <i name="volume">    230.64810227 </i>
    <varray name="rec_basis" >
     <v>       0.16637816       0.06331248       0.00000000 </v>
     <v>       0.00000000       0.17801731       0.00000000 </v>
     <v>       0.07907984       0.11470447       0.14638331 </v>
    </varray>
   </crystal>
   <varray name="positions" >
    <v>       0.41375000       0.08625000       0.50000000 </v>
    <v>       0.58625000       0.91375000       0.50000000 </v>
    <v>       0.08625000       0.58625000       0.67250000 </v>
    <v>       0.91375000       0.41375000       0.32750000 </v>
    <v>       0.00000000       0.00000000       0.00000000 </v>
    <v>       0.25000000       0.25000000       0.00000000 </v>
    <v>       0.75000000       0.75000000       0.00000000 </v>
    <v>       0.50000000       0.50000000       0.00000000 </v>
    <v>       0.68122000       0.18122000       0.86245000 </v>
    <v>       0.31878000       0.81878000       0.13755000 </v>
    <v>       0.18122000       0.31878000       0.50000000 </v>
    <v>       0.81878000       0.68122000       0.50000000 </v>
   </varray>
  </structure>
  <varray name="forces" >
   <v>       0.00000000       0.00000000       0.00000000 </v>
   <v>       0.00000000       0.00000000       0.00000000 </v>
   <v>       0.00000000       0.00000000       0.00000000 </v>
   <v>       0.00000000       0.00000000       0.00000000 </v>
   <v>       0.00000000       0.00000000       0.00000000 </v>
   <v>       0.00000000       0.00000000       0.00000000 </v>
   <v>       0.00000000       0.00000000       0.00000000 </v>
   <v>       0.00000000       0.00000000       0.00000000 </v>
   <v>       0.00000000       0.00000000       0.00000000 </v>
   <v>       0.00000000       0.00000000       0.00000000 </v>
   <v>       0.00000000       0.00000000       0.00000000 </v>
   <v>       0.00000000       0.00000000       0.00000000 </v>
  </varray>
  <varray name="stress" >
   <v>       0.00000000       0.00000000       0.00000000 </v>
   <v>       0.00000000       0.00000000       0.00000000 </v>
   <v>       0.00000000       0.00000000       0.00000000 </v>
  </varray>
  <energy>
   <i name="e_fr_energy">   -149.41002815 </i>
   <i name="e_wo_entrp">   -149.40828596 </i>
   <i name="e_0_energy">   -149.40915705 </i>
  </energy>
  <time name="totalsc"> 1612.43 1635.31</time>
  <eigenvalues>
   <array>
    <dimension dim="1">band</dimension>
    <dimension dim="2">kpoint</dimension>
    <dimension dim="3">spin</dimension>
    <field>eigene</field>
    <field>occ</field>
    <set>
     <set comment="spin 1">
      <set comment="kpoint 1">
       <r>  -57.7757    1.0000 </r>
       <r>  -57.5133    1.0000 </r>
       <r>  -57.4801    1.0000 </r>
       <r>  -57.2010    1.0000 </r>
       <r>  -32.5890    1.0000 </r>
       <r>  -31.1318    1.0000 </r>
       <r>  -31.1250    1.0000 </r>
       <r>  -31.1185    1.0000 </r>
       <r>  -31.0047    1.0000 </r>
       <r>  -30.9607    1.0000 </r>
       <r>  -30.9601    1.0000 </r>
       <r>  -30.8697    1.0000 </r>
       <r>  -30.8531    1.0000 </r>
       <r>  -30.6866    1.0000 </r>
       <r>  -30.6762    1.0000 </r>
       <r>  -29.3353    1.0000 </r>
       <r>   -7.8114    1.0000 </r>
       <r>   -6.9170    1.0000 </r>
       <r>   -4.0190    1.0000 </r>
       <r>   -4.0051    1.0000 </r>
       <r>   -1.9869    1.0000 </r>
       <r>   -1.6571    1.0000 </r>
       <r>   -1.1967    1.0000 </r>
       <r>   -1.1886    1.0000 </r>
       <r>   -0.1913    1.0000 </r>
       <r>    0.8946    1.0000 </r>
       <r>    1.2613    1.0000 </r>
       <r>    1.7058    1.0000 </r>
       <r>    1.7120    1.0000 </r>
       <r>    1.7581    1.0000 </r>
       <r>    2.1287    1.0000 </r>
       <r>    2.2535    1.0000 </r>
       <r>    2.2663    1.0000 </r>
       <r>    2.5435    1.0000 </r>
       <r>    3.2500    1.0000 </r>
       <r>    4.4472    1.0000 </r>
       <r>    4.4553    1.0000 </r>
       <r>    5.1101    1.0000 </r>
       <r>    5.1923    1.0000 </r>
       <r>    5.1983    1.0000 </r>
       <r>    5.2055    1.0000 </r>
       <r>    5.2914    1.0000 </r>
       <r>    5.3721    1.0000 </r>
       <r>    5.4924    0.0029 </r>
       <r>    5.5845    0.0000 </r>
       <r>    5.8636    0.0000 </r>
       <r>    5.9338    0.0000 </r>
       <r>    6.8234    0.0000 </r>
       <r>    6.8508    0.0000 </r>
       <r>    6.8607    0.0000 </r>
       <r>    7.0721    0.0000 </r>
       <r>    7.4256    0.0000 </r>
       <r>    7.7104    0.0000 </r>
       <r>    7.7126    0.0000 </r>
      </set>
      <set comment="kpoint 2">
       <r>  -57.7665    1.0000 </r>
       <r>  -57.5721    1.0000 </r>
       <r>  -57.4201    1.0000 </r>
       <r>  -57.2114    1.0000 </r>
       <r>  -32.5395    1.0000 </r>
       <r>  -31.4762    1.0000 </r>
       <r>  -31.1250    1.0000 </r>
       <r>  -31.1182    1.0000 </r>
       <r>  -30.9873    1.0000 </r>
       <r>  -30.9840    1.0000 </r>
       <r>  -30.8423    1.0000 </r>
       <r>  -30.8284    1.0000 </r>
       <r>  -30.6942    1.0000 </r>
       <r>  -30.6838    1.0000 </r>
       <r>  -30.6339    1.0000 </r>
       <r>  -29.3984    1.0000 </r>
       <r>   -7.7489    1.0000 </r>
       <r>   -6.9685    1.0000 </r>
       <r>   -4.0490    1.0000 </r>
       <r>   -4.0042    1.0000 </r>
       <r>   -2.2303    1.0000 </r>
       <r>   -2.1272    1.0000 </r>
       <r>   -0.8215    1.0000 </r>
       <r>   -0.6669    1.0000 </r>
       <r>    0.0283    1.0000 </r>
       <r>    1.0257    1.0000 </r>
       <r>    1.3123    1.0000 </r>
       <r>    1.3799    1.0000 </r>
       <r>    1.6581    1.0000 </r>
       <r>    1.7429    1.0000 </r>
       <r>    2.1507    1.0000 </r>
       <r>    2.2108    1.0000 </r>
       <r>    2.2292    1.0000 </r>
       <r>    2.7742    1.0000 </r>
       <r>    3.0050    1.0000 </r>
       <r>    4.2106    1.0000 </r>
       <r>    4.4265    1.0000 </r>
       <r>    4.6816    1.0000 </r>
       <r>    5.0897    1.0000 </r>
       <r>    5.1083    1.0000 </r>
       <r>    5.1868    1.0000 </r>
       <r>    5.2748    1.0000 </r>
       <r>    5.3975    1.0000 </r>
       <r>    5.5513    0.0000 </r>
       <r>    5.8485    0.0000 </r>
       <r>    5.9111    0.0000 </r>
       <r>    6.5312    0.0000 </r>
       <r>    6.5580    0.0000 </r>
       <r>    6.6213    0.0000 </r>
       <r>    7.0350    0.0000 </r>
       <r>    7.3576    0.0000 </r>
       <r>    7.5257    0.0000 </r>
       <r>    7.6912    0.0000 </r>
       <r>    7.8322    0.0000 </r>
      </set>
      <set comment="kpoint 3">
       <r>  -57.7394    1.0000 </r>
       <r>  -57.6389    1.0000 </r>
       <r>  -57.3503    1.0000 </r>
       <r>  -57.2415    1.0000 </r>
       <r>  -32.3934    1.0000 </r>
       <r>  -31.8465    1.0000 </r>
       <r>  -31.1049    1.0000 </r>
       <r>  -31.0984    1.0000 </r>
       <r>  -31.0319    1.0000 </r>
       <r>  -31.0266    1.0000 </r>
       <r>  -30.7955    1.0000 </r>
       <r>  -30.7836    1.0000 </r>
       <r>  -30.7165    1.0000 </r>
       <r>  -30.7058    1.0000 </r>
       <r>  -30.2277    1.0000 </r>
       <r>  -29.5815    1.0000 </r>
       <r>   -7.5775    1.0000 </r>
       <r>   -7.1202    1.0000 </r>
       <r>   -4.0861    1.0000 </r>
       <r>   -4.0081    1.0000 </r>
       <r>   -2.5697    1.0000 </r>
       <r>   -2.5456    1.0000 </r>
       <r>   -0.1425    1.0000 </r>
       <r>   -0.0391    1.0000 </r>
       <r>    0.5564    1.0000 </r>
       <r>    1.0573    1.0000 </r>
       <r>    1.2842    1.0000 </r>
       <r>    1.3461    1.0000 </r>
       <r>    1.5002    1.0000 </r>
       <r>    1.6185    1.0000 </r>
       <r>    1.8454    1.0000 </r>
       <r>    2.0647    1.0000 </r>
       <r>    2.2758    1.0000 </r>
       <r>    2.7524    1.0000 </r>
       <r>    3.0990    1.0000 </r>
       <r>    3.2955    1.0000 </r>
       <r>    4.4001    1.0000 </r>
       <r>    4.5340    1.0000 </r>
       <r>    4.8748    1.0000 </r>
       <r>    4.9484    1.0000 </r>
       <r>    5.2603    1.0000 </r>
       <r>    5.2826    1.0000 </r>
       <r>    5.7675    0.0000 </r>
       <r>    5.8444    0.0000 </r>
       <r>    5.9698    0.0000 </r>
       <r>    6.0172    0.0000 </r>
       <r>    6.0702    0.0000 </r>
       <r>    6.6282    0.0000 </r>
       <r>    7.0726    0.0000 </r>
       <r>    7.2002    0.0000 </r>
       <r>    7.3205    0.0000 </r>
       <r>    7.4615    0.0000 </r>
       <r>    7.6364    0.0000 </r>
       <r>    8.3718    0.0000 </r>
      </set>
      <set comment="kpoint 4">
       <r>  -57.6959    1.0000 </r>
       <r>  -57.6959    1.0000 </r>
       <r>  -57.2891    1.0000 </r>
       <r>  -57.2891    1.0000 </r>
       <r>  -32.1583    1.0000 </r>
       <r>  -32.1583    1.0000 </r>
       <r>  -31.0730    1.0000 </r>
       <r>  -31.0730    1.0000 </r>
       <r>  -31.0669    1.0000 </r>
       <r>  -31.0669    1.0000 </r>
       <r>  -30.7514    1.0000 </r>
       <r>  -30.7514    1.0000 </r>
       <r>  -30.7403    1.0000 </r>
       <r>  -30.7403    1.0000 </r>
       <r>  -29.8666    1.0000 </r>
       <r>  -29.8666    1.0000 </r>
       <r>   -7.3486    1.0000 </r>
       <r>   -7.3405    1.0000 </r>
       <r>   -4.0596    1.0000 </r>
       <r>   -4.0486    1.0000 </r>
       <r>   -2.7073    1.0000 </r>
       <r>   -2.6937    1.0000 </r>
       <r>    0.3129    1.0000 </r>
       <r>    0.3234    1.0000 </r>
       <r>    0.9397    1.0000 </r>
       <r>    0.9411    1.0000 </r>
       <r>    1.1766    1.0000 </r>
       <r>    1.1771    1.0000 </r>
       <r>    1.5410    1.0000 </r>
       <r>    1.5411    1.0000 </r>
       <r>    1.9613    1.0000 </r>
       <r>    1.9634    1.0000 </r>
       <r>    2.1824    1.0000 </r>
       <r>    2.1825    1.0000 </r>
       <r>    3.2139    1.0000 </r>
       <r>    3.2160    1.0000 </r>
       <r>    4.6020    1.0000 </r>
       <r>    4.6120    1.0000 </r>
       <r>    4.8486    1.0000 </r>
       <r>    4.8501    1.0000 </r>
       <r>    4.9629    1.0000 </r>
       <r>    4.9691    1.0000 </r>
       <r>    5.8639    0.0000 </r>
       <r>    5.8645    0.0000 </r>
       <r>    6.0134    0.0000 </r>
       <r>    6.0162    0.0000 </r>
       <r>    6.5062    0.0000 </r>
       <r>    6.5077    0.0000 </r>
       <r>    7.3098    0.0000 </r>
       <r>    7.3121    0.0000 </r>
       <r>    7.4690    0.0000 </r>
       <r>    7.4712    0.0000 </r>
       <r>    7.6206    0.0000 </r>
       <r>    7.7497    0.0000 </r>
      </set>
      <set comment="kpoint 5">
       <r>  -57.7394    1.0000 </r>
       <r>  -57.6388    1.0000 </r>
       <r>  -57.3503    1.0000 </r>
       <r>  -57.2415    1.0000 </r>
       <r>  -32.3934    1.0000 </r>
       <r>  -31.8465    1.0000 </r>
       <r>  -31.1050    1.0000 </r>
       <r>  -31.0977    1.0000 </r>
       <r>  -31.0319    1.0000 </r>
       <r>  -31.0274    1.0000 </r>
       <r>  -30.7955    1.0000 </r>
       <r>  -30.7839    1.0000 </r>
       <r>  -30.7165    1.0000 </r>
       <r>  -30.7055    1.0000 </r>
       <r>  -30.2277    1.0000 </r>
       <r>  -29.5815    1.0000 </r>
       <r>   -7.6795    1.0000 </r>
       <r>   -7.0123    1.0000 </r>
       <r>   -4.2235    1.0000 </r>
       <r>   -3.9451    1.0000 </r>
       <r>   -2.5717    1.0000 </r>
       <r>   -1.6414    1.0000 </r>
       <r>   -1.2831    1.0000 </r>
       <r>   -0.0787    1.0000 </r>
       <r>    0.1992    1.0000 </r>
       <r>    1.0993    1.0000 </r>
       <r>    1.3868    1.0000 </r>
       <r>    1.4560    1.0000 </r>
       <r>    1.5077    1.0000 </r>
       <r>    1.8630    1.0000 </r>
       <r>    1.9543    1.0000 </r>
       <r>    2.0864    1.0000 </r>
       <r>    2.3275    1.0000 </r>
       <r>    2.8983    1.0000 </r>
       <r>    2.9545    1.0000 </r>
       <r>    3.1044    1.0000 </r>
       <r>    4.4595    1.0000 </r>
       <r>    4.6796    1.0000 </r>
       <r>    4.8428    1.0000 </r>
       <r>    5.0497    1.0000 </r>
       <r>    5.2036    1.0000 </r>
       <r>    5.4207    0.9898 </r>
       <r>    5.5153    0.0000 </r>
       <r>    5.8298    0.0000 </r>
       <r>    5.8377    0.0000 </r>
       <r>    6.0961    0.0000 </r>
       <r>    6.1999    0.0000 </r>
       <r>    7.0286    0.0000 </r>
       <r>    7.1464    0.0000 </r>
       <r>    7.2591    0.0000 </r>
       <r>    7.4183    0.0000 </r>
       <r>    7.4895    0.0000 </r>
       <r>    7.8923    0.0000 </r>
       <r>    8.2199    0.0000 </r>
      </set>
      <set comment="kpoint 6">
       <r>  -57.6959    1.0000 </r>
       <r>  -57.6959    1.0000 </r>
       <r>  -57.2891    1.0000 </r>
       <r>  -57.2891    1.0000 </r>
       <r>  -32.1583    1.0000 </r>
       <r>  -32.1582    1.0000 </r>
       <r>  -31.0731    1.0000 </r>
       <r>  -31.0729    1.0000 </r>
       <r>  -31.0681    1.0000 </r>
       <r>  -31.0656    1.0000 </r>
       <r>  -30.7515    1.0000 </r>
       <r>  -30.7514    1.0000 </r>
       <r>  -30.7409    1.0000 </r>
       <r>  -30.7398    1.0000 </r>
       <r>  -29.8666    1.0000 </r>
       <r>  -29.8666    1.0000 </r>
       <r>   -7.5136    1.0000 </r>
       <r>   -7.1372    1.0000 </r>
       <r>   -4.3449    1.0000 </r>
       <r>   -4.0623    1.0000 </r>
       <r>   -2.6340    1.0000 </r>
       <r>   -2.0041    1.0000 </r>
       <r>   -0.7055    1.0000 </r>
       <r>    0.3417    1.0000 </r>
       <r>    0.6760    1.0000 </r>
       <r>    0.9319    1.0000 </r>
       <r>    1.1661    1.0000 </r>
       <r>    1.3915    1.0000 </r>
       <r>    1.4495    1.0000 </r>
       <r>    1.8929    1.0000 </r>
       <r>    2.1464    1.0000 </r>
       <r>    2.1714    1.0000 </r>
       <r>    2.1933    1.0000 </r>
       <r>    2.4720    1.0000 </r>
       <r>    2.9055    1.0000 </r>
       <r>    3.2730    1.0000 </r>
       <r>    4.2735    1.0000 </r>
       <r>    4.4710    1.0000 </r>
       <r>    4.7326    1.0000 </r>
       <r>    4.9915    1.0000 </r>
       <r>    5.1285    1.0000 </r>
       <r>    5.3699    1.0000 </r>
       <r>    5.7063    0.0000 </r>
       <r>    5.7536    0.0000 </r>
       <r>    5.8703    0.0000 </r>
       <r>    6.3309    0.0000 </r>
       <r>    6.5455    0.0000 </r>
       <r>    6.8213    0.0000 </r>
       <r>    7.1278    0.0000 </r>
       <r>    7.1961    0.0000 </r>
       <r>    7.3782    0.0000 </r>
       <r>    7.6095    0.0000 </r>
       <r>    7.6560    0.0000 </r>
       <r>    7.9357    0.0000 </r>
      </set>
      <set comment="kpoint 7">
       <r>  -57.7394    1.0000 </r>
       <r>  -57.6389    1.0000 </r>
       <r>  -57.3504    1.0000 </r>
       <r>  -57.2415    1.0000 </r>
       <r>  -32.3933    1.0000 </r>
       <r>  -31.8466    1.0000 </r>
       <r>  -31.1048    1.0000 </r>
       <r>  -31.0998    1.0000 </r>
       <r>  -31.0320    1.0000 </r>
       <r>  -31.0252    1.0000 </r>
       <r>  -30.7955    1.0000 </r>
       <r>  -30.7829    1.0000 </r>
       <r>  -30.7164    1.0000 </r>
       <r>  -30.7065    1.0000 </r>
       <r>  -30.2278    1.0000 </r>
       <r>  -29.5815    1.0000 </r>
       <r>   -7.3347    1.0000 </r>
       <r>   -7.3018    1.0000 </r>
       <r>   -4.2927    1.0000 </r>
       <r>   -4.2318    1.0000 </r>
       <r>   -2.4213    1.0000 </r>
       <r>   -2.4072    1.0000 </r>
       <r>   -0.0075    1.0000 </r>
       <r>    0.0200    1.0000 </r>
       <r>    0.9425    1.0000 </r>
       <r>    0.9569    1.0000 </r>
       <r>    1.2207    1.0000 </r>
       <r>    1.2458    1.0000 </r>
       <r>    1.4731    1.0000 </r>
       <r>    1.6202    1.0000 </r>
       <r>    1.6847    1.0000 </r>
       <r>    1.9444    1.0000 </r>
       <r>    2.4075    1.0000 </r>
       <r>    3.0943    1.0000 </r>
       <r>    3.1638    1.0000 </r>
       <r>    3.4759    1.0000 </r>
       <r>    4.1264    1.0000 </r>
       <r>    4.5929    1.0000 </r>
       <r>    4.7817    1.0000 </r>
       <r>    4.8655    1.0000 </r>
       <r>    4.9927    1.0000 </r>
       <r>    5.3536    1.0000 </r>
       <r>    5.6286    0.0000 </r>
       <r>    5.8196    0.0000 </r>
       <r>    5.9828    0.0000 </r>
       <r>    6.0294    0.0000 </r>
       <r>    6.3163    0.0000 </r>
       <r>    6.5234    0.0000 </r>
       <r>    6.8428    0.0000 </r>
       <r>    7.1359    0.0000 </r>
       <r>    7.3109    0.0000 </r>
       <r>    7.5617    0.0000 </r>
       <r>    7.7119    0.0000 </r>
       <r>    8.2049    0.0000 </r>
      </set>
      <set comment="kpoint 8">
       <r>  -57.7665    1.0000 </r>
       <r>  -57.5721    1.0000 </r>
       <r>  -57.4201    1.0000 </r>
       <r>  -57.2113    1.0000 </r>
       <r>  -32.5394    1.0000 </r>
       <r>  -31.4762    1.0000 </r>
       <r>  -31.1249    1.0000 </r>
       <r>  -31.1195    1.0000 </r>
       <r>  -30.9874    1.0000 </r>
       <r>  -30.9827    1.0000 </r>
       <r>  -30.8423    1.0000 </r>
       <r>  -30.8279    1.0000 </r>
       <r>  -30.6942    1.0000 </r>
       <r>  -30.6843    1.0000 </r>
       <r>  -30.6340    1.0000 </r>
       <r>  -29.3984    1.0000 </r>
       <r>   -7.5464    1.0000 </r>
       <r>   -7.1138    1.0000 </r>
       <r>   -4.2858    1.0000 </r>
       <r>   -4.0985    1.0000 </r>
       <r>   -2.6500    1.0000 </r>
       <r>   -2.0254    1.0000 </r>
       <r>   -0.7298    1.0000 </r>
       <r>    0.3295    1.0000 </r>
       <r>    0.7281    1.0000 </r>
       <r>    0.9897    1.0000 </r>
       <r>    1.0782    1.0000 </r>
       <r>    1.2009    1.0000 </r>
       <r>    1.4175    1.0000 </r>
       <r>    1.4834    1.0000 </r>
       <r>    1.7472    1.0000 </r>
       <r>    2.3523    1.0000 </r>
       <r>    2.4914    1.0000 </r>
       <r>    2.7934    1.0000 </r>
       <r>    3.5512    1.0000 </r>
       <r>    4.1066    1.0000 </r>
       <r>    4.2662    1.0000 </r>
       <r>    4.6704    1.0000 </r>
       <r>    4.7920    1.0000 </r>
       <r>    5.0457    1.0000 </r>
       <r>    5.1170    1.0000 </r>
       <r>    5.3344    1.0000 </r>
       <r>    5.3997    0.9999 </r>
       <r>    5.5922    0.0000 </r>
       <r>    5.7569    0.0000 </r>
       <r>    5.9377    0.0000 </r>
       <r>    6.1471    0.0000 </r>
       <r>    6.4650    0.0000 </r>
       <r>    6.5113    0.0000 </r>
       <r>    6.7959    0.0000 </r>
       <r>    7.2017    0.0000 </r>
       <r>    7.3485    0.0000 </r>
       <r>    7.9373    0.0000 </r>
       <r>    8.1011    0.0000 </r>
      </set>
      <set comment="kpoint 9">
       <r>  -57.7757    1.0000 </r>
       <r>  -57.5133    1.0000 </r>
       <r>  -57.4801    1.0000 </r>
       <r>  -57.2010    1.0000 </r>
       <r>  -32.5890    1.0000 </r>
       <r>  -31.1318    1.0000 </r>
       <r>  -31.1258    1.0000 </r>
       <r>  -31.1185    1.0000 </r>
       <r>  -31.0047    1.0000 </r>
       <r>  -30.9608    1.0000 </r>
       <r>  -30.9593    1.0000 </r>
       <r>  -30.8697    1.0000 </r>
       <r>  -30.8529    1.0000 </r>
       <r>  -30.6866    1.0000 </r>
       <r>  -30.6765    1.0000 </r>
       <r>  -29.3353    1.0000 </r>
       <r>   -7.7006    1.0000 </r>
       <r>   -6.9997    1.0000 </r>
       <r>   -4.1873    1.0000 </r>
       <r>   -3.9548    1.0000 </r>
       <r>   -2.6032    1.0000 </r>
       <r>   -1.6650    1.0000 </r>
       <r>   -1.2791    1.0000 </r>
       <r>   -0.0973    1.0000 </r>
       <r>    0.2448    1.0000 </r>
       <r>    0.8955    1.0000 </r>
       <r>    1.2127    1.0000 </r>
       <r>    1.3946    1.0000 </r>
       <r>    1.5044    1.0000 </r>
       <r>    1.7238    1.0000 </r>
       <r>    1.9130    1.0000 </r>
       <r>    2.3214    1.0000 </r>
       <r>    2.3901    1.0000 </r>
       <r>    2.9140    1.0000 </r>
       <r>    3.0761    1.0000 </r>
       <r>    4.5993    1.0000 </r>
       <r>    4.6632    1.0000 </r>
       <r>    4.8973    1.0000 </r>
       <r>    4.9509    1.0000 </r>
       <r>    5.1604    1.0000 </r>
       <r>    5.2351    1.0000 </r>
       <r>    5.3294    1.0000 </r>
       <r>    5.3637    1.0000 </r>
       <r>    5.4183    0.9936 </r>
       <r>    5.4944    0.0019 </r>
       <r>    5.7517    0.0000 </r>
       <r>    5.9716    0.0000 </r>
       <r>    6.0355    0.0000 </r>
       <r>    6.8118    0.0000 </r>
       <r>    7.1209    0.0000 </r>
       <r>    7.1557    0.0000 </r>
       <r>    7.4702    0.0000 </r>
       <r>    7.7688    0.0000 </r>
       <r>    7.9400    0.0000 </r>
      </set>
      <set comment="kpoint 10">
       <r>  -57.7393    1.0000 </r>
       <r>  -57.6389    1.0000 </r>
       <r>  -57.3504    1.0000 </r>
       <r>  -57.2415    1.0000 </r>
       <r>  -32.3933    1.0000 </r>
       <r>  -31.8466    1.0000 </r>
       <r>  -31.1048    1.0000 </r>
       <r>  -31.1005    1.0000 </r>
       <r>  -31.0321    1.0000 </r>
       <r>  -31.0245    1.0000 </r>
       <r>  -30.7956    1.0000 </r>
       <r>  -30.7826    1.0000 </r>
       <r>  -30.7164    1.0000 </r>
       <r>  -30.7068    1.0000 </r>
       <r>  -30.2278    1.0000 </r>
       <r>  -29.5815    1.0000 </r>
       <r>   -7.3814    1.0000 </r>
       <r>   -7.1815    1.0000 </r>
       <r>   -4.6040    1.0000 </r>
       <r>   -4.3221    1.0000 </r>
       <r>   -2.3229    1.0000 </r>
       <r>   -1.3841    1.0000 </r>
       <r>   -1.1840    1.0000 </r>
       <r>    0.1051    1.0000 </r>
       <r>    0.8522    1.0000 </r>
       <r>    0.9356    1.0000 </r>
       <r>    1.0236    1.0000 </r>
       <r>    1.3934    1.0000 </r>
       <r>    1.4718    1.0000 </r>
       <r>    1.6168    1.0000 </r>
       <r>    1.9059    1.0000 </r>
       <r>    2.2272    1.0000 </r>
       <r>    2.7297    1.0000 </r>
       <r>    3.1224    1.0000 </r>
       <r>    3.1889    1.0000 </r>
       <r>    3.5147    1.0000 </r>
       <r>    4.1260    1.0000 </r>
       <r>    4.1841    1.0000 </r>
       <r>    4.6511    1.0000 </r>
       <r>    5.0525    1.0000 </r>
       <r>    5.1846    1.0000 </r>
       <r>    5.3846    1.0000 </r>
       <r>    5.4971    0.0010 </r>
       <r>    5.6684    0.0000 </r>
       <r>    5.8486    0.0000 </r>
       <r>    6.4373    0.0000 </r>
       <r>    6.4576    0.0000 </r>
       <r>    6.5298    0.0000 </r>
       <r>    6.9047    0.0000 </r>
       <r>    7.0948    0.0000 </r>
       <r>    7.2080    0.0000 </r>
       <r>    7.3110    0.0000 </r>
       <r>    7.5448    0.0000 </r>
       <r>    7.9840    0.0000 </r>
      </set>
      <set comment="kpoint 11">
       <r>  -57.7665    1.0000 </r>
       <r>  -57.5721    1.0000 </r>
       <r>  -57.4201    1.0000 </r>
       <r>  -57.2113    1.0000 </r>
       <r>  -32.5393    1.0000 </r>
       <r>  -31.4763    1.0000 </r>
       <r>  -31.1248    1.0000 </r>
       <r>  -31.1208    1.0000 </r>
       <r>  -30.9876    1.0000 </r>
       <r>  -30.9814    1.0000 </r>
       <r>  -30.8423    1.0000 </r>
       <r>  -30.8274    1.0000 </r>
       <r>  -30.6941    1.0000 </r>
       <r>  -30.6849    1.0000 </r>
       <r>  -30.6340    1.0000 </r>
       <r>  -29.3984    1.0000 </r>
       <r>   -7.2867    1.0000 </r>
       <r>   -7.2374    1.0000 </r>
       <r>   -4.6376    1.0000 </r>
       <r>   -4.5073    1.0000 </r>
       <r>   -1.8782    1.0000 </r>
       <r>   -1.8442    1.0000 </r>
       <r>   -0.5519    1.0000 </r>
       <r>   -0.5119    1.0000 </r>
       <r>    0.8181    1.0000 </r>
       <r>    0.9295    1.0000 </r>
       <r>    1.0326    1.0000 </r>
       <r>    1.3474    1.0000 </r>
       <r>    1.4276    1.0000 </r>
       <r>    1.7402    1.0000 </r>
       <r>    1.8812    1.0000 </r>
       <r>    2.1415    1.0000 </r>
       <r>    2.6254    1.0000 </r>
       <r>    3.4814    1.0000 </r>
       <r>    3.6852    1.0000 </r>
       <r>    4.1771    1.0000 </r>
       <r>    4.2022    1.0000 </r>
       <r>    4.5565    1.0000 </r>
       <r>    4.7919    1.0000 </r>
       <r>    4.9038    1.0000 </r>
       <r>    5.0437    1.0000 </r>
       <r>    5.3149    1.0000 </r>
       <r>    5.4783    0.0394 </r>
       <r>    5.5769    0.0000 </r>
       <r>    5.6416    0.0000 </r>
       <r>    5.8614    0.0000 </r>
       <r>    6.0360    0.0000 </r>
       <r>    6.2667    0.0000 </r>
       <r>    6.4827    0.0000 </r>
       <r>    6.5614    0.0000 </r>
       <r>    7.0746    0.0000 </r>
       <r>    7.2866    0.0000 </r>
       <r>    7.9955    0.0000 </r>
       <r>    8.1254    0.0000 </r>
      </set>
      <set comment="kpoint 12">
       <r>  -57.7757    1.0000 </r>
       <r>  -57.5133    1.0000 </r>
       <r>  -57.4801    1.0000 </r>
       <r>  -57.2010    1.0000 </r>
       <r>  -32.5889    1.0000 </r>
       <r>  -31.1317    1.0000 </r>
       <r>  -31.1272    1.0000 </r>
       <r>  -31.1186    1.0000 </r>
       <r>  -31.0048    1.0000 </r>
       <r>  -30.9609    1.0000 </r>
       <r>  -30.9576    1.0000 </r>
       <r>  -30.8697    1.0000 </r>
       <r>  -30.8525    1.0000 </r>
       <r>  -30.6865    1.0000 </r>
       <r>  -30.6771    1.0000 </r>
       <r>  -29.3353    1.0000 </r>
       <r>   -7.4317    1.0000 </r>
       <r>   -7.1427    1.0000 </r>
       <r>   -4.4910    1.0000 </r>
       <r>   -4.4194    1.0000 </r>
       <r>   -2.3124    1.0000 </r>
       <r>   -1.4128    1.0000 </r>
       <r>   -1.2396    1.0000 </r>
       <r>    0.1240    1.0000 </r>
       <r>    0.8671    1.0000 </r>
       <r>    0.8923    1.0000 </r>
       <r>    1.0814    1.0000 </r>
       <r>    1.0966    1.0000 </r>
       <r>    1.3655    1.0000 </r>
       <r>    1.7223    1.0000 </r>
       <r>    1.7601    1.0000 </r>
       <r>    2.4268    1.0000 </r>
       <r>    2.4588    1.0000 </r>
       <r>    3.1519    1.0000 </r>
       <r>    4.0168    1.0000 </r>
       <r>    4.1922    1.0000 </r>
       <r>    4.4677    1.0000 </r>
       <r>    4.7747    1.0000 </r>
       <r>    4.9562    1.0000 </r>
       <r>    5.1584    1.0000 </r>
       <r>    5.2857    1.0000 </r>
       <r>    5.3058    1.0000 </r>
       <r>    5.3497    1.0000 </r>
       <r>    5.3878    1.0000 </r>
       <r>    5.4315    0.9397 </r>
       <r>    5.5114    0.0000 </r>
       <r>    5.6827    0.0000 </r>
       <r>    6.1299    0.0000 </r>
       <r>    6.2748    0.0000 </r>
       <r>    6.9531    0.0000 </r>
       <r>    7.1703    0.0000 </r>
       <r>    7.2411    0.0000 </r>
       <r>    7.5713    0.0000 </r>
       <r>    8.4175    0.0000 </r>
      </set>
      <set comment="kpoint 13">
       <r>  -57.7757    1.0000 </r>
       <r>  -57.5133    1.0000 </r>
       <r>  -57.4801    1.0000 </r>
       <r>  -57.2010    1.0000 </r>
       <r>  -32.5889    1.0000 </r>
       <r>  -31.1316    1.0000 </r>
       <r>  -31.1279    1.0000 </r>
       <r>  -31.1186    1.0000 </r>
       <r>  -31.0048    1.0000 </r>
       <r>  -30.9610    1.0000 </r>
       <r>  -30.9567    1.0000 </r>
       <r>  -30.8697    1.0000 </r>
       <r>  -30.8523    1.0000 </r>
       <r>  -30.6865    1.0000 </r>
       <r>  -30.6774    1.0000 </r>
       <r>  -29.3352    1.0000 </r>
       <r>   -7.2581    1.0000 </r>
       <r>   -7.2057    1.0000 </r>
       <r>   -4.7828    1.0000 </r>
       <r>   -4.6219    1.0000 </r>
       <r>   -1.4695    1.0000 </r>
       <r>   -1.4127    1.0000 </r>
       <r>   -0.9452    1.0000 </r>
       <r>   -0.9280    1.0000 </r>
       <r>    0.7452    1.0000 </r>
       <r>    0.8860    1.0000 </r>
       <r>    0.9388    1.0000 </r>
       <r>    1.3932    1.0000 </r>
       <r>    1.5790    1.0000 </r>
       <r>    1.7784    1.0000 </r>
       <r>    1.9002    1.0000 </r>
       <r>    2.2221    1.0000 </r>
       <r>    2.5513    1.0000 </r>
       <r>    3.7502    1.0000 </r>
       <r>    3.9006    1.0000 </r>
       <r>    4.6289    1.0000 </r>
       <r>    4.6912    1.0000 </r>
       <r>    4.7379    1.0000 </r>
       <r>    4.8703    1.0000 </r>
       <r>    4.9302    1.0000 </r>
       <r>    5.1978    1.0000 </r>
       <r>    5.2666    1.0000 </r>
       <r>    5.2844    1.0000 </r>
       <r>    5.3440    1.0000 </r>
       <r>    5.4146    0.9970 </r>
       <r>    5.4933    0.0024 </r>
       <r>    5.6615    0.0000 </r>
       <r>    6.1148    0.0000 </r>
       <r>    6.2160    0.0000 </r>
       <r>    6.3869    0.0000 </r>
       <r>    6.8508    0.0000 </r>
       <r>    6.9547    0.0000 </r>
       <r>    8.3739    0.0000 </r>
       <r>    8.6266    0.0000 </r>
      </set>
      <set comment="kpoint 14">
       <r>  -57.7757    1.0000 </r>
       <r>  -57.5133    1.0000 </r>
       <r>  -57.4801    1.0000 </r>
       <r>  -57.2010    1.0000 </r>
       <r>  -32.5890    1.0000 </r>
       <r>  -31.1324    1.0000 </r>
       <r>  -31.1250    1.0000 </r>
       <r>  -31.1185    1.0000 </r>
       <r>  -31.0047    1.0000 </r>
       <r>  -30.9602    1.0000 </r>
       <r>  -30.9601    1.0000 </r>
       <r>  -30.8695    1.0000 </r>
       <r>  -30.8531    1.0000 </r>
       <r>  -30.6868    1.0000 </r>
       <r>  -30.6762    1.0000 </r>
       <r>  -29.3353    1.0000 </r>
       <r>   -7.7293    1.0000 </r>
       <r>   -6.9795    1.0000 </r>
       <r>   -4.1583    1.0000 </r>
       <r>   -3.9396    1.0000 </r>
       <r>   -2.5066    1.0000 </r>
       <r>   -1.7204    1.0000 </r>
       <r>   -1.2671    1.0000 </r>
       <r>   -0.2634    1.0000 </r>
       <r>    0.1391    1.0000 </r>
       <r>    0.8954    1.0000 </r>
       <r>    1.2719    1.0000 </r>
       <r>    1.3606    1.0000 </r>
       <r>    1.5932    1.0000 </r>
       <r>    1.7258    1.0000 </r>
       <r>    2.0601    1.0000 </r>
       <r>    2.2894    1.0000 </r>
       <r>    2.2940    1.0000 </r>
       <r>    2.9481    1.0000 </r>
       <r>    2.9866    1.0000 </r>
       <r>    4.5638    1.0000 </r>
       <r>    4.6164    1.0000 </r>
       <r>    5.0020    1.0000 </r>
       <r>    5.0054    1.0000 </r>
       <r>    5.1768    1.0000 </r>
       <r>    5.2293    1.0000 </r>
       <r>    5.3455    1.0000 </r>
       <r>    5.3676    1.0000 </r>
       <r>    5.3810    1.0000 </r>
       <r>    5.4895    0.0054 </r>
       <r>    5.7812    0.0000 </r>
       <r>    5.9992    0.0000 </r>
       <r>    6.0785    0.0000 </r>
       <r>    6.9033    0.0000 </r>
       <r>    7.1266    0.0000 </r>
       <r>    7.1652    0.0000 </r>
       <r>    7.5095    0.0000 </r>
       <r>    7.5360    0.0000 </r>
       <r>    7.8469    0.0000 </r>
      </set>
      <set comment="kpoint 15">
       <r>  -57.7665    1.0000 </r>
       <r>  -57.5721    1.0000 </r>
       <r>  -57.4201    1.0000 </r>
       <r>  -57.2113    1.0000 </r>
       <r>  -32.5394    1.0000 </r>
       <r>  -31.4762    1.0000 </r>
       <r>  -31.1260    1.0000 </r>
       <r>  -31.1182    1.0000 </r>
       <r>  -30.9863    1.0000 </r>
       <r>  -30.9841    1.0000 </r>
       <r>  -30.8418    1.0000 </r>
       <r>  -30.8284    1.0000 </r>
       <r>  -30.6947    1.0000 </r>
       <r>  -30.6837    1.0000 </r>
       <r>  -30.6340    1.0000 </r>
       <r>  -29.3984    1.0000 </r>
       <r>   -7.5849    1.0000 </r>
       <r>   -7.0895    1.0000 </r>
       <r>   -4.2571    1.0000 </r>
       <r>   -4.0273    1.0000 </r>
       <r>   -2.6650    1.0000 </r>
       <r>   -2.0648    1.0000 </r>
       <r>   -0.7523    1.0000 </r>
       <r>    0.2656    1.0000 </r>
       <r>    0.6107    1.0000 </r>
       <r>    1.0029    1.0000 </r>
       <r>    1.1042    1.0000 </r>
       <r>    1.2633    1.0000 </r>
       <r>    1.4251    1.0000 </r>
       <r>    1.5445    1.0000 </r>
       <r>    1.7454    1.0000 </r>
       <r>    2.3240    1.0000 </r>
       <r>    2.5380    1.0000 </r>
       <r>    2.7089    1.0000 </r>
       <r>    3.4369    1.0000 </r>
       <r>    4.1505    1.0000 </r>
       <r>    4.2938    1.0000 </r>
       <r>    4.6451    1.0000 </r>
       <r>    4.8683    1.0000 </r>
       <r>    5.0726    1.0000 </r>
       <r>    5.1418    1.0000 </r>
       <r>    5.3066    1.0000 </r>
       <r>    5.4018    0.9999 </r>
       <r>    5.5790    0.0000 </r>
       <r>    5.7762    0.0000 </r>
       <r>    5.9280    0.0000 </r>
       <r>    6.1351    0.0000 </r>
       <r>    6.5264    0.0000 </r>
       <r>    6.5891    0.0000 </r>
       <r>    6.7897    0.0000 </r>
       <r>    7.2344    0.0000 </r>
       <r>    7.3189    0.0000 </r>
       <r>    7.8303    0.0000 </r>
       <r>    8.1280    0.0000 </r>
      </set>
      <set comment="kpoint 16">
       <r>  -57.7394    1.0000 </r>
       <r>  -57.6389    1.0000 </r>
       <r>  -57.3504    1.0000 </r>
       <r>  -57.2415    1.0000 </r>
       <r>  -32.3933    1.0000 </r>
       <r>  -31.8466    1.0000 </r>
       <r>  -31.1061    1.0000 </r>
       <r>  -31.0983    1.0000 </r>
       <r>  -31.0307    1.0000 </r>
       <r>  -31.0267    1.0000 </r>
       <r>  -30.7949    1.0000 </r>
       <r>  -30.7836    1.0000 </r>
       <r>  -30.7171    1.0000 </r>
       <r>  -30.7058    1.0000 </r>
       <r>  -30.2278    1.0000 </r>
       <r>  -29.5815    1.0000 </r>
       <r>   -7.3721    1.0000 </r>
       <r>   -7.2787    1.0000 </r>
       <r>   -4.2191    1.0000 </r>
       <r>   -4.2087    1.0000 </r>
       <r>   -2.5075    1.0000 </r>
       <r>   -2.4540    1.0000 </r>
       <r>   -0.0364    1.0000 </r>
       <r>    0.1766    1.0000 </r>
       <r>    0.9566    1.0000 </r>
       <r>    0.9653    1.0000 </r>
       <r>    1.1694    1.0000 </r>
       <r>    1.2714    1.0000 </r>
       <r>    1.4699    1.0000 </r>
       <r>    1.5445    1.0000 </r>
       <r>    1.6990    1.0000 </r>
       <r>    1.9431    1.0000 </r>
       <r>    2.3439    1.0000 </r>
       <r>    3.0949    1.0000 </r>
       <r>    3.1015    1.0000 </r>
       <r>    3.5064    1.0000 </r>
       <r>    4.1241    1.0000 </r>
       <r>    4.6631    1.0000 </r>
       <r>    4.7572    1.0000 </r>
       <r>    4.8917    1.0000 </r>
       <r>    4.9932    1.0000 </r>
       <r>    5.3218    1.0000 </r>
       <r>    5.6678    0.0000 </r>
       <r>    5.8298    0.0000 </r>
       <r>    5.9571    0.0000 </r>
       <r>    6.0577    0.0000 </r>
       <r>    6.2649    0.0000 </r>
       <r>    6.5359    0.0000 </r>
       <r>    6.8322    0.0000 </r>
       <r>    7.1342    0.0000 </r>
       <r>    7.3279    0.0000 </r>
       <r>    7.6298    0.0000 </r>
       <r>    7.7032    0.0000 </r>
       <r>    8.2015    0.0000 </r>
      </set>
      <set comment="kpoint 17">
       <r>  -57.6959    1.0000 </r>
       <r>  -57.6959    1.0000 </r>
       <r>  -57.2891    1.0000 </r>
       <r>  -57.2891    1.0000 </r>
       <r>  -32.1583    1.0000 </r>
       <r>  -32.1582    1.0000 </r>
       <r>  -31.0741    1.0000 </r>
       <r>  -31.0719    1.0000 </r>
       <r>  -31.0670    1.0000 </r>
       <r>  -31.0668    1.0000 </r>
       <r>  -30.7520    1.0000 </r>
       <r>  -30.7509    1.0000 </r>
       <r>  -30.7404    1.0000 </r>
       <r>  -30.7403    1.0000 </r>
       <r>  -29.8666    1.0000 </r>
       <r>  -29.8666    1.0000 </r>
       <r>   -7.4978    1.0000 </r>
       <r>   -7.1607    1.0000 </r>
       <r>   -4.2890    1.0000 </r>
       <r>   -4.0695    1.0000 </r>
       <r>   -2.6591    1.0000 </r>
       <r>   -2.1496    1.0000 </r>
       <r>   -0.5017    1.0000 </r>
       <r>    0.3270    1.0000 </r>
       <r>    0.7161    1.0000 </r>
       <r>    0.9436    1.0000 </r>
       <r>    1.1635    1.0000 </r>
       <r>    1.3803    1.0000 </r>
       <r>    1.4283    1.0000 </r>
       <r>    1.8876    1.0000 </r>
       <r>    2.1100    1.0000 </r>
       <r>    2.1530    1.0000 </r>
       <r>    2.1848    1.0000 </r>
       <r>    2.3804    1.0000 </r>
       <r>    2.9536    1.0000 </r>
       <r>    3.2770    1.0000 </r>
       <r>    4.3152    1.0000 </r>
       <r>    4.5000    1.0000 </r>
       <r>    4.7369    1.0000 </r>
       <r>    4.9893    1.0000 </r>
       <r>    5.0945    1.0000 </r>
       <r>    5.3057    1.0000 </r>
       <r>    5.7435    0.0000 </r>
       <r>    5.7904    0.0000 </r>
       <r>    5.8787    0.0000 </r>
       <r>    6.3055    0.0000 </r>
       <r>    6.4736    0.0000 </r>
       <r>    6.7882    0.0000 </r>
       <r>    7.1369    0.0000 </r>
       <r>    7.2189    0.0000 </r>
       <r>    7.3751    0.0000 </r>
       <r>    7.5930    0.0000 </r>
       <r>    7.6695    0.0000 </r>
       <r>    8.0315    0.0000 </r>
      </set>
      <set comment="kpoint 18">
       <r>  -57.7394    1.0000 </r>
       <r>  -57.6388    1.0000 </r>
       <r>  -57.3503    1.0000 </r>
       <r>  -57.2415    1.0000 </r>
       <r>  -32.3934    1.0000 </r>
       <r>  -31.8465    1.0000 </r>
       <r>  -31.1042    1.0000 </r>
       <r>  -31.0984    1.0000 </r>
       <r>  -31.0326    1.0000 </r>
       <r>  -31.0266    1.0000 </r>
       <r>  -30.7958    1.0000 </r>
       <r>  -30.7835    1.0000 </r>
       <r>  -30.7162    1.0000 </r>
       <r>  -30.7059    1.0000 </r>
       <r>  -30.2277    1.0000 </r>
       <r>  -29.5815    1.0000 </r>
       <r>   -7.6770    1.0000 </r>
       <r>   -7.0157    1.0000 </r>
       <r>   -4.2053    1.0000 </r>
       <r>   -3.9589    1.0000 </r>
       <r>   -2.5855    1.0000 </r>
       <r>   -1.7072    1.0000 </r>
       <r>   -1.1906    1.0000 </r>
       <r>   -0.0880    1.0000 </r>
       <r>    0.2082    1.0000 </r>
       <r>    1.1024    1.0000 </r>
       <r>    1.3858    1.0000 </r>
       <r>    1.4439    1.0000 </r>
       <r>    1.5078    1.0000 </r>
       <r>    1.8551    1.0000 </r>
       <r>    1.9544    1.0000 </r>
       <r>    2.0821    1.0000 </r>
       <r>    2.3393    1.0000 </r>
       <r>    2.8848    1.0000 </r>
       <r>    2.9613    1.0000 </r>
       <r>    3.1043    1.0000 </r>
       <r>    4.4672    1.0000 </r>
       <r>    4.6743    1.0000 </r>
       <r>    4.8395    1.0000 </r>
       <r>    5.0661    1.0000 </r>
       <r>    5.1887    1.0000 </r>
       <r>    5.4102    0.9989 </r>
       <r>    5.5290    0.0000 </r>
       <r>    5.8290    0.0000 </r>
       <r>    5.8439    0.0000 </r>
       <r>    6.0881    0.0000 </r>
       <r>    6.2108    0.0000 </r>
       <r>    7.0153    0.0000 </r>
       <r>    7.0659    0.0000 </r>
       <r>    7.2976    0.0000 </r>
       <r>    7.4046    0.0000 </r>
       <r>    7.4976    0.0000 </r>
       <r>    7.8219    0.0000 </r>
       <r>    8.2586    0.0000 </r>
      </set>
      <set comment="kpoint 19">
       <r>  -57.7665    1.0000 </r>
       <r>  -57.5721    1.0000 </r>
       <r>  -57.4201    1.0000 </r>
       <r>  -57.2114    1.0000 </r>
       <r>  -32.5395    1.0000 </r>
       <r>  -31.4762    1.0000 </r>
       <r>  -31.1249    1.0000 </r>
[...]
       <r>   -4.2125    1.0000 </r>
       <r>   -3.9694    1.0000 </r>
       <r>   -2.5894    1.0000 </r>
       <r>   -2.0736    1.0000 </r>
       <r>   -0.7374    1.0000 </r>
       <r>    0.0130    1.0000 </r>
       <r>    0.3167    1.0000 </r>
       <r>    0.9450    1.0000 </r>
       <r>    1.3077    1.0000 </r>
       <r>    1.3813    1.0000 </r>
       <r>    1.7129    1.0000 </r>
       <r>    1.7699    1.0000 </r>
       <r>    2.1650    1.0000 </r>
       <r>    2.1792    1.0000 </r>
       <r>    2.2257    1.0000 </r>
       <r>    2.4752    1.0000 </r>
       <r>    2.8583    1.0000 </r>
       <r>    3.0781    1.0000 </r>
       <r>    4.5000    1.0000 </r>
       <r>    4.6457    1.0000 </r>
       <r>    4.6527    1.0000 </r>
       <r>    5.0840    1.0000 </r>
       <r>    5.2035    1.0000 </r>
       <r>    5.4254    0.9766 </r>
       <r>    5.7795    0.0000 </r>
       <r>    5.8202    0.0000 </r>
       <r>    5.8965    0.0000 </r>
       <r>    6.2218    0.0000 </r>
       <r>    6.4511    0.0000 </r>
       <r>    6.8805    0.0000 </r>
       <r>    7.0593    0.0000 </r>
       <r>    7.2668    0.0000 </r>
       <r>    7.4401    0.0000 </r>
       <r>    7.6514    0.0000 </r>
       <r>    7.8492    0.0000 </r>
       <r>    8.0878    0.0000 </r>
      </set>
      <set comment="kpoint 76">
       <r>  -57.7394    1.0000 </r>
       <r>  -57.6389    1.0000 </r>
       <r>  -57.3503    1.0000 </r>
       <r>  -57.2415    1.0000 </r>
       <r>  -32.3934    1.0000 </r>
       <r>  -31.8466    1.0000 </r>
       <r>  -31.1058    1.0000 </r>
       <r>  -31.0976    1.0000 </r>
       <r>  -31.0310    1.0000 </r>
       <r>  -31.0274    1.0000 </r>
       <r>  -30.7951    1.0000 </r>
       <r>  -30.7839    1.0000 </r>
       <r>  -30.7169    1.0000 </r>
       <r>  -30.7055    1.0000 </r>
       <r>  -30.2277    1.0000 </r>
       <r>  -29.5815    1.0000 </r>
       <r>   -7.5373    1.0000 </r>
       <r>   -7.0970    1.0000 </r>
       <r>   -4.4126    1.0000 </r>
       <r>   -4.1225    1.0000 </r>
       <r>   -2.5893    1.0000 </r>
       <r>   -1.4242    1.0000 </r>
       <r>   -1.3597    1.0000 </r>
       <r>    0.3638    1.0000 </r>
       <r>    0.6980    1.0000 </r>
       <r>    0.9727    1.0000 </r>
       <r>    1.2043    1.0000 </r>
       <r>    1.3812    1.0000 </r>
       <r>    1.4889    1.0000 </r>
       <r>    1.5213    1.0000 </r>
       <r>    1.9880    1.0000 </r>
       <r>    2.2403    1.0000 </r>
       <r>    2.6667    1.0000 </r>
       <r>    2.6709    1.0000 </r>
       <r>    3.1001    1.0000 </r>
       <r>    3.3621    1.0000 </r>
       <r>    4.0080    1.0000 </r>
       <r>    4.6282    1.0000 </r>
       <r>    4.8082    1.0000 </r>
       <r>    5.0031    1.0000 </r>
       <r>    5.1155    1.0000 </r>
       <r>    5.3186    1.0000 </r>
       <r>    5.5036    0.0002 </r>
       <r>    5.7522    0.0000 </r>
       <r>    5.8761    0.0000 </r>
       <r>    6.0817    0.0000 </r>
       <r>    6.3770    0.0000 </r>
       <r>    6.6904    0.0000 </r>
       <r>    7.1324    0.0000 </r>
       <r>    7.2289    0.0000 </r>
       <r>    7.3526    0.0000 </r>
       <r>    7.4137    0.0000 </r>
       <r>    7.7118    0.0000 </r>
       <r>    8.1258    0.0000 </r>
      </set>
     </set>
    </set>
   </array>
  </eigenvalues>
  <separator name="orbital magnetization" >
   <v name="MAGDIPOLOUT">      0.00000000      0.00000000      0.00000000</v>
  </separator>
  <dos>
   <i name="efermi">      5.45346363 </i>
   <total>
    <array>
     <dimension dim="1">gridpoints</dimension>
     <dimension dim="2">spin</dimension>
     <field>energy</field>
     <field>total</field>
     <field>integrated</field>
     <set>
      <set comment="spin 1">
       <r>   -61.0969     0.0000     0.0000 </r>
       <r>   -60.8533     0.0000     0.0000 </r>
       <r>   -60.6098     0.0000     0.0000 </r>
       <r>   -60.3662     0.0000     0.0000 </r>
       <r>   -60.1227     0.0000     0.0000 </r>
       <r>   -59.8791     0.0000     0.0000 </r>
       <r>   -59.6356     0.0000     0.0000 </r>
       <r>   -59.3920     0.0000     0.0000 </r>
       <r>   -59.1485     0.0000     0.0000 </r>
       <r>   -58.9049     0.0000     0.0000 </r>
       <r>   -58.6614     0.0000     0.0000 </r>
       <r>   -58.4178     0.0000     0.0000 </r>
       <r>   -58.1743     0.0000     0.0000 </r>
       <r>   -57.9307     0.0000     0.0000 </r>
       <r>   -57.6872     8.8471     2.1547 </r>
       <r>   -57.4436     5.6003     4.3639 </r>
       <r>   -57.2001    11.0802     7.6986 </r>
       <r>   -56.9565     0.0000     8.0000 </r>
       <r>   -56.7130     0.0000     8.0000 </r>
       <r>   -56.4694     0.0000     8.0000 </r>
       <r>   -56.2259     0.0000     8.0000 </r>
       <r>   -55.9823     0.0000     8.0000 </r>
       <r>   -55.7388     0.0000     8.0000 </r>
       <r>   -55.4952     0.0000     8.0000 </r>
       <r>   -55.2517     0.0000     8.0000 </r>
       <r>   -55.0081     0.0000     8.0000 </r>
       <r>   -54.7646     0.0000     8.0000 </r>
       <r>   -54.5210     0.0000     8.0000 </r>
       <r>   -54.2775     0.0000     8.0000 </r>
       <r>   -54.0339     0.0000     8.0000 </r>
       <r>   -53.7904     0.0000     8.0000 </r>
       <r>   -53.5468     0.0000     8.0000 </r>
       <r>   -53.3033     0.0000     8.0000 </r>
       <r>   -53.0597     0.0000     8.0000 </r>
       <r>   -52.8162     0.0000     8.0000 </r>
       <r>   -52.5726     0.0000     8.0000 </r>
       <r>   -52.3291     0.0000     8.0000 </r>
       <r>   -52.0855     0.0000     8.0000 </r>
       <r>   -51.8420     0.0000     8.0000 </r>
       <r>   -51.5984     0.0000     8.0000 </r>
       <r>   -51.3549     0.0000     8.0000 </r>
       <r>   -51.1113     0.0000     8.0000 </r>
       <r>   -50.8678     0.0000     8.0000 </r>
       <r>   -50.6242     0.0000     8.0000 </r>
       <r>   -50.3807     0.0000     8.0000 </r>
       <r>   -50.1371     0.0000     8.0000 </r>
       <r>   -49.8936     0.0000     8.0000 </r>
       <r>   -49.6500     0.0000     8.0000 </r>
       <r>   -49.4065     0.0000     8.0000 </r>
       <r>   -49.1629     0.0000     8.0000 </r>
       <r>   -48.9194     0.0000     8.0000 </r>
       <r>   -48.6758     0.0000     8.0000 </r>
       <r>   -48.4323     0.0000     8.0000 </r>
       <r>   -48.1887     0.0000     8.0000 </r>
       <r>   -47.9452     0.0000     8.0000 </r>
       <r>   -47.7016     0.0000     8.0000 </r>
       <r>   -47.4581     0.0000     8.0000 </r>
       <r>   -47.2145     0.0000     8.0000 </r>
       <r>   -46.9710     0.0000     8.0000 </r>
       <r>   -46.7274     0.0000     8.0000 </r>
       <r>   -46.4839     0.0000     8.0000 </r>
       <r>   -46.2403     0.0000     8.0000 </r>
       <r>   -45.9968     0.0000     8.0000 </r>
       <r>   -45.7532     0.0000     8.0000 </r>
       <r>   -45.5097     0.0000     8.0000 </r>
       <r>   -45.2661     0.0000     8.0000 </r>
       <r>   -45.0226     0.0000     8.0000 </r>
       <r>   -44.7790     0.0000     8.0000 </r>
       <r>   -44.5355     0.0000     8.0000 </r>
       <r>   -44.2919     0.0000     8.0000 </r>
       <r>   -44.0484     0.0000     8.0000 </r>
       <r>   -43.8048     0.0000     8.0000 </r>
       <r>   -43.5613     0.0000     8.0000 </r>
       <r>   -43.3177     0.0000     8.0000 </r>
       <r>   -43.0741     0.0000     8.0000 </r>
       <r>   -42.8306     0.0000     8.0000 </r>
       <r>   -42.5870     0.0000     8.0000 </r>
       <r>   -42.3435     0.0000     8.0000 </r>
       <r>   -42.0999     0.0000     8.0000 </r>
       <r>   -41.8564     0.0000     8.0000 </r>
       <r>   -41.6128     0.0000     8.0000 </r>
       <r>   -41.3693     0.0000     8.0000 </r>
       <r>   -41.1257     0.0000     8.0000 </r>
       <r>   -40.8822     0.0000     8.0000 </r>
       <r>   -40.6386     0.0000     8.0000 </r>
       <r>   -40.3951     0.0000     8.0000 </r>
       <r>   -40.1515     0.0000     8.0000 </r>
       <r>   -39.9080     0.0000     8.0000 </r>
       <r>   -39.6644     0.0000     8.0000 </r>
       <r>   -39.4209     0.0000     8.0000 </r>
       <r>   -39.1773     0.0000     8.0000 </r>
       <r>   -38.9338     0.0000     8.0000 </r>
       <r>   -38.6902     0.0000     8.0000 </r>
       <r>   -38.4467     0.0000     8.0000 </r>
       <r>   -38.2031     0.0000     8.0000 </r>
       <r>   -37.9596     0.0000     8.0000 </r>
       <r>   -37.7160     0.0000     8.0000 </r>
       <r>   -37.4725     0.0000     8.0000 </r>
       <r>   -37.2289     0.0000     8.0000 </r>
       <r>   -36.9854     0.0000     8.0000 </r>
       <r>   -36.7418     0.0000     8.0000 </r>
       <r>   -36.4983     0.0000     8.0000 </r>
       <r>   -36.2547     0.0000     8.0000 </r>
       <r>   -36.0112     0.0000     8.0000 </r>
       <r>   -35.7676     0.0000     8.0000 </r>
       <r>   -35.5241     0.0000     8.0000 </r>
       <r>   -35.2805     0.0000     8.0000 </r>
       <r>   -35.0370     0.0000     8.0000 </r>
       <r>   -34.7934     0.0000     8.0000 </r>
       <r>   -34.5499     0.0000     8.0000 </r>
       <r>   -34.3063     0.0000     8.0000 </r>
       <r>   -34.0628     0.0000     8.0000 </r>
       <r>   -33.8192     0.0000     8.0000 </r>
       <r>   -33.5757     0.0000     8.0000 </r>
       <r>   -33.3321     0.0000     8.0000 </r>
       <r>   -33.0886     0.0000     8.0000 </r>
       <r>   -32.8450     0.0000     8.0000 </r>
       <r>   -32.6015     0.2549     8.0621 </r>
       <r>   -32.3579     2.7204     9.6626 </r>
       <r>   -32.1144     2.7347    10.3327 </r>
       <r>   -31.8708     0.1188    10.3623 </r>
       <r>   -31.6273     0.0000    11.0000 </r>
       <r>   -31.3837     2.7373    11.6667 </r>
       <r>   -31.1402     1.3989    12.0074 </r>
       <r>   -30.8966    15.0929    20.3426 </r>
       <r>   -30.6531    24.7608    28.3638 </r>
       <r>   -30.4095     0.0000    29.0000 </r>
       <r>   -30.1660     2.7373    29.6667 </r>
       <r>   -29.9224     0.0001    29.6667 </r>
       <r>   -29.6789     0.0000    30.3333 </r>
       <r>   -29.4353     2.7496    31.0030 </r>
       <r>   -29.1918     1.3686    32.0000 </r>
       <r>   -28.9482     0.0000    32.0000 </r>
       <r>   -28.7047     0.0000    32.0000 </r>
       <r>   -28.4611     0.0000    32.0000 </r>
       <r>   -28.2176     0.0000    32.0000 </r>
       <r>   -27.9740     0.0000    32.0000 </r>
       <r>   -27.7305     0.0000    32.0000 </r>
       <r>   -27.4869     0.0000    32.0000 </r>
       <r>   -27.2434     0.0000    32.0000 </r>
       <r>   -26.9998     0.0000    32.0000 </r>
       <r>   -26.7563     0.0000    32.0000 </r>
       <r>   -26.5127     0.0000    32.0000 </r>
       <r>   -26.2692     0.0000    32.0000 </r>
       <r>   -26.0256     0.0000    32.0000 </r>
       <r>   -25.7821     0.0000    32.0000 </r>
       <r>   -25.5385     0.0000    32.0000 </r>
       <r>   -25.2950     0.0000    32.0000 </r>
       <r>   -25.0514     0.0000    32.0000 </r>
       <r>   -24.8079     0.0000    32.0000 </r>
       <r>   -24.5643     0.0000    32.0000 </r>
       <r>   -24.3208     0.0000    32.0000 </r>
       <r>   -24.0772     0.0000    32.0000 </r>
       <r>   -23.8337     0.0000    32.0000 </r>
       <r>   -23.5901     0.0000    32.0000 </r>
       <r>   -23.3466     0.0000    32.0000 </r>
       <r>   -23.1030     0.0000    32.0000 </r>
       <r>   -22.8594     0.0000    32.0000 </r>
       <r>   -22.6159     0.0000    32.0000 </r>
       <r>   -22.3723     0.0000    32.0000 </r>
       <r>   -22.1288     0.0000    32.0000 </r>
       <r>   -21.8852     0.0000    32.0000 </r>
       <r>   -21.6417     0.0000    32.0000 </r>
       <r>   -21.3981     0.0000    32.0000 </r>
       <r>   -21.1546     0.0000    32.0000 </r>
       <r>   -20.9110     0.0000    32.0000 </r>
       <r>   -20.6675     0.0000    32.0000 </r>
       <r>   -20.4239     0.0000    32.0000 </r>
       <r>   -20.1804     0.0000    32.0000 </r>
       <r>   -19.9368     0.0000    32.0000 </r>
       <r>   -19.6933     0.0000    32.0000 </r>
       <r>   -19.4497     0.0000    32.0000 </r>
       <r>   -19.2062     0.0000    32.0000 </r>
       <r>   -18.9626     0.0000    32.0000 </r>
       <r>   -18.7191     0.0000    32.0000 </r>
       <r>   -18.4755     0.0000    32.0000 </r>
       <r>   -18.2320     0.0000    32.0000 </r>
       <r>   -17.9884     0.0000    32.0000 </r>
       <r>   -17.7449     0.0000    32.0000 </r>
       <r>   -17.5013     0.0000    32.0000 </r>
       <r>   -17.2578     0.0000    32.0000 </r>
       <r>   -17.0142     0.0000    32.0000 </r>
       <r>   -16.7707     0.0000    32.0000 </r>
       <r>   -16.5271     0.0000    32.0000 </r>
       <r>   -16.2836     0.0000    32.0000 </r>
       <r>   -16.0400     0.0000    32.0000 </r>
       <r>   -15.7965     0.0000    32.0000 </r>
       <r>   -15.5529     0.0000    32.0000 </r>
       <r>   -15.3094     0.0000    32.0000 </r>
       <r>   -15.0658     0.0000    32.0000 </r>
       <r>   -14.8223     0.0000    32.0000 </r>
       <r>   -14.5787     0.0000    32.0000 </r>
       <r>   -14.3352     0.0000    32.0000 </r>
       <r>   -14.0916     0.0000    32.0000 </r>
       <r>   -13.8481     0.0000    32.0000 </r>
       <r>   -13.6045     0.0000    32.0000 </r>
       <r>   -13.3610     0.0000    32.0000 </r>
       <r>   -13.1174     0.0000    32.0000 </r>
       <r>   -12.8739     0.0000    32.0000 </r>
       <r>   -12.6303     0.0000    32.0000 </r>
       <r>   -12.3868     0.0000    32.0000 </r>
       <r>   -12.1432     0.0000    32.0000 </r>
       <r>   -11.8997     0.0000    32.0000 </r>
       <r>   -11.6561     0.0000    32.0000 </r>
       <r>   -11.4126     0.0000    32.0000 </r>
       <r>   -11.1690     0.0000    32.0000 </r>
       <r>   -10.9255     0.0000    32.0000 </r>
       <r>   -10.6819     0.0000    32.0000 </r>
       <r>   -10.4384     0.0000    32.0000 </r>
       <r>   -10.1948     0.0000    32.0000 </r>
       <r>    -9.9513     0.0000    32.0000 </r>
       <r>    -9.7077     0.0000    32.0000 </r>
       <r>    -9.4642     0.0000    32.0000 </r>
       <r>    -9.2206     0.0000    32.0000 </r>
       <r>    -8.9771     0.0000    32.0000 </r>
       <r>    -8.7335     0.0000    32.0000 </r>
       <r>    -8.4900     0.0000    32.0000 </r>
       <r>    -8.2464     0.0000    32.0000 </r>
       <r>    -8.0029     0.0000    32.0000 </r>
       <r>    -7.7593     0.2115    32.0515 </r>
       <r>    -7.5158     2.2207    32.8663 </r>
       <r>    -7.2722     3.3030    34.0187 </r>
       <r>    -7.0287     3.1480    35.6794 </r>
       <r>    -6.7851     0.0978    36.0000 </r>
       <r>    -6.5416     0.0000    36.0000 </r>
       <r>    -6.2980     0.0000    36.0000 </r>
       <r>    -6.0545     0.0000    36.0000 </r>
       <r>    -5.8109     0.0000    36.0000 </r>
       <r>    -5.5674     0.0000    36.0000 </r>
       <r>    -5.3238     0.0000    36.0000 </r>
       <r>    -5.0803     0.0000    36.0000 </r>
       <r>    -4.8367     0.0000    36.0000 </r>
       <r>    -4.5932     1.3463    36.3358 </r>
       <r>    -4.3496     2.5070    37.1503 </r>
       <r>    -4.1061     3.6400    38.4738 </r>
       <r>    -3.8625     2.8025    40.0000 </r>
       <r>    -3.6190     0.0000    40.0000 </r>
       <r>    -3.3754     0.0000    40.0000 </r>
       <r>    -3.1319     0.0000    40.0000 </r>
       <r>    -2.8883     0.0000    40.0000 </r>
       <r>    -2.6448     1.7695    40.4310 </r>
       <r>    -2.4012     2.4735    41.5548 </r>
       <r>    -2.1576     1.3122    42.1767 </r>
       <r>    -1.9141     2.1573    42.9381 </r>
       <r>    -1.6705     0.9075    43.4194 </r>
       <r>    -1.4270     0.8460    43.8251 </r>
       <r>    -1.1834     1.2035    44.3249 </r>
       <r>    -0.9399     1.0003    44.6722 </r>
       <r>    -0.6963     1.7554    45.2371 </r>
       <r>    -0.4528     1.4142    45.8841 </r>
       <r>    -0.2092     1.1532    46.2015 </r>
       <r>     0.0343     3.2206    47.1256 </r>
       <r>     0.2779     2.0813    47.9275 </r>
       <r>     0.5214     0.6853    48.6987 </r>
       <r>     0.7650     2.3065    49.4745 </r>
       <r>     1.0085     8.9424    52.0668 </r>
       <r>     1.2521     5.0538    54.3182 </r>
       <r>     1.4956    11.7175    57.9967 </r>
       <r>     1.7392     4.6588    59.9442 </r>
       <r>     1.9827     4.3948    61.7529 </r>
       <r>     2.2263     5.9504    63.4572 </r>
       <r>     2.4698     2.9940    64.6419 </r>
       <r>     2.7134     3.5118    65.9585 </r>
       <r>     2.9569     2.2052    66.9418 </r>
       <r>     3.2005     5.6686    68.5949 </r>
       <r>     3.4440     2.7572    69.7350 </r>
       <r>     3.6876     1.4371    70.5087 </r>
       <r>     3.9311     1.1396    71.0474 </r>
       <r>     4.1747     3.4958    72.1054 </r>
       <r>     4.4182     3.9991    73.8311 </r>
       <r>     4.6618     4.9328    75.5030 </r>
       <r>     4.9053     6.3820    77.8639 </r>
       <r>     5.1489     6.5313    80.2494 </r>
       <r>     5.3924     9.9366    83.3566 </r>
       <r>     5.6360     9.0455    86.4570 </r>
       <r>     5.8795    10.0105    89.9460 </r>
       <r>     6.1231     5.1525    92.0009 </r>
       <r>     6.3666     4.8233    93.8334 </r>
       <r>     6.6102     7.1472    96.0820 </r>
       <r>     6.8537     4.8199    97.6422 </r>
       <r>     7.0973     4.3844    99.0599 </r>
       <r>     7.3408     6.6806   101.7620 </r>
       <r>     7.5844     5.1655   104.0438 </r>
       <r>     7.8279     3.6567   105.4144 </r>
       <r>     8.0715     3.8076   106.8162 </r>
       <r>     8.3150     1.8698   107.7887 </r>
       <r>     8.5586     0.2632   107.9609 </r>
       <r>     8.8021     0.0652   108.0000 </r>
       <r>     9.0457     0.0000   108.0000 </r>
       <r>     9.2892     0.0000   108.0000 </r>
       <r>     9.5328     0.0000   108.0000 </r>
       <r>     9.7763     0.0000   108.0000 </r>
       <r>    10.0199     0.0000   108.0000 </r>
       <r>    10.2634     0.0000   108.0000 </r>
       <r>    10.5070     0.0000   108.0000 </r>
       <r>    10.7505     0.0000   108.0000 </r>
       <r>    10.9941     0.0000   108.0000 </r>
       <r>    11.2376     0.0000   108.0000 </r>
       <r>    11.4812     0.0000   108.0000 </r>
       <r>    11.7247     0.0000   108.0000 </r>
       <r>    11.9683     0.0000   108.0000 </r>
      </set>
     </set>
    </array>
   </total>
  </dos>
 </calculation>
 <structure name="finalpos" >
  <crystal>
   <varray name="basis" >
    <v>       6.01040415       0.00000000      -3.24696700 </v>
    <v>      -2.13762113       5.61743125      -3.24696700 </v>
    <v>       0.00000000       0.00000000       6.83138000 </v>
   </varray>
   <i name="volume">    230.64810227 </i>
   <varray name="rec_basis" >
    <v>       0.16637816       0.06331248       0.00000000 </v>
    <v>       0.00000000       0.17801731       0.00000000 </v>
    <v>       0.07907984       0.11470447       0.14638331 </v>
   </varray>
  </crystal>
  <varray name="positions" >
   <v>       0.41375000       0.08625000       0.50000000 </v>
   <v>       0.58625000       0.91375000       0.50000000 </v>
   <v>       0.08625000       0.58625000       0.67250000 </v>
   <v>       0.91375000       0.41375000       0.32750000 </v>
   <v>       0.00000000       0.00000000       0.00000000 </v>
   <v>       0.25000000       0.25000000       0.00000000 </v>
   <v>       0.75000000       0.75000000       0.00000000 </v>
   <v>       0.50000000       0.50000000       0.00000000 </v>
   <v>       0.68122000       0.18122000       0.86245000 </v>
   <v>       0.31878000       0.81878000       0.13755000 </v>
   <v>       0.18122000       0.31878000       0.50000000 </v>
   <v>       0.81878000       0.68122000       0.50000000 </v>
  </varray>
 </structure>
</modeling>
