<?xml version="1.0" encoding="ISO-8859-1"?>
<modeling>
 <generator>
  <i name="program" type="string">vasp </i>
  <i name="version" type="string">6.2.0  </i>
  <i name="subversion" type="string">18Jan21 (build Jan 05 2022 15:41:44) complex                          parallel </i>
  <i name="platform" type="string">LinuxIFC </i>
  <i name="date" type="string">2025 05 07 </i>
  <i name="time" type="string">17:01:19 </i>
 </generator>
 <incar>
  <i type="string" name="SYSTEM">routine with relax: pwdword</i>
  <i type="string" name="PREC">Acc</i>
  <i type="int" name="IALGO">    38</i>
  <i type="string" name="ALGO">A</i>
  <i type="logical" name="ADDGRID"> T  </i>
  <i type="int" name="ICHARG">     2</i>
  <i type="int" name="NELM">   100</i>
  <i type="int" name="NELMIN">     6</i>
  <i name="EDIFF">      0.00000000</i>
  <i type="int" name="NSW">     0</i>
  <i type="int" name="ISIF">    -1</i>
  <i name="SYMPREC">      0.00010000</i>
  <i name="ENCUT">    600.00000000</i>
  <i type="logical" name="LREAL"> F  </i>
  <i type="int" name="ISMEAR">     0</i>
  <i name="SIGMA">      0.02000000</i>
  <i type="logical" name="LASPH"> T  </i>
  <i type="string" name="METAGGA">R2SCAN</i>
  <i type="logical" name="LMIXTAU"> F  </i>
 </incar>
 <primitive_cell>
  <structure name="primitive_cell" >
   <crystal>
    <varray name="basis" >
     <v>       5.35448706       0.00000000      -3.23283789 </v>
     <v>      -1.70539119       5.07564504      -3.23283789 </v>
     <v>       0.00000000       0.00000000       6.25474000 </v>
    </varray>
    <i name="volume">    169.98804418 </i>
    <varray name="rec_basis" >
     <v>       0.18675925       0.06275017       0.00000000 </v>
     <v>       0.00000000       0.19701929       0.00000000 </v>
     <v>       0.09652877       0.13426498       0.15987875 </v>
    </varray>
   </crystal>
   <varray name="positions" >
    <v>       0.00000000       0.00000000       0.00000000 </v>
    <v>       0.50000000       0.50000000       0.00000000 </v>
    <v>       0.25000000       0.25000000       0.00000000 </v>
    <v>       0.25000000       0.75000000       0.50000000 </v>
    <v>       0.75000000       0.75000000       0.00000000 </v>
    <v>       0.75000000       0.25000000       0.50000000 </v>
    <v>       0.01171000       0.51171000       0.02210000 </v>
    <v>       0.50000000       0.50000000       0.50000000 </v>
    <v>       0.48960000       0.98960000       0.97790000 </v>
    <v>       0.00000000       0.00000000       0.50000000 </v>
   </varray>
  </structure>
  <varray name="primitive_index" >
   <v type="int" >        1 </v>
   <v type="int" >        2 </v>
   <v type="int" >        3 </v>
   <v type="int" >        4 </v>
   <v type="int" >        5 </v>
   <v type="int" >        6 </v>
   <v type="int" >        7 </v>
   <v type="int" >        8 </v>
   <v type="int" >        9 </v>
   <v type="int" >       10 </v>
  </varray>
 </primitive_cell>
 <kpoints>
  <generation param="Gamma">
   <v type="int" name="divisions">       7        7        8 </v>
   <v name="usershift">      0.00000000       0.00000000       0.00000000 </v>
   <v name="genvec1">      0.14285714       0.00000000       0.00000000 </v>
   <v name="genvec2">      0.00000000       0.14285714       0.00000000 </v>
   <v name="genvec3">      0.00000000       0.00000000       0.12500000 </v>
   <v name="shift">      0.00000000       0.00000000       0.00000000 </v>
  </generation>
  <varray name="kpointlist" >
   <v>       0.00000000       0.00000000       0.00000000 </v>
   <v>       0.14285714       0.00000000       0.00000000 </v>
   <v>       0.28571429       0.00000000       0.00000000 </v>
   <v>       0.42857143       0.00000000       0.00000000 </v>
   <v>       0.14285714       0.14285714       0.00000000 </v>
   <v>       0.28571429       0.14285714       0.00000000 </v>
   <v>       0.42857143       0.14285714       0.00000000 </v>
   <v>      -0.42857143       0.14285714       0.00000000 </v>
   <v>      -0.28571429       0.14285714       0.00000000 </v>
   <v>      -0.14285714       0.14285714       0.00000000 </v>
   <v>       0.28571429       0.28571429       0.00000000 </v>
   <v>       0.42857143       0.28571429       0.00000000 </v>
   <v>      -0.42857143       0.28571429       0.00000000 </v>
   <v>      -0.28571429       0.28571429       0.00000000 </v>
   <v>       0.42857143       0.42857143       0.00000000 </v>
   <v>      -0.42857143       0.42857143       0.00000000 </v>
   <v>       0.00000000      -0.00000000       0.12500000 </v>
   <v>       0.14285714       0.00000000       0.12500000 </v>
   <v>       0.28571429      -0.00000000       0.12500000 </v>
   <v>       0.42857143      -0.00000000       0.12500000 </v>
   <v>      -0.42857143      -0.00000000       0.12500000 </v>
   <v>      -0.28571429      -0.00000000       0.12500000 </v>
   <v>      -0.14285714      -0.00000000       0.12500000 </v>
   <v>       0.14285714       0.14285714       0.12500000 </v>
   <v>       0.28571429       0.14285714       0.12500000 </v>
   <v>       0.42857143       0.14285714       0.12500000 </v>
   <v>      -0.42857143       0.14285714       0.12500000 </v>
   <v>      -0.28571429       0.14285714       0.12500000 </v>
   <v>      -0.14285714       0.14285714       0.12500000 </v>
   <v>       0.28571429       0.28571429       0.12500000 </v>
   <v>       0.42857143       0.28571429       0.12500000 </v>
   <v>      -0.42857143       0.28571429       0.12500000 </v>
   <v>      -0.28571429       0.28571429       0.12500000 </v>
   <v>      -0.14285714       0.28571429       0.12500000 </v>
   <v>       0.42857143       0.42857143       0.12500000 </v>
   <v>      -0.42857143       0.42857143       0.12500000 </v>
   <v>      -0.28571429       0.42857143       0.12500000 </v>
   <v>      -0.14285714       0.42857143       0.12500000 </v>
   <v>      -0.42857143      -0.42857143       0.12500000 </v>
   <v>      -0.28571429      -0.42857143       0.12500000 </v>
   <v>      -0.14285714      -0.42857143       0.12500000 </v>
   <v>      -0.28571429      -0.28571429       0.12500000 </v>
   <v>      -0.14285714      -0.28571429       0.12500000 </v>
   <v>      -0.14285714      -0.14285714       0.12500000 </v>
   <v>       0.00000000      -0.00000000       0.25000000 </v>
   <v>       0.14285714      -0.00000000       0.25000000 </v>
   <v>       0.28571429       0.00000000       0.25000000 </v>
   <v>       0.42857143      -0.00000000       0.25000000 </v>
   <v>      -0.42857143      -0.00000000       0.25000000 </v>
   <v>      -0.28571429      -0.00000000       0.25000000 </v>
   <v>      -0.14285714      -0.00000000       0.25000000 </v>
   <v>       0.14285714       0.14285714       0.25000000 </v>
   <v>       0.28571429       0.14285714       0.25000000 </v>
   <v>       0.42857143       0.14285714       0.25000000 </v>
   <v>      -0.42857143       0.14285714       0.25000000 </v>
   <v>      -0.28571429       0.14285714       0.25000000 </v>
   <v>      -0.14285714       0.14285714       0.25000000 </v>
   <v>       0.28571429       0.28571429       0.25000000 </v>
   <v>       0.42857143       0.28571429       0.25000000 </v>
   <v>      -0.42857143       0.28571429       0.25000000 </v>
   <v>      -0.28571429       0.28571429       0.25000000 </v>
   <v>      -0.14285714       0.28571429       0.25000000 </v>
   <v>       0.42857143       0.42857143       0.25000000 </v>
   <v>      -0.42857143       0.42857143       0.25000000 </v>
   <v>      -0.28571429       0.42857143       0.25000000 </v>
   <v>      -0.14285714       0.42857143       0.25000000 </v>
   <v>      -0.42857143      -0.42857143       0.25000000 </v>
   <v>      -0.28571429      -0.42857143       0.25000000 </v>
   <v>      -0.14285714      -0.42857143       0.25000000 </v>
   <v>      -0.28571429      -0.28571429       0.25000000 </v>
   <v>      -0.14285714      -0.28571429       0.25000000 </v>
   <v>      -0.14285714      -0.14285714       0.25000000 </v>
   <v>      -0.00000000      -0.00000000       0.37500000 </v>
   <v>       0.14285714      -0.00000000       0.37500000 </v>
   <v>       0.28571429      -0.00000000       0.37500000 </v>
   <v>       0.42857143      -0.00000000       0.37500000 </v>
   <v>      -0.42857143      -0.00000000       0.37500000 </v>
   <v>      -0.28571429      -0.00000000       0.37500000 </v>
   <v>      -0.14285714      -0.00000000       0.37500000 </v>
   <v>       0.14285714       0.14285714       0.37500000 </v>
   <v>       0.28571429       0.14285714       0.37500000 </v>
   <v>       0.42857143       0.14285714       0.37500000 </v>
   <v>      -0.42857143       0.14285714       0.37500000 </v>
   <v>      -0.28571429       0.14285714       0.37500000 </v>
   <v>      -0.14285714       0.14285714       0.37500000 </v>
   <v>       0.28571429       0.28571429       0.37500000 </v>
   <v>       0.42857143       0.28571429       0.37500000 </v>
   <v>      -0.42857143       0.28571429       0.37500000 </v>
   <v>      -0.28571429       0.28571429       0.37500000 </v>
   <v>      -0.14285714       0.28571429       0.37500000 </v>
   <v>       0.42857143       0.42857143       0.37500000 </v>
   <v>      -0.42857143       0.42857143       0.37500000 </v>
   <v>      -0.28571429       0.42857143       0.37500000 </v>
   <v>      -0.14285714       0.42857143       0.37500000 </v>
   <v>      -0.42857143      -0.42857143       0.37500000 </v>
   <v>      -0.28571429      -0.42857143       0.37500000 </v>
   <v>      -0.14285714      -0.42857143       0.37500000 </v>
   <v>      -0.28571429      -0.28571429       0.37500000 </v>
   <v>      -0.14285714      -0.28571429       0.37500000 </v>
   <v>      -0.14285714      -0.14285714       0.37500000 </v>
   <v>       0.00000000      -0.00000000       0.50000000 </v>
   <v>       0.14285714      -0.00000000       0.50000000 </v>
   <v>       0.28571429      -0.00000000       0.50000000 </v>
   <v>       0.42857143      -0.00000000       0.50000000 </v>
   <v>       0.14285714       0.14285714       0.50000000 </v>
   <v>       0.28571429       0.14285714       0.50000000 </v>
   <v>       0.42857143       0.14285714       0.50000000 </v>
   <v>      -0.42857143       0.14285714       0.50000000 </v>
   <v>      -0.28571429       0.14285714       0.50000000 </v>
   <v>      -0.14285714       0.14285714       0.50000000 </v>
   <v>       0.28571429       0.28571429       0.50000000 </v>
   <v>       0.42857143       0.28571429       0.50000000 </v>
   <v>      -0.42857143       0.28571429       0.50000000 </v>
   <v>      -0.28571429       0.28571429       0.50000000 </v>
   <v>       0.42857143       0.42857143       0.50000000 </v>
   <v>      -0.42857143       0.42857143       0.50000000 </v>
  </varray>
  <varray name="weights" >
   <v>       0.00255102 </v>
   <v>       0.01020408 </v>
   <v>       0.01020408 </v>
   <v>       0.01020408 </v>
   <v>       0.00510204 </v>
   <v>       0.01020408 </v>
   <v>       0.01020408 </v>
   <v>       0.01020408 </v>
   <v>       0.01020408 </v>
   <v>       0.00510204 </v>
   <v>       0.00510204 </v>
   <v>       0.01020408 </v>
   <v>       0.01020408 </v>
   <v>       0.00510204 </v>
   <v>       0.00510204 </v>
   <v>       0.00510204 </v>
   <v>       0.00510204 </v>
   <v>       0.01020408 </v>
   <v>       0.01020408 </v>
   <v>       0.01020408 </v>
   <v>       0.01020408 </v>
   <v>       0.01020408 </v>
   <v>       0.01020408 </v>
   <v>       0.00510204 </v>
   <v>       0.01020408 </v>
   <v>       0.01020408 </v>
   <v>       0.01020408 </v>
   <v>       0.01020408 </v>
   <v>       0.01020408 </v>
   <v>       0.00510204 </v>
   <v>       0.01020408 </v>
   <v>       0.01020408 </v>
   <v>       0.01020408 </v>
   <v>       0.01020408 </v>
   <v>       0.00510204 </v>
   <v>       0.01020408 </v>
   <v>       0.01020408 </v>
   <v>       0.01020408 </v>
   <v>       0.00510204 </v>
   <v>       0.01020408 </v>
   <v>       0.01020408 </v>
   <v>       0.00510204 </v>
   <v>       0.01020408 </v>
   <v>       0.00510204 </v>
   <v>       0.00510204 </v>
   <v>       0.01020408 </v>
   <v>       0.01020408 </v>
   <v>       0.01020408 </v>
   <v>       0.01020408 </v>
   <v>       0.01020408 </v>
   <v>       0.01020408 </v>
   <v>       0.00510204 </v>
   <v>       0.01020408 </v>
   <v>       0.01020408 </v>
   <v>       0.01020408 </v>
   <v>       0.01020408 </v>
   <v>       0.01020408 </v>
   <v>       0.00510204 </v>
   <v>       0.01020408 </v>
   <v>       0.01020408 </v>
   <v>       0.01020408 </v>
   <v>       0.01020408 </v>
   <v>       0.00510204 </v>
   <v>       0.01020408 </v>
   <v>       0.01020408 </v>
   <v>       0.01020408 </v>
   <v>       0.00510204 </v>
   <v>       0.01020408 </v>
   <v>       0.01020408 </v>
   <v>       0.00510204 </v>
   <v>       0.01020408 </v>
   <v>       0.00510204 </v>
   <v>       0.00510204 </v>
   <v>       0.01020408 </v>
   <v>       0.01020408 </v>
   <v>       0.01020408 </v>
   <v>       0.01020408 </v>
   <v>       0.01020408 </v>
   <v>       0.01020408 </v>
   <v>       0.00510204 </v>
   <v>       0.01020408 </v>
   <v>       0.01020408 </v>
   <v>       0.01020408 </v>
   <v>       0.01020408 </v>
   <v>       0.01020408 </v>
   <v>       0.00510204 </v>
   <v>       0.01020408 </v>
   <v>       0.01020408 </v>
   <v>       0.01020408 </v>
   <v>       0.01020408 </v>
   <v>       0.00510204 </v>
   <v>       0.01020408 </v>
   <v>       0.01020408 </v>
   <v>       0.01020408 </v>
   <v>       0.00510204 </v>
   <v>       0.01020408 </v>
   <v>       0.01020408 </v>
   <v>       0.00510204 </v>
   <v>       0.01020408 </v>
   <v>       0.00510204 </v>
   <v>       0.00255102 </v>
   <v>       0.01020408 </v>
   <v>       0.01020408 </v>
   <v>       0.01020408 </v>
   <v>       0.00510204 </v>
   <v>       0.01020408 </v>
   <v>       0.01020408 </v>
   <v>       0.01020408 </v>
   <v>       0.01020408 </v>
   <v>       0.00510204 </v>
   <v>       0.00510204 </v>
   <v>       0.01020408 </v>
   <v>       0.01020408 </v>
   <v>       0.00510204 </v>
   <v>       0.00510204 </v>
   <v>       0.00510204 </v>
  </varray>
 </kpoints>
 <parameters>
  <separator name="general" >
   <i type="string" name="SYSTEM">routine with relax: pwdword</i>
   <i type="logical" name="LCOMPAT"> F  </i>
  </separator>
  <separator name="electronic" >
   <i type="string" name="PREC">acc</i>
   <i name="ENMAX">    600.00000000</i>
   <i name="ENAUG">    535.51400000</i>
   <i name="EDIFF">      0.00000000</i>
   <i type="int" name="IALGO">    58</i>
   <i type="int" name="IWAVPR">    10</i>
   <i type="int" name="NBANDS">    48</i>
   <i type="int" name="NBANDSLOW">    -1</i>
   <i type="int" name="NBANDSHIGH">    -1</i>
   <i name="NELECT">     78.00000000</i>
   <i type="int" name="TURBO">     0</i>
   <i type="int" name="IRESTART">     0</i>
   <i type="int" name="NREBOOT">     0</i>
   <i type="int" name="NMIN">     0</i>
   <i name="EREF">      0.00000000</i>
   <separator name="electronic smearing" >
    <i type="int" name="ISMEAR">     0</i>
    <i name="SIGMA">      0.02000000</i>
    <i name="KSPACING">      0.50000000</i>
    <i type="logical" name="KGAMMA"> T  </i>
    <i type="logical" name="KBLOWUP"> F  </i>
   </separator>
   <separator name="electronic projectors" >
    <i type="logical" name="LREAL"> F  </i>
    <v name="ROPT">      0.00000000      0.00000000      0.00000000</v>
    <i type="int" name="LMAXPAW">  -100</i>
    <i type="int" name="LMAXMIX">     2</i>
    <i type="logical" name="NLSPLINE"> F  </i>
   </separator>
   <separator name="electronic startup" >
    <i type="int" name="ISTART">     0</i>
    <i type="int" name="ICHARG">     2</i>
    <i type="int" name="INIWAV">     1</i>
   </separator>
   <separator name="electronic spin" >
    <i type="int" name="ISPIN">     1</i>
    <i type="logical" name="LNONCOLLINEAR"> F  </i>
    <v name="MAGMOM">      1.00000000      1.00000000      1.00000000      1.00000000      1.00000000      1.00000000      1.00000000      1.00000000      1.00000000      1.00000000</v>
    <i name="NUPDOWN">     -1.00000000</i>
    <i type="logical" name="LSORBIT"> F  </i>
    <v name="SAXIS">      0.00000000      0.00000000      1.00000000</v>
    <i type="logical" name="LSPIRAL"> F  </i>
    <v name="QSPIRAL">      0.00000000      0.00000000      0.00000000</v>
    <i type="logical" name="LZEROZ"> F  </i>
   </separator>
   <separator name="electronic exchange-correlation" >
    <i type="logical" name="LASPH"> T  </i>
    <i type="logical" name="LMETAGGA"> F  </i>
   </separator>
   <separator name="electronic convergence" >
    <i type="int" name="NELM">   100</i>
    <i type="int" name="NELMDL">    -5</i>
    <i type="int" name="NELMIN">     6</i>
    <i name="ENINI">    600.00000000</i>
    <separator name="electronic convergence detail" >
     <i type="logical" name="LDIAG"> T  </i>
     <i type="logical" name="LSUBROT"> F  </i>
     <i name="WEIMIN">      0.00000000</i>
     <i name="EBREAK">      0.00000000</i>
     <i name="DEPER">      0.30000000</i>
     <i type="int" name="NRMM">     4</i>
     <i name="TIME">      0.40000000</i>
    </separator>
   </separator>
   <separator name="electronic mixer" >
    <i name="AMIX">      0.40000000</i>
    <i name="BMIX">      1.00000000</i>
    <i name="AMIN">      0.10000000</i>
    <i name="AMIX_MAG">      1.60000000</i>
    <i name="BMIX_MAG">      1.00000000</i>
    <separator name="electronic mixer details" >
     <i type="int" name="IMIX">     4</i>
     <i type="logical" name="MIXFIRST"> F  </i>
     <i type="int" name="MAXMIX">   -45</i>
     <i name="WC">    100.00000000</i>
     <i type="int" name="INIMIX">     1</i>
     <i type="int" name="MIXPRE">     1</i>
     <i type="int" name="MREMOVE">     5</i>
    </separator>
   </separator>
   <separator name="electronic dipolcorrection" >
    <i type="logical" name="LDIPOL"> F  </i>
    <i type="logical" name="LMONO"> F  </i>
    <i type="int" name="IDIPOL">     0</i>
    <i name="EPSILON">      1.00000000</i>
    <v name="DIPOL">   -100.00000000   -100.00000000   -100.00000000</v>
    <i name="EFIELD">      0.00000000</i>
   </separator>
  </separator>
  <separator name="grids" >
   <i type="int" name="NGX">    50</i>
   <i type="int" name="NGY">    50</i>
   <i type="int" name="NGZ">    50</i>
   <i type="int" name="NGXF">   100</i>
   <i type="int" name="NGYF">   100</i>
   <i type="int" name="NGZF">   100</i>
   <i type="logical" name="ADDGRID"> T  </i>
  </separator>
  <separator name="ionic" >
   <i type="int" name="NSW">     0</i>
   <i type="int" name="IBRION">    -1</i>
   <i type="int" name="MDALGO">     0</i>
   <i type="int" name="ISIF">    -1</i>
   <i name="PSTRESS">      0.00000000</i>
   <i name="EDIFFG">      0.00000001</i>
   <i type="int" name="NFREE">     0</i>
   <i name="POTIM">      0.50000000</i>
   <i name="SMASS">     -3.00000000</i>
   <i name="SCALEE">      1.00000000</i>
  </separator>
  <separator name="ionic md" >
   <i name="TEBEG">      0.00010000</i>
   <i name="TEEND">      0.00010000</i>
   <i type="int" name="NBLOCK">     1</i>
   <i type="int" name="KBLOCK">     1</i>
   <i type="int" name="NPACO">   256</i>
   <i name="APACO">     16.00000000</i>
  </separator>
  <separator name="symmetry" >
   <i type="int" name="ISYM">     2</i>
   <i name="SYMPREC">      0.00010000</i>
  </separator>
  <separator name="dos" >
   <i type="int" name="LORBIT">     0</i>
   <v name="RWIGS">     -1.00000000     -1.00000000     -1.00000000</v>
   <i type="int" name="NEDOS">   301</i>
   <i name="EMIN">     10.00000000</i>
   <i name="EMAX">    -10.00000000</i>
   <i name="EFERMI">      0.00000000</i>
  </separator>
  <separator name="writing" >
   <i type="int" name="NWRITE">     2</i>
   <i type="logical" name="LWAVE"> T  </i>
   <i type="logical" name="LDOWNSAMPLE"> F  </i>
   <i type="logical" name="LCHARG"> T  </i>
   <i type="logical" name="LPARD"> F  </i>
   <i type="logical" name="LVTOT"> F  </i>
   <i type="logical" name="LVHAR"> F  </i>
   <i type="logical" name="LELF"> F  </i>
   <i type="logical" name="LOPTICS"> F  </i>
   <v name="STM">      0.00000000      0.00000000      0.00000000      0.00000000      0.00000000      0.00000000      0.00000000</v>
  </separator>
  <separator name="performance" >
   <i type="int" name="NPAR">     6</i>
   <i type="int" name="NSIM">     4</i>
   <i type="int" name="NBLK">    -1</i>
   <i type="logical" name="LPLANE"> T  </i>
   <i type="logical" name="LSCALAPACK"> T  </i>
   <i type="logical" name="LSCAAWARE"> F  </i>
   <i type="logical" name="LSCALU"> F  </i>
   <i type="logical" name="LASYNC"> F  </i>
   <i type="logical" name="LORBITALREAL"> F  </i>
  </separator>
  <separator name="miscellaneous" >
   <i type="int" name="IDIOT">     3</i>
   <i type="int" name="PHON_NSTRUCT">    -1</i>
   <i type="logical" name="LMUSIC"> F  </i>
   <v name="POMASS">     10.81100000     95.94000000     28.08500000</v>
   <v name="DARWINR">      0.00000000      0.00000000      0.00000000</v>
   <v name="DARWINV">      1.00000000      1.00000000      1.00000000</v>
   <i type="logical" name="LCORR"> T  </i>
  </separator>
  <i type="logical" name="GGA_COMPAT"> T  </i>
  <i type="logical" name="LBERRY"> F  </i>
  <i type="int" name="ICORELEVEL">     0</i>
  <i type="logical" name="LDAU"> F  </i>
  <i type="int" name="I_CONSTRAINED_M">     0</i>
  <separator name="electronic exchange-correlation" >
   <i type="string" name="GGA">--</i>
   <i type="int" name="VOSKOWN">     0</i>
   <i type="logical" name="LHFCALC"> F  </i>
   <i type="string" name="PRECFOCK"></i>
   <i type="logical" name="LSYMGRAD"> F  </i>
   <i type="logical" name="LHFONE"> F  </i>
   <i type="logical" name="LRHFCALC"> F  </i>
   <i type="logical" name="LTHOMAS"> F  </i>
   <i type="logical" name="LMODELHF"> F  </i>
   <i type="logical" name="LFOCKACE"> F  </i>
   <i name="ENCUT4O">     -1.00000000</i>
   <i type="int" name="EXXOEP">     0</i>
   <i type="int" name="FOURORBIT">     0</i>
   <i name="AEXX">      0.00000000</i>
   <i name="HFALPHA">      0.00000000</i>
   <i name="MCALPHA">      0.00000000</i>
   <i name="ALDAX">      1.00000000</i>
   <i name="AGGAX">      1.00000000</i>
   <i name="ALDAC">      1.00000000</i>
   <i name="AGGAC">      1.00000000</i>
   <i type="int" name="NKREDX">     1</i>
   <i type="int" name="NKREDY">     1</i>
   <i type="int" name="NKREDZ">     1</i>
   <i type="logical" name="SHIFTRED"> F  </i>
   <i type="logical" name="ODDONLY"> F  </i>
   <i type="logical" name="EVENONLY"> F  </i>
   <i type="int" name="LMAXFOCK">     0</i>
   <i type="int" name="NMAXFOCKAE">     0</i>
   <i type="logical" name="LFOCKAEDFT"> F  </i>
   <i name="HFSCREEN">      0.00000000</i>
   <i name="HFSCREENC">      0.00000000</i>
   <i type="int" name="NBANDSGWLOW">     0</i>
  </separator>
  <separator name="vdW DFT" >
   <i type="logical" name="LUSE_VDW"> F  </i>
   <i name="Zab_VDW">     -0.84910000</i>
   <i name="PARAM1">      0.12340000</i>
   <i name="PARAM2">      1.00000000</i>
   <i name="PARAM3">      0.00000000</i>
  </separator>
  <separator name="model GW" >
   <i type="int" name="MODEL_GW">     0</i>
   <i name="MODEL_EPS0">     10.19928265</i>
   <i name="MODEL_ALPHA">      1.00000000</i>
  </separator>
  <separator name="linear response parameters" >
   <i type="logical" name="LEPSILON"> F  </i>
   <i type="logical" name="LRPA"> F  </i>
   <i type="logical" name="LNABLA"> F  </i>
   <i type="logical" name="LVEL"> F  </i>
   <i type="int" name="KINTER">     0</i>
   <i name="CSHIFT">      0.10000000</i>
   <i name="OMEGAMAX">     -1.00000000</i>
   <i name="DEG_THRESHOLD">      0.00200000</i>
   <i name="RTIME">     -0.10000000</i>
   <i name="WPLASMAI">      0.00000000</i>
   <v name="DFIELD">      0.00000000      0.00000000      0.00000000</v>
   <v name="WPLASMA">      0.00000000      0.00000000      0.00000000      0.00000000      0.00000000      0.00000000      0.00000000      0.00000000      0.00000000</v>
  </separator>
  <separator name="orbital magnetization" >
   <i type="logical" name="NUCIND"> F  </i>
   <v name="MAGPOS">      0.00000000      0.00000000      0.00000000</v>
   <i type="logical" name="LNICSALL"> T  </i>
   <i type="logical" name="ORBITALMAG"> F  </i>
   <i type="logical" name="LMAGBLOCH"> F  </i>
   <i type="logical" name="LCHIMAG"> F  </i>
   <i type="logical" name="LGAUGE"> T  </i>
   <i type="int" name="MAGATOM">     0</i>
   <v name="MAGDIPOL">      0.00000000      0.00000000      0.00000000</v>
   <v name="AVECCONST">      0.00000000      0.00000000      0.00000000</v>
  </separator>
  <separator name="response functions" >
   <i type="logical" name="LFINITE_TEMPERATURE"> F  </i>
   <i type="logical" name="LADDER"> F  </i>
   <i type="logical" name="LRPAFORCE"> F  </i>
   <i type="logical" name="LFXC"> F  </i>
   <i type="logical" name="LHARTREE"> T  </i>
   <i type="int" name="IBSE">     0</i>
   <v type="int" name="KPOINT">    -1     0     0     0</v>
   <i type="logical" name="LTCTC"> F  </i>
   <i type="logical" name="LTCTE"> F  </i>
   <i type="logical" name="LTETE"> F  </i>
   <i type="logical" name="LTRIPLET"> F  </i>
   <i type="logical" name="LFXCEPS"> F  </i>
   <i type="logical" name="LFXHEG"> F  </i>
   <i type="int" name="NATURALO">     2</i>
   <i type="logical" name="LHOLEGF"> F  </i>
   <i type="logical" name="L2ORDER"> F  </i>
   <i type="logical" name="LDMP1"> F  </i>
   <i type="logical" name="LMP2LT"> F  </i>
   <i type="logical" name="LSMP2LT"> F  </i>
   <i type="logical" name="LGWLF"> F  </i>
   <i name="ENCUTGW">     -2.00000000</i>
   <i name="ENCUTGWSOFT">     -2.00000000</i>
   <i name="ENCUTLF">     -1.00000000</i>
   <i type="logical" name="LESF_SPLINES"> F  </i>
   <i type="int" name="LMAXMP2">    -1</i>
   <i name="SCISSOR">      0.00000000</i>
   <i type="int" name="NOMEGA">     0</i>
   <i type="int" name="NOMEGAR">     0</i>
   <i type="int" name="NBANDSGW">    -1</i>
   <i type="int" name="NBANDSO">    -1</i>
   <i type="int" name="NBANDSV">    -1</i>
   <i type="int" name="NELM">   100</i>
   <i type="int" name="NELMHF">     1</i>
   <i type="int" name="DIM">     3</i>
   <i type="int" name="IESPILON">     4</i>
   <i type="int" name="ANTIRES">     0</i>
   <i name="OMEGAMAX">    -30.00000000</i>
   <i name="OMEGAMIN">    -30.00000000</i>
   <i name="OMEGATL">   -200.00000000</i>
   <i type="int" name="OMEGAGRID">     0</i>
   <i name="CSHIFT">     -0.10000000</i>
   <i type="logical" name="LSELFENERGY"> F  </i>
   <i type="logical" name="LSPECTRAL"> F  </i>
   <i type="logical" name="LSPECTRALGW"> F  </i>
   <i type="logical" name="LSINGLES"> F  </i>
   <i type="logical" name="LFERMIGW"> F  </i>
   <i type="logical" name="ODDONLYGW"> F  </i>
   <i type="logical" name="EVENONLYGW"> F  </i>
   <i type="int" name="NKREDLFX">     1</i>
   <i type="int" name="NKREDLFY">     1</i>
   <i type="int" name="NKREDLFZ">     1</i>
   <i type="int" name="MAXMEM">  2800</i>
   <i type="int" name="TELESCOPE">     0</i>
   <i type="int" name="NTAUPAR">    -1</i>
   <i type="int" name="NOMEGAPAR">    -1</i>
   <i name="DAMP_NEWTON">      0.80000001</i>
   <i name="LAMBDA">      1.00000000</i>
  </separator>
  <separator name="External order field" >
   <i name="OFIELD_KAPPA">      0.00000000</i>
   <v name="OFIELD_K">      0.00000000      0.00000000      0.00000000</v>
   <i name="OFIELD_Q6_NEAR">      0.00000000</i>
   <i name="OFIELD_Q6_FAR">      0.00000000</i>
   <i name="OFIELD_A">      0.00000000</i>
  </separator>
 </parameters>
 <atominfo>
  <atoms>      10 </atoms>
  <types>       3 </types>
  <array name="atoms" >
   <dimension dim="1">ion</dimension>
   <field type="string">element</field>
   <field type="int">atomtype</field>
   <set>
    <rc><c>B </c><c>   1</c></rc>
    <rc><c>B </c><c>   1</c></rc>
    <rc><c>Mo</c><c>   2</c></rc>
    <rc><c>Mo</c><c>   2</c></rc>
    <rc><c>Mo</c><c>   2</c></rc>
    <rc><c>Mo</c><c>   2</c></rc>
    <rc><c>Si</c><c>   3</c></rc>
    <rc><c>Si</c><c>   3</c></rc>
    <rc><c>Si</c><c>   3</c></rc>
    <rc><c>Si</c><c>   3</c></rc>
   </set>
  </array>
  <array name="atomtypes" >
   <dimension dim="1">type</dimension>
   <field type="int">atomspertype</field>
   <field type="string">element</field>
   <field>mass</field>
   <field>valence</field>
   <field type="string">pseudopotential</field>
   <set>
    <rc><c>   2</c><c>B </c><c>     10.81100000</c><c>      3.00000000</c><c>  PAW_PBE B 06Sep2000                   </c></rc>
    <rc><c>   4</c><c>Mo</c><c>     95.94000000</c><c>     14.00000000</c><c>  PAW_PBE Mo_sv 02Feb2006               </c></rc>
    <rc><c>   4</c><c>Si</c><c>     28.08500000</c><c>      4.00000000</c><c>  PAW_PBE Si 05Jan2001                  </c></rc>
   </set>
  </array>
 </atominfo>
 <structure name="initialpos" >
  <crystal>
   <varray name="basis" >
    <v>       5.35448706       0.00000000      -3.23283789 </v>
    <v>      -1.70539119       5.07564504      -3.23283789 </v>
    <v>       0.00000000       0.00000000       6.25474000 </v>
   </varray>
   <i name="volume">    169.98804418 </i>
   <varray name="rec_basis" >
    <v>       0.18675925       0.06275017       0.00000000 </v>
    <v>       0.00000000       0.19701929       0.00000000 </v>
    <v>       0.09652877       0.13426498       0.15987875 </v>
   </varray>
  </crystal>
  <varray name="positions" >
   <v>       0.00000000       0.00000000       0.00000000 </v>
   <v>       0.50000000       0.50000000       0.00000000 </v>
   <v>       0.25000000       0.25000000       0.00000000 </v>
   <v>       0.25000000       0.75000000       0.50000000 </v>
   <v>       0.75000000       0.75000000       0.00000000 </v>
   <v>       0.75000000       0.25000000       0.50000000 </v>
   <v>       0.01171000       0.51171000       0.02210000 </v>
   <v>       0.50000000       0.50000000       0.50000000 </v>
   <v>       0.48960000       0.98960000       0.97790000 </v>
   <v>       0.00000000       0.00000000       0.50000000 </v>
  </varray>
 </structure>
 <calculation>
  <scstep>
   <time name="total">   17.23   17.38</time>
   <energy>
    <i name="alphaZ">    278.09389321 </i>
    <i name="ewald">  -5232.40174957 </i>
    <i name="hartreedc">  -2552.06957200 </i>
    <i name="XCdc">    305.74144883 </i>
    <i name="pawpsdc">   6361.18088108 </i>
    <i name="pawaedc">  -6305.13563559 </i>
    <i name="eentropy">     -0.00062125 </i>
    <i name="bandstr">   -149.58229305 </i>
    <i name="atom">   8003.73552278 </i>
    <i name="e_fr_energy">    709.56187445 </i>
    <i name="e_wo_entrp">    709.56249570 </i>
    <i name="e_0_energy">    709.56218507 </i>
   </energy>
  </scstep>
  <scstep>
   <time name="total">   16.58   16.72</time>
   <energy>
    <i name="e_fr_energy">   -130.94501075 </i>
    <i name="e_wo_entrp">   -130.94414605 </i>
    <i name="e_0_energy">   -130.94457840 </i>
   </energy>
  </scstep>
  <scstep>
   <time name="total">   18.40   18.57</time>
   <energy>
    <i name="e_fr_energy">   -166.08817845 </i>
    <i name="e_wo_entrp">   -166.08666399 </i>
    <i name="e_0_energy">   -166.08742122 </i>
   </energy>
  </scstep>
  <scstep>
   <time name="total">   17.39   17.54</time>
   <energy>
    <i name="e_fr_energy">   -166.69901294 </i>
    <i name="e_wo_entrp">   -166.69742398 </i>
    <i name="e_0_energy">   -166.69821846 </i>
   </energy>
  </scstep>
  <scstep>
   <time name="total">   19.65   19.82</time>
   <energy>
    <i name="e_fr_energy">   -166.71455726 </i>
    <i name="e_wo_entrp">   -166.71298810 </i>
    <i name="e_0_energy">   -166.71377268 </i>
   </energy>
  </scstep>
  <scstep>
   <time name="total">   19.04   19.21</time>
   <energy>
    <i name="e_fr_energy">   -129.92085309 </i>
    <i name="e_wo_entrp">   -129.91964245 </i>
    <i name="e_0_energy">   -129.92024777 </i>
   </energy>
  </scstep>
  <scstep>
   <time name="total">   18.87   19.03</time>
   <energy>
    <i name="e_fr_energy">   -134.95224800 </i>
    <i name="e_wo_entrp">   -134.95081224 </i>
    <i name="e_0_energy">   -134.95153012 </i>
   </energy>
  </scstep>
  <scstep>
   <time name="total">   18.95   19.11</time>
   <energy>
    <i name="e_fr_energy">   -136.35437996 </i>
    <i name="e_wo_entrp">   -136.35261203 </i>
    <i name="e_0_energy">   -136.35349599 </i>
   </energy>
  </scstep>
  <scstep>
   <time name="total">   18.82   18.98</time>
   <energy>
    <i name="e_fr_energy">   -136.68934892 </i>
    <i name="e_wo_entrp">   -136.68770643 </i>
    <i name="e_0_energy">   -136.68852767 </i>
   </energy>
  </scstep>
  <scstep>
   <time name="total">   18.93   19.09</time>
   <energy>
    <i name="e_fr_energy">   -136.83678292 </i>
    <i name="e_wo_entrp">   -136.83528438 </i>
    <i name="e_0_energy">   -136.83603365 </i>
   </energy>
  </scstep>
  <scstep>
   <time name="total">   19.18   19.34</time>
   <energy>
    <i name="e_fr_energy">   -136.91866324 </i>
    <i name="e_wo_entrp">   -136.91723807 </i>
    <i name="e_0_energy">   -136.91795065 </i>
   </energy>
  </scstep>
  <scstep>
   <time name="total">   18.92   19.08</time>
   <energy>
    <i name="e_fr_energy">   -136.94309719 </i>
    <i name="e_wo_entrp">   -136.94174836 </i>
    <i name="e_0_energy">   -136.94242278 </i>
   </energy>
  </scstep>
  <scstep>
   <time name="total">   18.84   19.00</time>
   <energy>
    <i name="e_fr_energy">   -136.95717018 </i>
    <i name="e_wo_entrp">   -136.95587759 </i>
    <i name="e_0_energy">   -136.95652389 </i>
   </energy>
  </scstep>
  <scstep>
   <time name="total">   19.21   19.37</time>
   <energy>
    <i name="e_fr_energy">   -136.96637462 </i>
    <i name="e_wo_entrp">   -136.96506248 </i>
    <i name="e_0_energy">   -136.96571855 </i>
   </energy>
  </scstep>
  <scstep>
   <time name="total">   18.77   18.92</time>
   <energy>
    <i name="e_fr_energy">   -136.96985068 </i>
    <i name="e_wo_entrp">   -136.96852473 </i>
    <i name="e_0_energy">   -136.96918771 </i>
   </energy>
  </scstep>
  <scstep>
   <time name="total">   19.00   19.15</time>
   <energy>
    <i name="e_fr_energy">   -136.97083084 </i>
    <i name="e_wo_entrp">   -136.96948214 </i>
    <i name="e_0_energy">   -136.97015649 </i>
   </energy>
  </scstep>
  <scstep>
   <time name="total">   18.87   19.02</time>
   <energy>
    <i name="e_fr_energy">   -136.97160077 </i>
    <i name="e_wo_entrp">   -136.97023689 </i>
    <i name="e_0_energy">   -136.97091883 </i>
   </energy>
  </scstep>
  <scstep>
   <time name="total">   19.06   19.22</time>
   <energy>
    <i name="e_fr_energy">   -136.97196836 </i>
    <i name="e_wo_entrp">   -136.97059920 </i>
    <i name="e_0_energy">   -136.97128378 </i>
   </energy>
  </scstep>
  <scstep>
   <time name="total">   18.93   19.09</time>
   <energy>
    <i name="e_fr_energy">   -136.97213904 </i>
    <i name="e_wo_entrp">   -136.97077183 </i>
    <i name="e_0_energy">   -136.97145544 </i>
   </energy>
  </scstep>
  <scstep>
   <time name="total">   18.88   19.04</time>
   <energy>
    <i name="e_fr_energy">   -136.97220758 </i>
    <i name="e_wo_entrp">   -136.97084024 </i>
    <i name="e_0_energy">   -136.97152391 </i>
   </energy>
  </scstep>
  <scstep>
   <time name="total">   18.95   19.11</time>
   <energy>
    <i name="e_fr_energy">   -136.97222588 </i>
    <i name="e_wo_entrp">   -136.97085972 </i>
    <i name="e_0_energy">   -136.97154280 </i>
   </energy>
  </scstep>
  <scstep>
   <time name="total">   18.66   18.81</time>
   <energy>
    <i name="e_fr_energy">   -136.97224113 </i>
    <i name="e_wo_entrp">   -136.97087654 </i>
    <i name="e_0_energy">   -136.97155884 </i>
   </energy>
  </scstep>
  <scstep>
   <time name="total">   19.17   19.33</time>
   <energy>
    <i name="e_fr_energy">   -136.97224831 </i>
    <i name="e_wo_entrp">   -136.97088424 </i>
    <i name="e_0_energy">   -136.97156628 </i>
   </energy>
  </scstep>
  <scstep>
   <time name="total">   19.06   19.22</time>
   <energy>
    <i name="e_fr_energy">   -136.97225153 </i>
    <i name="e_wo_entrp">   -136.97088783 </i>
    <i name="e_0_energy">   -136.97156968 </i>
   </energy>
  </scstep>
  <scstep>
   <time name="total">   18.86   19.02</time>
   <energy>
    <i name="e_fr_energy">   -136.97225264 </i>
    <i name="e_wo_entrp">   -136.97088924 </i>
    <i name="e_0_energy">   -136.97157094 </i>
   </energy>
  </scstep>
  <scstep>
   <time name="total">   18.33   18.50</time>
   <energy>
    <i name="e_fr_energy">   -136.97225302 </i>
    <i name="e_wo_entrp">   -136.97088980 </i>
    <i name="e_0_energy">   -136.97157141 </i>
   </energy>
  </scstep>
  <scstep>
   <time name="total">   18.42   18.58</time>
   <energy>
    <i name="e_fr_energy">   -136.97225342 </i>
    <i name="e_wo_entrp">   -136.97089025 </i>
    <i name="e_0_energy">   -136.97157183 </i>
   </energy>
  </scstep>
  <scstep>
   <time name="total">   19.53   19.69</time>
   <energy>
    <i name="e_fr_energy">   -136.97225356 </i>
    <i name="e_wo_entrp">   -136.97089036 </i>
    <i name="e_0_energy">   -136.97157196 </i>
   </energy>
  </scstep>
  <scstep>
   <time name="total">   20.14   20.30</time>
   <energy>
    <i name="e_fr_energy">   -136.97225365 </i>
    <i name="e_wo_entrp">   -136.97089053 </i>
    <i name="e_0_energy">   -136.97157209 </i>
   </energy>
  </scstep>
  <scstep>
   <time name="total">   19.60   19.76</time>
   <energy>
    <i name="e_fr_energy">   -136.97225369 </i>
    <i name="e_wo_entrp">   -136.97089059 </i>
    <i name="e_0_energy">   -136.97157214 </i>
   </energy>
  </scstep>
  <scstep>
   <time name="total">   19.45   19.60</time>
   <energy>
    <i name="e_fr_energy">   -136.97225371 </i>
    <i name="e_wo_entrp">   -136.97089057 </i>
    <i name="e_0_energy">   -136.97157214 </i>
   </energy>
  </scstep>
  <scstep>
   <time name="total">   19.52   19.68</time>
   <energy>
    <i name="e_fr_energy">   -136.97225373 </i>
    <i name="e_wo_entrp">   -136.97089057 </i>
    <i name="e_0_energy">   -136.97157215 </i>
   </energy>
  </scstep>
  <scstep>
   <time name="total">   20.00   20.17</time>
   <energy>
    <i name="e_fr_energy">   -136.97225374 </i>
    <i name="e_wo_entrp">   -136.97089057 </i>
    <i name="e_0_energy">   -136.97157216 </i>
   </energy>
  </scstep>
  <scstep>
   <time name="total">   19.08   19.24</time>
   <energy>
    <i name="e_fr_energy">   -136.97225374 </i>
    <i name="e_wo_entrp">   -136.97089057 </i>
    <i name="e_0_energy">   -136.97157216 </i>
   </energy>
  </scstep>
  <scstep>
   <time name="total">   19.70   19.85</time>
   <energy>
    <i name="e_fr_energy">   -136.97225375 </i>
    <i name="e_wo_entrp">   -136.97089057 </i>
    <i name="e_0_energy">   -136.97157216 </i>
   </energy>
  </scstep>
  <scstep>
   <time name="total">   20.57   20.74</time>
   <energy>
    <i name="e_fr_energy">   -136.97225375 </i>
    <i name="e_wo_entrp">   -136.97089055 </i>
    <i name="e_0_energy">   -136.97157215 </i>
   </energy>
  </scstep>
  <scstep>
   <time name="total">   19.21   19.37</time>
   <energy>
    <i name="e_fr_energy">   -136.97225375 </i>
    <i name="e_wo_entrp">   -136.97089056 </i>
    <i name="e_0_energy">   -136.97157215 </i>
   </energy>
  </scstep>
  <scstep>
   <time name="total">   18.97   19.13</time>
   <energy>
    <i name="e_fr_energy">   -136.97225375 </i>
    <i name="e_wo_entrp">   -136.97089056 </i>
    <i name="e_0_energy">   -136.97157216 </i>
   </energy>
  </scstep>
  <scstep>
   <time name="total">   22.68   22.86</time>
   <energy>
    <i name="alphaZ">    278.09389321 </i>
    <i name="ewald">  -5232.40174957 </i>
    <i name="hartreedc">  -2547.84453485 </i>
    <i name="XCdc">    316.13005008 </i>
    <i name="pawpsdc">  12532.25151508 </i>
    <i name="pawaedc"> -12487.81954764 </i>
    <i name="eentropy">     -0.00136320 </i>
    <i name="bandstr">   -999.11603965 </i>
    <i name="atom">   8003.73552278 </i>
    <i name="e_fr_energy">   -136.97225375 </i>
    <i name="e_wo_entrp">   -136.97089056 </i>
    <i name="e_0_energy">   -136.97157216 </i>
   </energy>
  </scstep>
  <structure>
   <crystal>
    <varray name="basis" >
     <v>       5.35448706       0.00000000      -3.23283789 </v>
     <v>      -1.70539119       5.07564504      -3.23283789 </v>
     <v>       0.00000000       0.00000000       6.25474000 </v>
    </varray>
    <i name="volume">    169.98804418 </i>
    <varray name="rec_basis" >
     <v>       0.18675925       0.06275017       0.00000000 </v>
     <v>       0.00000000       0.19701929       0.00000000 </v>
     <v>       0.09652877       0.13426498       0.15987875 </v>
    </varray>
   </crystal>
   <varray name="positions" >
    <v>       0.00000000       0.00000000       0.00000000 </v>
    <v>       0.50000000       0.50000000       0.00000000 </v>
    <v>       0.25000000       0.25000000       0.00000000 </v>
    <v>       0.25000000       0.75000000       0.50000000 </v>
    <v>       0.75000000       0.75000000       0.00000000 </v>
    <v>       0.75000000       0.25000000       0.50000000 </v>
    <v>       0.01171000       0.51171000       0.02210000 </v>
    <v>       0.50000000       0.50000000       0.50000000 </v>
    <v>       0.48960000       0.98960000       0.97790000 </v>
    <v>       0.00000000       0.00000000       0.50000000 </v>
   </varray>
  </structure>
  <varray name="forces" >
   <v>       0.00000000       0.00000000       0.00000000 </v>
   <v>       0.00000000       0.00000000       0.00000000 </v>
   <v>       0.00000000       0.00000000       0.00000000 </v>
   <v>       0.00000000       0.00000000       0.00000000 </v>
   <v>       0.00000000       0.00000000       0.00000000 </v>
   <v>       0.00000000       0.00000000       0.00000000 </v>
   <v>       0.00000000       0.00000000       0.00000000 </v>
   <v>       0.00000000       0.00000000       0.00000000 </v>
   <v>       0.00000000       0.00000000       0.00000000 </v>
   <v>       0.00000000       0.00000000       0.00000000 </v>
  </varray>
  <varray name="stress" >
   <v>       0.00000000       0.00000000       0.00000000 </v>
   <v>       0.00000000       0.00000000       0.00000000 </v>
   <v>       0.00000000       0.00000000       0.00000000 </v>
  </varray>
  <energy>
   <i name="e_fr_energy">   -136.97225375 </i>
   <i name="e_wo_entrp">   -136.97089056 </i>
   <i name="e_0_energy">   -136.97157216 </i>
  </energy>
  <time name="totalsc">  746.34  752.60</time>
  <eigenvalues>
   <array>
    <dimension dim="1">band</dimension>
    <dimension dim="2">kpoint</dimension>
    <dimension dim="3">spin</dimension>
    <field>eigene</field>
    <field>occ</field>
    <set>
     <set comment="spin 1">
      <set comment="kpoint 1">
       <r>  -55.1843    1.0000 </r>
       <r>  -55.0813    1.0000 </r>
       <r>  -55.0771    1.0000 </r>
       <r>  -54.9842    1.0000 </r>
       <r>  -29.2273    1.0000 </r>
       <r>  -29.1813    1.0000 </r>
       <r>  -29.0840    1.0000 </r>
       <r>  -29.0635    1.0000 </r>
       <r>  -28.7210    1.0000 </r>
       <r>  -28.6701    1.0000 </r>
       <r>  -28.6280    1.0000 </r>
       <r>  -28.6102    1.0000 </r>
       <r>  -28.5764    1.0000 </r>
       <r>  -28.4463    1.0000 </r>
       <r>  -28.4444    1.0000 </r>
       <r>  -28.2698    1.0000 </r>
       <r>   -4.0750    1.0000 </r>
       <r>   -2.1080    1.0000 </r>
       <r>    0.3510    1.0000 </r>
       <r>    0.5057    1.0000 </r>
       <r>    0.6715    1.0000 </r>
       <r>    0.8278    1.0000 </r>
       <r>    0.8608    1.0000 </r>
       <r>    1.7649    1.0000 </r>
       <r>    1.9866    1.0000 </r>
       <r>    1.9948    1.0000 </r>
       <r>    2.4557    1.0000 </r>
       <r>    3.0025    1.0000 </r>
       <r>    3.0593    1.0000 </r>
       <r>    3.8038    1.0000 </r>
       <r>    4.6797    1.0000 </r>
       <r>    5.0303    1.0000 </r>
       <r>    5.0423    1.0000 </r>
       <r>    5.3639    1.0000 </r>
       <r>    5.3833    1.0000 </r>
       <r>    6.0618    1.0000 </r>
       <r>    6.6546    1.0000 </r>
       <r>    7.5093    0.0000 </r>
       <r>    7.6257    0.0000 </r>
       <r>    7.8027    0.0000 </r>
       <r>    7.8771    0.0000 </r>
       <r>    8.0906    0.0000 </r>
       <r>    8.9502    0.0000 </r>
       <r>    9.2945    0.0000 </r>
       <r>    9.6802    0.0000 </r>
       <r>    9.7220    0.0000 </r>
       <r>   10.0465    0.0000 </r>
       <r>   10.3532    0.0000 </r>
      </set>
      <set comment="kpoint 2">
       <r>  -55.1836    1.0000 </r>
       <r>  -55.0813    1.0000 </r>
       <r>  -55.0771    1.0000 </r>
       <r>  -54.9850    1.0000 </r>
       <r>  -29.2161    1.0000 </r>
       <r>  -29.1658    1.0000 </r>
       <r>  -29.0802    1.0000 </r>
       <r>  -29.0490    1.0000 </r>
       <r>  -28.7359    1.0000 </r>
       <r>  -28.6817    1.0000 </r>
       <r>  -28.6413    1.0000 </r>
       <r>  -28.6189    1.0000 </r>
       <r>  -28.5757    1.0000 </r>
       <r>  -28.4465    1.0000 </r>
       <r>  -28.4444    1.0000 </r>
       <r>  -28.2704    1.0000 </r>
       <r>   -3.9431    1.0000 </r>
       <r>   -2.0182    1.0000 </r>
       <r>   -0.2501    1.0000 </r>
       <r>    0.3877    1.0000 </r>
       <r>    0.5280    1.0000 </r>
       <r>    0.7263    1.0000 </r>
       <r>    1.4703    1.0000 </r>
       <r>    1.5403    1.0000 </r>
       <r>    2.1093    1.0000 </r>
       <r>    2.3304    1.0000 </r>
       <r>    2.5334    1.0000 </r>
       <r>    3.1200    1.0000 </r>
       <r>    3.3195    1.0000 </r>
       <r>    4.0049    1.0000 </r>
       <r>    4.5186    1.0000 </r>
       <r>    4.7486    1.0000 </r>
       <r>    4.8596    1.0000 </r>
       <r>    5.2380    1.0000 </r>
       <r>    5.3806    1.0000 </r>
       <r>    5.7928    1.0000 </r>
       <r>    6.6261    1.0000 </r>
       <r>    7.3532    0.0000 </r>
       <r>    7.5589    0.0000 </r>
       <r>    7.6293    0.0000 </r>
       <r>    7.8226    0.0000 </r>
       <r>    7.9530    0.0000 </r>
       <r>    9.2556    0.0000 </r>
       <r>    9.4183    0.0000 </r>
       <r>    9.5306    0.0000 </r>
       <r>    9.8043    0.0000 </r>
       <r>   10.0260    0.0000 </r>
       <r>   10.1289    0.0000 </r>
      </set>
      <set comment="kpoint 3">
       <r>  -55.1819    1.0000 </r>
       <r>  -55.0820    1.0000 </r>
       <r>  -55.0763    1.0000 </r>
       <r>  -54.9868    1.0000 </r>
       <r>  -29.1977    1.0000 </r>
       <r>  -29.1216    1.0000 </r>
       <r>  -29.0717    1.0000 </r>
       <r>  -28.9933    1.0000 </r>
       <r>  -28.7945    1.0000 </r>
       <r>  -28.7255    1.0000 </r>
       <r>  -28.6636    1.0000 </r>
       <r>  -28.6283    1.0000 </r>
       <r>  -28.5742    1.0000 </r>
       <r>  -28.4478    1.0000 </r>
       <r>  -28.4433    1.0000 </r>
       <r>  -28.2718    1.0000 </r>
       <r>   -3.5577    1.0000 </r>
       <r>   -1.7576    1.0000 </r>
       <r>   -1.2120    1.0000 </r>
       <r>   -0.1026    1.0000 </r>
       <r>    0.4658    1.0000 </r>
       <r>    0.9147    1.0000 </r>
       <r>    1.4091    1.0000 </r>
       <r>    2.1407    1.0000 </r>
       <r>    2.4131    1.0000 </r>
       <r>    2.6331    1.0000 </r>
       <r>    2.8219    1.0000 </r>
       <r>    3.3904    1.0000 </r>
       <r>    3.8726    1.0000 </r>
       <r>    3.9969    1.0000 </r>
       <r>    4.1645    1.0000 </r>
       <r>    4.2650    1.0000 </r>
       <r>    4.5217    1.0000 </r>
       <r>    5.1646    1.0000 </r>
       <r>    5.1890    1.0000 </r>
       <r>    5.2762    1.0000 </r>
       <r>    6.6452    1.0000 </r>
       <r>    6.7946    1.0000 </r>
       <r>    7.2771    0.0000 </r>
       <r>    7.5844    0.0000 </r>
       <r>    7.6654    0.0000 </r>
       <r>    7.7598    0.0000 </r>
       <r>    9.4215    0.0000 </r>
       <r>    9.5512    0.0000 </r>
       <r>    9.7579    0.0000 </r>
       <r>    9.8919    0.0000 </r>
       <r>    9.9653    0.0000 </r>
       <r>   10.2192    0.0000 </r>
      </set>
      <set comment="kpoint 4">
       <r>  -55.1805    1.0000 </r>
       <r>  -55.0831    1.0000 </r>
       <r>  -55.0751    1.0000 </r>
       <r>  -54.9883    1.0000 </r>
       <r>  -29.1854    1.0000 </r>
       <r>  -29.1097    1.0000 </r>
       <r>  -28.9971    1.0000 </r>
       <r>  -28.9083    1.0000 </r>
       <r>  -28.8906    1.0000 </r>
       <r>  -28.8096    1.0000 </r>
       <r>  -28.6682    1.0000 </r>
       <r>  -28.6332    1.0000 </r>
       <r>  -28.5730    1.0000 </r>
       <r>  -28.4490    1.0000 </r>
       <r>  -28.4423    1.0000 </r>
       <r>  -28.2729    1.0000 </r>
       <r>   -2.9540    1.0000 </r>
       <r>   -2.1360    1.0000 </r>
       <r>   -1.3197    1.0000 </r>
       <r>   -0.7463    1.0000 </r>
       <r>    0.5827    1.0000 </r>
       <r>    0.7577    1.0000 </r>
       <r>    2.0151    1.0000 </r>
       <r>    2.4831    1.0000 </r>
       <r>    2.8186    1.0000 </r>
       <r>    2.8710    1.0000 </r>
       <r>    3.0590    1.0000 </r>
       <r>    3.2238    1.0000 </r>
       <r>    3.5117    1.0000 </r>
       <r>    3.7020    1.0000 </r>
       <r>    3.8233    1.0000 </r>
       <r>    4.3949    1.0000 </r>
       <r>    4.6264    1.0000 </r>
       <r>    4.9731    1.0000 </r>
       <r>    5.0579    1.0000 </r>
       <r>    5.2080    1.0000 </r>
       <r>    6.4556    1.0000 </r>
       <r>    6.7679    1.0000 </r>
       <r>    6.8792    1.0000 </r>
       <r>    7.2596    0.0000 </r>
       <r>    7.5737    0.0000 </r>
       <r>    7.7112    0.0000 </r>
       <r>    9.3686    0.0000 </r>
       <r>    9.4523    0.0000 </r>
       <r>    9.8834    0.0000 </r>
       <r>    9.9609    0.0000 </r>
       <r>   10.0848    0.0000 </r>
       <r>   10.4026    0.0000 </r>
      </set>
      <set comment="kpoint 5">
       <r>  -55.1828    1.0000 </r>
       <r>  -55.0810    1.0000 </r>
       <r>  -55.0774    1.0000 </r>
       <r>  -54.9858    1.0000 </r>
       <r>  -29.2017    1.0000 </r>
       <r>  -29.1531    1.0000 </r>
       <r>  -29.0646    1.0000 </r>
       <r>  -29.0465    1.0000 </r>
       <r>  -28.7477    1.0000 </r>
       <r>  -28.6907    1.0000 </r>
       <r>  -28.6529    1.0000 </r>
       <r>  -28.6349    1.0000 </r>
       <r>  -28.5751    1.0000 </r>
       <r>  -28.4461    1.0000 </r>
       <r>  -28.4448    1.0000 </r>
       <r>  -28.2710    1.0000 </r>
       <r>   -3.7806    1.0000 </r>
       <r>   -1.9282    1.0000 </r>
       <r>   -0.4017    1.0000 </r>
       <r>   -0.2294    1.0000 </r>
       <r>    0.4385    1.0000 </r>
       <r>    1.1642    1.0000 </r>
       <r>    1.4396    1.0000 </r>
       <r>    1.4408    1.0000 </r>
       <r>    2.2795    1.0000 </r>
       <r>    2.5064    1.0000 </r>
       <r>    2.6579    1.0000 </r>
       <r>    3.3669    1.0000 </r>
       <r>    3.3834    1.0000 </r>
       <r>    4.2221    1.0000 </r>
       <r>    4.4062    1.0000 </r>
       <r>    4.5169    1.0000 </r>
       <r>    4.7407    1.0000 </r>
       <r>    5.0406    1.0000 </r>
       <r>    5.4883    1.0000 </r>
       <r>    5.5163    1.0000 </r>
       <r>    6.7242    1.0000 </r>
       <r>    7.1563    0.5875 </r>
       <r>    7.3455    0.0000 </r>
       <r>    7.5608    0.0000 </r>
       <r>    7.5886    0.0000 </r>
       <r>    7.8329    0.0000 </r>
       <r>    9.3818    0.0000 </r>
       <r>    9.5059    0.0000 </r>
       <r>    9.6473    0.0000 </r>
       <r>    9.7822    0.0000 </r>
       <r>    9.8991    0.0000 </r>
       <r>   10.0657    0.0000 </r>
      </set>
      <set comment="kpoint 6">
       <r>  -55.1812    1.0000 </r>
       <r>  -55.0813    1.0000 </r>
       <r>  -55.0769    1.0000 </r>
       <r>  -54.9877    1.0000 </r>
       <r>  -29.1779    1.0000 </r>
       <r>  -29.1094    1.0000 </r>
       <r>  -29.0555    1.0000 </r>
       <r>  -28.9963    1.0000 </r>
       <r>  -28.7985    1.0000 </r>
       <r>  -28.7282    1.0000 </r>
       <r>  -28.6829    1.0000 </r>
       <r>  -28.6509    1.0000 </r>
       <r>  -28.5736    1.0000 </r>
       <r>  -28.4471    1.0000 </r>
       <r>  -28.4441    1.0000 </r>
       <r>  -28.2724    1.0000 </r>
       <r>   -3.3734    1.0000 </r>
       <r>   -1.6831    1.0000 </r>
       <r>   -1.2708    1.0000 </r>
       <r>   -0.4994    1.0000 </r>
       <r>    0.5207    1.0000 </r>
       <r>    0.8886    1.0000 </r>
       <r>    1.5821    1.0000 </r>
       <r>    2.0134    1.0000 </r>
       <r>    2.6113    1.0000 </r>
       <r>    2.7454    1.0000 </r>
       <r>    2.9674    1.0000 </r>
       <r>    3.5274    1.0000 </r>
       <r>    3.6346    1.0000 </r>
       <r>    3.8468    1.0000 </r>
       <r>    4.0319    1.0000 </r>
       <r>    4.2187    1.0000 </r>
       <r>    4.8218    1.0000 </r>
       <r>    4.9101    1.0000 </r>
       <r>    5.1514    1.0000 </r>
       <r>    5.3381    1.0000 </r>
       <r>    6.6944    1.0000 </r>
       <r>    6.8397    1.0000 </r>
       <r>    6.9699    1.0000 </r>
       <r>    7.3270    0.0000 </r>
       <r>    7.4098    0.0000 </r>
       <r>    7.6290    0.0000 </r>
       <r>    9.5033    0.0000 </r>
       <r>    9.6718    0.0000 </r>
       <r>    9.7970    0.0000 </r>
       <r>    9.8437    0.0000 </r>
       <r>    9.9468    0.0000 </r>
       <r>   10.4151    0.0000 </r>
      </set>
      <set comment="kpoint 7">
       <r>  -55.1799    1.0000 </r>
       <r>  -55.0823    1.0000 </r>
       <r>  -55.0758    1.0000 </r>
       <r>  -54.9892    1.0000 </r>
       <r>  -29.1638    1.0000 </r>
       <r>  -29.0888    1.0000 </r>
       <r>  -28.9916    1.0000 </r>
       <r>  -28.9115    1.0000 </r>
       <r>  -28.8911    1.0000 </r>
       <r>  -28.8110    1.0000 </r>
       <r>  -28.6912    1.0000 </r>
       <r>  -28.6565    1.0000 </r>
       <r>  -28.5723    1.0000 </r>
       <r>  -28.4484    1.0000 </r>
       <r>  -28.4430    1.0000 </r>
       <r>  -28.2735    1.0000 </r>
       <r>   -2.7646    1.0000 </r>
       <r>   -2.1528    1.0000 </r>
       <r>   -1.2877    1.0000 </r>
       <r>   -0.8908    1.0000 </r>
       <r>    0.6455    1.0000 </r>
       <r>    0.6871    1.0000 </r>
       <r>    2.0660    1.0000 </r>
       <r>    2.4838    1.0000 </r>
       <r>    2.8734    1.0000 </r>
       <r>    2.9447    1.0000 </r>
       <r>    3.1181    1.0000 </r>
       <r>    3.3416    1.0000 </r>
       <r>    3.4032    1.0000 </r>
       <r>    3.6452    1.0000 </r>
       <r>    3.7265    1.0000 </r>
       <r>    4.2057    1.0000 </r>
       <r>    4.4325    1.0000 </r>
       <r>    4.7814    1.0000 </r>
       <r>    5.0453    1.0000 </r>
       <r>    5.5301    1.0000 </r>
       <r>    6.3153    1.0000 </r>
       <r>    6.6069    1.0000 </r>
       <r>    7.0116    1.0000 </r>
       <r>    7.1088    0.9998 </r>
       <r>    7.3371    0.0000 </r>
       <r>    7.5783    0.0000 </r>
       <r>    9.2814    0.0000 </r>
       <r>    9.7746    0.0000 </r>
       <r>    9.8630    0.0000 </r>
       <r>   10.0017    0.0000 </r>
       <r>   10.2094    0.0000 </r>
       <r>   10.3431    0.0000 </r>
      </set>
      <set comment="kpoint 8">
       <r>  -55.1799    1.0000 </r>
       <r>  -55.0823    1.0000 </r>
       <r>  -55.0758    1.0000 </r>
       <r>  -54.9892    1.0000 </r>
       <r>  -29.1632    1.0000 </r>
       <r>  -29.0886    1.0000 </r>
       <r>  -28.9956    1.0000 </r>
       <r>  -28.9097    1.0000 </r>
       <r>  -28.8872    1.0000 </r>
       <r>  -28.8133    1.0000 </r>
       <r>  -28.6920    1.0000 </r>
       <r>  -28.6558    1.0000 </r>
       <r>  -28.5723    1.0000 </r>
       <r>  -28.4485    1.0000 </r>
       <r>  -28.4430    1.0000 </r>
       <r>  -28.2735    1.0000 </r>
       <r>   -2.9325    1.0000 </r>
       <r>   -1.9635    1.0000 </r>
       <r>   -1.3382    1.0000 </r>
       <r>   -0.8048    1.0000 </r>
       <r>    0.5399    1.0000 </r>
       <r>    0.8553    1.0000 </r>
       <r>    2.0722    1.0000 </r>
       <r>    2.5025    1.0000 </r>
       <r>    2.6647    1.0000 </r>
       <r>    2.8773    1.0000 </r>
       <r>    2.9929    1.0000 </r>
       <r>    3.2635    1.0000 </r>
       <r>    3.7158    1.0000 </r>
       <r>    3.8056    1.0000 </r>
       <r>    3.8702    1.0000 </r>
       <r>    4.2079    1.0000 </r>
       <r>    4.4866    1.0000 </r>
       <r>    4.6007    1.0000 </r>
       <r>    4.7302    1.0000 </r>
       <r>    5.4626    1.0000 </r>
       <r>    6.2743    1.0000 </r>
       <r>    6.5189    1.0000 </r>
       <r>    6.9982    1.0000 </r>
       <r>    7.2953    0.0000 </r>
       <r>    7.5578    0.0000 </r>
       <r>    7.7009    0.0000 </r>
       <r>    9.1869    0.0000 </r>
       <r>    9.6915    0.0000 </r>
       <r>    9.7324    0.0000 </r>
       <r>    9.8912    0.0000 </r>
       <r>   10.4099    0.0000 </r>
       <r>   10.5284    0.0000 </r>
      </set>
      <set comment="kpoint 9">
       <r>  -55.1812    1.0000 </r>
       <r>  -55.0813    1.0000 </r>
       <r>  -55.0770    1.0000 </r>
       <r>  -54.9877    1.0000 </r>
       <r>  -29.1765    1.0000 </r>
       <r>  -29.1084    1.0000 </r>
       <r>  -29.0611    1.0000 </r>
       <r>  -28.9938    1.0000 </r>
       <r>  -28.7933    1.0000 </r>
       <r>  -28.7333    1.0000 </r>
       <r>  -28.6838    1.0000 </r>
       <r>  -28.6492    1.0000 </r>
       <r>  -28.5735    1.0000 </r>
       <r>  -28.4473    1.0000 </r>
       <r>  -28.4440    1.0000 </r>
       <r>  -28.2724    1.0000 </r>
       <r>   -3.4995    1.0000 </r>
       <r>   -1.7144    1.0000 </r>
       <r>   -1.0849    1.0000 </r>
       <r>   -0.3800    1.0000 </r>
       <r>    0.4537    1.0000 </r>
       <r>    1.1103    1.0000 </r>
       <r>    1.5351    1.0000 </r>
       <r>    2.1076    1.0000 </r>
       <r>    2.2795    1.0000 </r>
       <r>    2.6989    1.0000 </r>
       <r>    2.9434    1.0000 </r>
       <r>    3.5255    1.0000 </r>
       <r>    3.8205    1.0000 </r>
       <r>    3.9505    1.0000 </r>
       <r>    4.0538    1.0000 </r>
       <r>    4.2721    1.0000 </r>
       <r>    4.4369    1.0000 </r>
       <r>    4.8913    1.0000 </r>
       <r>    4.9496    1.0000 </r>
       <r>    5.3281    1.0000 </r>
       <r>    6.3754    1.0000 </r>
       <r>    6.7262    1.0000 </r>
       <r>    7.1734    0.1628 </r>
       <r>    7.4709    0.0000 </r>
       <r>    7.8427    0.0000 </r>
       <r>    7.8966    0.0000 </r>
       <r>    9.1093    0.0000 </r>
       <r>    9.6091    0.0000 </r>
       <r>    9.6859    0.0000 </r>
       <r>    9.8095    0.0000 </r>
       <r>   10.3171    0.0000 </r>
       <r>   10.5751    0.0000 </r>
      </set>
      <set comment="kpoint 10">
       <r>  -55.1829    1.0000 </r>
       <r>  -55.0810    1.0000 </r>
       <r>  -55.0774    1.0000 </r>
       <r>  -54.9858    1.0000 </r>
       <r>  -29.2008    1.0000 </r>
       <r>  -29.1531    1.0000 </r>
       <r>  -29.0700    1.0000 </r>
       <r>  -29.0424    1.0000 </r>
       <r>  -28.7433    1.0000 </r>
       <r>  -28.6962    1.0000 </r>
       <r>  -28.6530    1.0000 </r>
       <r>  -28.6333    1.0000 </r>
       <r>  -28.5750    1.0000 </r>
       <r>  -28.4464    1.0000 </r>
       <r>  -28.4446    1.0000 </r>
       <r>  -28.2710    1.0000 </r>
       <r>   -3.8466    1.0000 </r>
       <r>   -1.9430    1.0000 </r>
       <r>   -0.2291    1.0000 </r>
       <r>   -0.1910    1.0000 </r>
       <r>    0.4055    1.0000 </r>
       <r>    1.3659    1.0000 </r>
       <r>    1.4149    1.0000 </r>
       <r>    1.4993    1.0000 </r>
       <r>    2.0742    1.0000 </r>
       <r>    2.5573    1.0000 </r>
       <r>    2.5660    1.0000 </r>
       <r>    3.3552    1.0000 </r>
       <r>    3.4246    1.0000 </r>
       <r>    3.8031    1.0000 </r>
       <r>    4.5146    1.0000 </r>
       <r>    4.6539    1.0000 </r>
       <r>    4.8265    1.0000 </r>
       <r>    5.1295    1.0000 </r>
       <r>    5.1796    1.0000 </r>
       <r>    5.5101    1.0000 </r>
       <r>    6.4890    1.0000 </r>
       <r>    7.2904    0.0000 </r>
       <r>    7.3008    0.0000 </r>
       <r>    7.6481    0.0000 </r>
       <r>    7.8446    0.0000 </r>
       <r>    8.0122    0.0000 </r>
       <r>    9.2046    0.0000 </r>
       <r>    9.4160    0.0000 </r>
       <r>    9.5599    0.0000 </r>
       <r>    9.7682    0.0000 </r>
       <r>    9.9721    0.0000 </r>
       <r>   10.4971    0.0000 </r>
      </set>
      <set comment="kpoint 11">
       <r>  -55.1796    1.0000 </r>
       <r>  -55.0799    1.0000 </r>
       <r>  -55.0781    1.0000 </r>
       <r>  -54.9895    1.0000 </r>
       <r>  -29.1324    1.0000 </r>
       <r>  -29.0753    1.0000 </r>
       <r>  -29.0103    1.0000 </r>
       <r>  -28.9948    1.0000 </r>
       <r>  -28.8200    1.0000 </r>
       <r>  -28.7477    1.0000 </r>
       <r>  -28.7229    1.0000 </r>
       <r>  -28.7034    1.0000 </r>
       <r>  -28.5721    1.0000 </r>
       <r>  -28.4458    1.0000 </r>
       <r>  -28.4457    1.0000 </r>
       <r>  -28.2738    1.0000 </r>
       <r>   -2.9663    1.0000 </r>
       <r>   -1.5016    1.0000 </r>
       <r>   -1.3967    1.0000 </r>
       <r>   -1.1003    1.0000 </r>
       <r>    0.6114    1.0000 </r>
       <r>    0.8322    1.0000 </r>
       <r>    1.9561    1.0000 </r>
       <r>    2.0197    1.0000 </r>
       <r>    2.9193    1.0000 </r>
       <r>    2.9629    1.0000 </r>
       <r>    3.1944    1.0000 </r>
       <r>    3.2633    1.0000 </r>
       <r>    3.7437    1.0000 </r>
       <r>    3.7630    1.0000 </r>
       <r>    3.8515    1.0000 </r>
       <r>    3.9235    1.0000 </r>
       <r>    4.3250    1.0000 </r>
       <r>    4.5296    1.0000 </r>
       <r>    5.1221    1.0000 </r>
       <r>    5.7211    1.0000 </r>
       <r>    6.3423    1.0000 </r>
       <r>    6.6165    1.0000 </r>
       <r>    6.7058    1.0000 </r>
       <r>    7.1645    0.3602 </r>
       <r>    7.2496    0.0000 </r>
       <r>    7.4041    0.0000 </r>
       <r>    9.2525    0.0000 </r>
       <r>    9.8779    0.0000 </r>
       <r>   10.0554    0.0000 </r>
       <r>   10.1584    0.0000 </r>
       <r>   10.2258    0.0000 </r>
       <r>   10.2877    0.0000 </r>
      </set>
      <set comment="kpoint 12">
       <r>  -55.1783    1.0000 </r>
       <r>  -55.0804    1.0000 </r>
       <r>  -55.0774    1.0000 </r>
       <r>  -54.9911    1.0000 </r>
       <r>  -29.1051    1.0000 </r>
       <r>  -29.0326    1.0000 </r>
       <r>  -28.9757    1.0000 </r>
       <r>  -28.9183    1.0000 </r>
       <r>  -28.8928    1.0000 </r>
       <r>  -28.8156    1.0000 </r>
       <r>  -28.7526    1.0000 </r>
       <r>  -28.7201    1.0000 </r>
       <r>  -28.5707    1.0000 </r>
       <r>  -28.4472    1.0000 </r>
       <r>  -28.4446    1.0000 </r>
       <r>  -28.2749    1.0000 </r>
       <r>   -2.3944    1.0000 </r>
       <r>   -2.0335    1.0000 </r>
       <r>   -1.2874    1.0000 </r>
       <r>   -1.2064    1.0000 </r>
       <r>    0.6704    1.0000 </r>
       <r>    0.7422    1.0000 </r>
       <r>    2.2391    1.0000 </r>
       <r>    2.4919    1.0000 </r>
       <r>    2.7154    1.0000 </r>
       <r>    3.0514    1.0000 </r>
       <r>    3.1076    1.0000 </r>
       <r>    3.4429    1.0000 </r>
       <r>    3.5719    1.0000 </r>
       <r>    3.6824    1.0000 </r>
       <r>    3.7243    1.0000 </r>
       <r>    3.7502    1.0000 </r>
       <r>    4.1183    1.0000 </r>
       <r>    4.4841    1.0000 </r>
       <r>    4.8197    1.0000 </r>
       <r>    5.7951    1.0000 </r>
       <r>    5.9745    1.0000 </r>
       <r>    6.3055    1.0000 </r>
       <r>    6.5185    1.0000 </r>
       <r>    6.8673    1.0000 </r>
       <r>    7.4578    0.0000 </r>
       <r>    7.7304    0.0000 </r>
       <r>    9.0088    0.0000 </r>
       <r>    9.7003    0.0000 </r>
       <r>   10.0811    0.0000 </r>
       <r>   10.5101    0.0000 </r>
       <r>   10.6215    0.0000 </r>
       <r>   10.9439    0.0000 </r>
      </set>
      <set comment="kpoint 13">
       <r>  -55.1783    1.0000 </r>
       <r>  -55.0804    1.0000 </r>
       <r>  -55.0774    1.0000 </r>
       <r>  -54.9911    1.0000 </r>
       <r>  -29.1030    1.0000 </r>
       <r>  -29.0317    1.0000 </r>
       <r>  -28.9880    1.0000 </r>
       <r>  -28.9121    1.0000 </r>
       <r>  -28.8817    1.0000 </r>
       <r>  -28.8236    1.0000 </r>
       <r>  -28.7546    1.0000 </r>
       <r>  -28.7179    1.0000 </r>
       <r>  -28.5707    1.0000 </r>
       <r>  -28.4473    1.0000 </r>
       <r>  -28.4445    1.0000 </r>
       <r>  -28.2749    1.0000 </r>
       <r>   -2.7088    1.0000 </r>
       <r>   -1.6886    1.0000 </r>
       <r>   -1.3846    1.0000 </r>
       <r>   -1.0264    1.0000 </r>
       <r>    0.5428    1.0000 </r>
       <r>    0.9011    1.0000 </r>
       <r>    2.2410    1.0000 </r>
       <r>    2.4980    1.0000 </r>
       <r>    2.5471    1.0000 </r>
       <r>    2.8247    1.0000 </r>
       <r>    2.9714    1.0000 </r>
       <r>    3.5861    1.0000 </r>
       <r>    3.5957    1.0000 </r>
       <r>    3.7770    1.0000 </r>
       <r>    3.9984    1.0000 </r>
       <r>    4.0664    1.0000 </r>
       <r>    4.1722    1.0000 </r>
       <r>    4.2741    1.0000 </r>
       <r>    4.4350    1.0000 </r>
       <r>    5.6381    1.0000 </r>
       <r>    6.0682    1.0000 </r>
       <r>    6.0794    1.0000 </r>
       <r>    6.4964    1.0000 </r>
       <r>    6.8863    1.0000 </r>
       <r>    7.7282    0.0000 </r>
       <r>    8.1442    0.0000 </r>
       <r>    8.8784    0.0000 </r>
       <r>    9.5989    0.0000 </r>
       <r>    9.9242    0.0000 </r>
       <r>   10.3610    0.0000 </r>
       <r>   10.8926    0.0000 </r>
       <r>   11.0168    0.0000 </r>
      </set>
      <set comment="kpoint 14">
       <r>  -55.1796    1.0000 </r>
       <r>  -55.0799    1.0000 </r>
       <r>  -55.0781    1.0000 </r>
       <r>  -54.9895    1.0000 </r>
       <r>  -29.1286    1.0000 </r>
       <r>  -29.0756    1.0000 </r>
       <r>  -29.0281    1.0000 </r>
       <r>  -28.9823    1.0000 </r>
       <r>  -28.8058    1.0000 </r>
       <r>  -28.7654    1.0000 </r>
       <r>  -28.7230    1.0000 </r>
       <r>  -28.6979    1.0000 </r>
       <r>  -28.5719    1.0000 </r>
       <r>  -28.4466    1.0000 </r>
       <r>  -28.4450    1.0000 </r>
       <r>  -28.2737    1.0000 </r>
       <r>   -3.2058    1.0000 </r>
       <r>   -1.5784    1.0000 </r>
       <r>   -0.9872    1.0000 </r>
       <r>   -0.9612    1.0000 </r>
       <r>    0.4775    1.0000 </r>
       <r>    1.0455    1.0000 </r>
       <r>    1.9894    1.0000 </r>
       <r>    2.0860    1.0000 </r>
       <r>    2.2713    1.0000 </r>
       <r>    2.8470    1.0000 </r>
       <r>    3.3455    1.0000 </r>
       <r>    3.4211    1.0000 </r>
       <r>    3.7250    1.0000 </r>
       <r>    3.8392    1.0000 </r>
       <r>    3.9580    1.0000 </r>
       <r>    4.2114    1.0000 </r>
       <r>    4.3253    1.0000 </r>
       <r>    4.4386    1.0000 </r>
       <r>    4.6615    1.0000 </r>
       <r>    5.4213    1.0000 </r>
       <r>    6.0999    1.0000 </r>
       <r>    6.5714    1.0000 </r>
       <r>    6.6451    1.0000 </r>
       <r>    7.1173    0.9986 </r>
       <r>    7.8660    0.0000 </r>
       <r>    8.2180    0.0000 </r>
       <r>    8.8765    0.0000 </r>
       <r>    9.5310    0.0000 </r>
       <r>    9.8096    0.0000 </r>
       <r>   10.0456    0.0000 </r>
       <r>   10.6138    0.0000 </r>
       <r>   10.9175    0.0000 </r>
      </set>
      <set comment="kpoint 15">
       <r>  -55.1771    1.0000 </r>
       <r>  -55.0789    1.0000 </r>
       <r>  -55.0786    1.0000 </r>
       <r>  -54.9927    1.0000 </r>
       <r>  -29.0400    1.0000 </r>
       <r>  -28.9709    1.0000 </r>
       <r>  -28.9366    1.0000 </r>
       <r>  -28.9164    1.0000 </r>
       <r>  -28.9114    1.0000 </r>
       <r>  -28.8262    1.0000 </r>
       <r>  -28.8184    1.0000 </r>
       <r>  -28.7988    1.0000 </r>
       <r>  -28.5694    1.0000 </r>
       <r>  -28.4467    1.0000 </r>
       <r>  -28.4454    1.0000 </r>
       <r>  -28.2760    1.0000 </r>
       <r>   -1.9577    1.0000 </r>
       <r>   -1.9194    1.0000 </r>
       <r>   -1.5985    1.0000 </r>
       <r>   -1.2526    1.0000 </r>
       <r>    0.6649    1.0000 </r>
       <r>    0.8261    1.0000 </r>
       <r>    2.4785    1.0000 </r>
       <r>    2.5744    1.0000 </r>
       <r>    2.5808    1.0000 </r>
       <r>    2.7242    1.0000 </r>
       <r>    3.0572    1.0000 </r>
       <r>    3.3716    1.0000 </r>
       <r>    3.6564    1.0000 </r>
       <r>    3.7376    1.0000 </r>
       <r>    3.7739    1.0000 </r>
       <r>    3.9010    1.0000 </r>
       <r>    3.9731    1.0000 </r>
       <r>    4.2345    1.0000 </r>
       <r>    4.7756    1.0000 </r>
       <r>    5.4247    1.0000 </r>
       <r>    5.9100    1.0000 </r>
       <r>    6.0321    1.0000 </r>
       <r>    6.1388    1.0000 </r>
       <r>    6.4805    1.0000 </r>
       <r>    7.7023    0.0000 </r>
       <r>    8.2277    0.0000 </r>
       <r>    8.8187    0.0000 </r>
       <r>    9.6092    0.0000 </r>
       <r>    9.9762    0.0000 </r>
       <r>   11.0405    0.0000 </r>
       <r>   11.3657    0.0000 </r>
       <r>   11.3916    0.0000 </r>
      </set>
      <set comment="kpoint 16">
       <r>  -55.1771    1.0000 </r>
       <r>  -55.0789    1.0000 </r>
       <r>  -55.0786    1.0000 </r>
       <r>  -54.9927    1.0000 </r>
       <r>  -29.0354    1.0000 </r>
       <r>  -28.9732    1.0000 </r>
       <r>  -28.9633    1.0000 </r>
       <r>  -28.8970    1.0000 </r>
       <r>  -28.8877    1.0000 </r>
       <r>  -28.8525    1.0000 </r>
       <r>  -28.8189    1.0000 </r>
       <r>  -28.7905    1.0000 </r>
       <r>  -28.5694    1.0000 </r>
       <r>  -28.4468    1.0000 </r>
       <r>  -28.4453    1.0000 </r>
       <r>  -28.2760    1.0000 </r>
       <r>   -2.3295    1.0000 </r>
       <r>   -1.5580    1.0000 </r>
       <r>   -1.4089    1.0000 </r>
       <r>   -1.3670    1.0000 </r>
       <r>    0.6015    1.0000 </r>
       <r>    0.8859    1.0000 </r>
       <r>    2.4546    1.0000 </r>
       <r>    2.5252    1.0000 </r>
       <r>    2.5388    1.0000 </r>
       <r>    2.7150    1.0000 </r>
       <r>    3.0290    1.0000 </r>
       <r>    3.2301    1.0000 </r>
       <r>    3.7489    1.0000 </r>
       <r>    3.8161    1.0000 </r>
       <r>    3.9109    1.0000 </r>
       <r>    4.0112    1.0000 </r>
       <r>    4.1183    1.0000 </r>
       <r>    4.1895    1.0000 </r>
       <r>    4.4161    1.0000 </r>
       <r>    5.5876    1.0000 </r>
       <r>    5.7748    1.0000 </r>
       <r>    5.9190    1.0000 </r>
       <r>    6.1046    1.0000 </r>
       <r>    6.5425    1.0000 </r>
       <r>    7.8165    0.0000 </r>
       <r>    8.4400    0.0000 </r>
       <r>    8.7714    0.0000 </r>
       <r>    9.5748    0.0000 </r>
       <r>    9.8925    0.0000 </r>
       <r>   11.0563    0.0000 </r>
       <r>   11.2383    0.0000 </r>
       <r>   11.6948    0.0000 </r>
      </set>
      <set comment="kpoint 17">
       <r>  -55.1832    1.0000 </r>
       <r>  -55.0810    1.0000 </r>
       <r>  -55.0773    1.0000 </r>
       <r>  -54.9855    1.0000 </r>
       <r>  -29.2076    1.0000 </r>
       <r>  -29.1595    1.0000 </r>
       <r>  -29.0691    1.0000 </r>
       <r>  -29.0505    1.0000 </r>
       <r>  -28.7416    1.0000 </r>
       <r>  -28.6860    1.0000 </r>
       <r>  -28.6471    1.0000 </r>
       <r>  -28.6292    1.0000 </r>
       <r>  -28.5753    1.0000 </r>
       <r>  -28.4464    1.0000 </r>
       <r>  -28.4446    1.0000 </r>
       <r>  -28.2707    1.0000 </r>
       <r>   -3.8995    1.0000 </r>
       <r>   -1.9804    1.0000 </r>
       <r>   -0.1394    1.0000 </r>
       <r>   -0.0597    1.0000 </r>
       <r>    0.4091    1.0000 </r>
       <r>    1.3166    1.0000 </r>
       <r>    1.4133    1.0000 </r>
       <r>    1.4201    1.0000 </r>
       <r>    2.0492    1.0000 </r>
       <r>    2.4794    1.0000 </r>
       <r>    2.5745    1.0000 </r>
       <r>    3.2970    1.0000 </r>
       <r>    3.3202    1.0000 </r>
       <r>    3.8032    1.0000 </r>
       <r>    4.5430    1.0000 </r>
       <r>    4.8090    1.0000 </r>
       <r>    4.8595    1.0000 </r>
       <r>    5.1189    1.0000 </r>
       <r>    5.2068    1.0000 </r>
       <r>    5.6350    1.0000 </r>
       <r>    6.5262    1.0000 </r>
       <r>    7.3312    0.0000 </r>
       <r>    7.4996    0.0000 </r>
       <r>    7.5880    0.0000 </r>
       <r>    7.8184    0.0000 </r>
       <r>    8.0304    0.0000 </r>
       <r>    9.2555    0.0000 </r>
       <r>    9.3413    0.0000 </r>
       <r>    9.5885    0.0000 </r>
       <r>    9.6610    0.0000 </r>
       <r>   10.0024    0.0000 </r>
       <r>   10.5157    0.0000 </r>
      </set>
      <set comment="kpoint 18">
       <r>  -55.1816    1.0000 </r>
       <r>  -55.0813    1.0000 </r>
       <r>  -55.0770    1.0000 </r>
       <r>  -54.9872    1.0000 </r>
       <r>  -29.1847    1.0000 </r>
       <r>  -29.1182    1.0000 </r>
       <r>  -29.0614    1.0000 </r>
       <r>  -29.0047    1.0000 </r>
       <r>  -28.7884    1.0000 </r>
       <r>  -28.7196    1.0000 </r>
       <r>  -28.6762    1.0000 </r>
       <r>  -28.6446    1.0000 </r>
       <r>  -28.5739    1.0000 </r>
       <r>  -28.4472    1.0000 </r>
       <r>  -28.4440    1.0000 </r>
       <r>  -28.2721    1.0000 </r>
       <r>   -3.5769    1.0000 </r>
       <r>   -1.7626    1.0000 </r>
       <r>   -0.9936    1.0000 </r>
       <r>   -0.2715    1.0000 </r>
       <r>    0.4522    1.0000 </r>
       <r>    1.1355    1.0000 </r>
       <r>    1.4322    1.0000 </r>
       <r>    2.0274    1.0000 </r>
       <r>    2.2489    1.0000 </r>
       <r>    2.7147    1.0000 </r>
       <r>    2.8746    1.0000 </r>
       <r>    3.4774    1.0000 </r>
       <r>    3.8149    1.0000 </r>
       <r>    4.0061    1.0000 </r>
       <r>    4.0472    1.0000 </r>
       <r>    4.3032    1.0000 </r>
       <r>    4.4839    1.0000 </r>
       <r>    4.9715    1.0000 </r>
       <r>    5.0608    1.0000 </r>
       <r>    5.3112    1.0000 </r>
       <r>    6.4112    1.0000 </r>
       <r>    6.8179    1.0000 </r>
       <r>    7.3523    0.0000 </r>
       <r>    7.4233    0.0000 </r>
       <r>    7.8307    0.0000 </r>
       <r>    7.8921    0.0000 </r>
       <r>    9.1447    0.0000 </r>
       <r>    9.6242    0.0000 </r>
       <r>    9.6560    0.0000 </r>
       <r>    9.8049    0.0000 </r>
       <r>   10.1674    0.0000 </r>
       <r>   10.4891    0.0000 </r>
      </set>
      <set comment="kpoint 19">
       <r>  -55.1801    1.0000 </r>
       <r>  -55.0824    1.0000 </r>
       <r>  -55.0758    1.0000 </r>
       <r>  -54.9889    1.0000 </r>
       <r>  -29.1698    1.0000 </r>
       <r>  -29.0938    1.0000 </r>
       <r>  -29.0046    1.0000 </r>
       <r>  -28.9224    1.0000 </r>
       <r>  -28.8784    1.0000 </r>
       <r>  -28.7989    1.0000 </r>
       <r>  -28.6856    1.0000 </r>
       <r>  -28.6508    1.0000 </r>
       <r>  -28.5725    1.0000 </r>
       <r>  -28.4485    1.0000 </r>
       <r>  -28.4429    1.0000 </r>
       <r>  -28.2733    1.0000 </r>
       <r>   -3.0282    1.0000 </r>
       <r>   -1.8885    1.0000 </r>
       <r>   -1.3900    1.0000 </r>
       <r>   -0.7236    1.0000 </r>
       <r>    0.5349    1.0000 </r>
       <r>    0.8724    1.0000 </r>
       <r>    1.9570    1.0000 </r>
       <r>    2.4629    1.0000 </r>
       <r>    2.6349    1.0000 </r>
       <r>    2.8773    1.0000 </r>
       <r>    3.1160    1.0000 </r>
       <r>    3.2162    1.0000 </r>
       <r>    3.7123    1.0000 </r>
       <r>    3.8129    1.0000 </r>
       <r>    3.8933    1.0000 </r>
       <r>    4.2845    1.0000 </r>
       <r>    4.4846    1.0000 </r>
       <r>    4.5964    1.0000 </r>
       <r>    4.7922    1.0000 </r>
       <r>    5.4274    1.0000 </r>
       <r>    6.3406    1.0000 </r>
       <r>    6.5338    1.0000 </r>
       <r>    7.1035    1.0000 </r>
       <r>    7.2966    0.0000 </r>
       <r>    7.5565    0.0000 </r>
       <r>    7.7203    0.0000 </r>
       <r>    9.2154    0.0000 </r>
       <r>    9.6261    0.0000 </r>
       <r>    9.7421    0.0000 </r>
       <r>    9.8651    0.0000 </r>
       <r>   10.3927    0.0000 </r>
       <r>   10.4368    0.0000 </r>
      </set>
      <set comment="kpoint 20">
       <r>  -55.1799    1.0000 </r>
       <r>  -55.0825    1.0000 </r>
       <r>  -55.0756    1.0000 </r>
       <r>  -54.9891    1.0000 </r>
       <r>  -29.1676    1.0000 </r>
       <r>  -29.0935    1.0000 </r>
       <r>  -28.9837    1.0000 </r>
       <r>  -28.9020    1.0000 </r>
       <r>  -28.8964    1.0000 </r>
       <r>  -28.8242    1.0000 </r>
       <r>  -28.6866    1.0000 </r>
       <r>  -28.6510    1.0000 </r>
       <r>  -28.5724    1.0000 </r>
       <r>  -28.4487    1.0000 </r>
       <r>  -28.4428    1.0000 </r>
       <r>  -28.2734    1.0000 </r>
       <r>   -2.7154    1.0000 </r>
       <r>   -2.2554    1.0000 </r>
       <r>   -1.2338    1.0000 </r>
       <r>   -0.9250    1.0000 </r>
       <r>    0.6422    1.0000 </r>
       <r>    0.6893    1.0000 </r>
       <r>    2.1453    1.0000 </r>
       <r>    2.5153    1.0000 </r>
       <r>    2.8574    1.0000 </r>
       <r>    2.8840    1.0000 </r>
       <r>    3.1171    1.0000 </r>
       <r>    3.2779    1.0000 </r>
       <r>    3.4409    1.0000 </r>
       <r>    3.5855    1.0000 </r>
       <r>    3.7997    1.0000 </r>
       <r>    4.2099    1.0000 </r>
       <r>    4.4934    1.0000 </r>
       <r>    4.8075    1.0000 </r>
       <r>    5.0233    1.0000 </r>
       <r>    5.4938    1.0000 </r>
       <r>    6.3321    1.0000 </r>
       <r>    6.6185    1.0000 </r>
       <r>    7.0108    1.0000 </r>
       <r>    7.1134    0.9994 </r>
       <r>    7.3601    0.0000 </r>
       <r>    7.6174    0.0000 </r>
       <r>    9.2839    0.0000 </r>
       <r>    9.7242    0.0000 </r>
       <r>    9.8554    0.0000 </r>
       <r>    9.9597    0.0000 </r>
       <r>   10.1841    0.0000 </r>
       <r>   10.3313    0.0000 </r>
      </set>
      <set comment="kpoint 21">
       <r>  -55.1812    1.0000 </r>
       <r>  -55.0816    1.0000 </r>
       <r>  -55.0766    1.0000 </r>
       <r>  -54.9877    1.0000 </r>
       <r>  -29.1792    1.0000 </r>
       <r>  -29.1056    1.0000 </r>
       <r>  -29.0605    1.0000 </r>
       <r>  -28.9844    1.0000 </r>
       <r>  -28.8033    1.0000 </r>
       <r>  -28.7396    1.0000 </r>
       <r>  -28.6815    1.0000 </r>
       <r>  -28.6455    1.0000 </r>
       <r>  -28.5736    1.0000 </r>
       <r>  -28.4475    1.0000 </r>
       <r>  -28.4438    1.0000 </r>
       <r>  -28.2724    1.0000 </r>
       <r>   -3.3429    1.0000 </r>
       <r>   -1.6609    1.0000 </r>
       <r>   -1.3742    1.0000 </r>
       <r>   -0.4785    1.0000 </r>
       <r>    0.5204    1.0000 </r>
       <r>    0.8623    1.0000 </r>
       <r>    1.6049    1.0000 </r>
       <r>    2.1183    1.0000 </r>
       <r>    2.6320    1.0000 </r>
       <r>    2.7304    1.0000 </r>
       <r>    2.9559    1.0000 </r>
       <r>    3.5028    1.0000 </r>
       <r>    3.6186    1.0000 </r>
       <r>    3.9358    1.0000 </r>
       <r>    3.9911    1.0000 </r>
       <r>    4.1386    1.0000 </r>
       <r>    4.8659    1.0000 </r>
       <r>    4.9013    1.0000 </r>
       <r>    5.1459    1.0000 </r>
       <r>    5.3230    1.0000 </r>
       <r>    6.6953    1.0000 </r>
       <r>    6.8077    1.0000 </r>
       <r>    6.9309    1.0000 </r>
       <r>    7.3261    0.0000 </r>
       <r>    7.4574    0.0000 </r>
       <r>    7.6394    0.0000 </r>
       <r>    9.4679    0.0000 </r>
       <r>    9.6656    0.0000 </r>
       <r>    9.8239    0.0000 </r>
       <r>    9.8552    0.0000 </r>
       <r>    9.9856    0.0000 </r>
       <r>   10.4180    0.0000 </r>
      </set>
      <set comment="kpoint 22">
[...]
       <r>  -54.9846    1.0000 </r>
       <r>  -29.2211    1.0000 </r>
       <r>  -29.1748    1.0000 </r>
       <r>  -29.0786    1.0000 </r>
       <r>  -29.0590    1.0000 </r>
       <r>  -28.7276    1.0000 </r>
       <r>  -28.6751    1.0000 </r>
       <r>  -28.6345    1.0000 </r>
       <r>  -28.6166    1.0000 </r>
       <r>  -28.5765    1.0000 </r>
       <r>  -28.4455    1.0000 </r>
       <r>  -28.4449    1.0000 </r>
       <r>  -28.2701    1.0000 </r>
       <r>   -3.6662    1.0000 </r>
       <r>   -1.9934    1.0000 </r>
       <r>   -0.5735    1.0000 </r>
       <r>    0.0240    1.0000 </r>
       <r>    0.4761    1.0000 </r>
       <r>    0.5068    1.0000 </r>
       <r>    0.9438    1.0000 </r>
       <r>    1.3527    1.0000 </r>
       <r>    2.5298    1.0000 </r>
       <r>    3.0324    1.0000 </r>
       <r>    3.0760    1.0000 </r>
       <r>    3.1191    1.0000 </r>
       <r>    3.1609    1.0000 </r>
       <r>    3.6640    1.0000 </r>
       <r>    3.9930    1.0000 </r>
       <r>    4.0859    1.0000 </r>
       <r>    5.9101    1.0000 </r>
       <r>    5.9353    1.0000 </r>
       <r>    6.0682    1.0000 </r>
       <r>    6.7266    1.0000 </r>
       <r>    6.8217    1.0000 </r>
       <r>    7.0996    1.0000 </r>
       <r>    7.1712    0.2023 </r>
       <r>    7.6691    0.0000 </r>
       <r>    7.9831    0.0000 </r>
       <r>    8.1165    0.0000 </r>
       <r>    8.1725    0.0000 </r>
       <r>    8.1749    0.0000 </r>
       <r>    8.7106    0.0000 </r>
       <r>    8.7542    0.0000 </r>
       <r>    9.7923    0.0000 </r>
       <r>   10.1308    0.0000 </r>
      </set>
      <set comment="kpoint 116">
       <r>  -55.1839    1.0000 </r>
       <r>  -55.0813    1.0000 </r>
       <r>  -55.0771    1.0000 </r>
       <r>  -54.9846    1.0000 </r>
       <r>  -29.2209    1.0000 </r>
       <r>  -29.1748    1.0000 </r>
       <r>  -29.0800    1.0000 </r>
       <r>  -29.0579    1.0000 </r>
       <r>  -28.7265    1.0000 </r>
       <r>  -28.6765    1.0000 </r>
       <r>  -28.6346    1.0000 </r>
       <r>  -28.6161    1.0000 </r>
       <r>  -28.5766    1.0000 </r>
       <r>  -28.4456    1.0000 </r>
       <r>  -28.4448    1.0000 </r>
       <r>  -28.2701    1.0000 </r>
       <r>   -3.6459    1.0000 </r>
       <r>   -1.9894    1.0000 </r>
       <r>   -0.6016    1.0000 </r>
       <r>   -0.0126    1.0000 </r>
       <r>    0.4792    1.0000 </r>
       <r>    0.5108    1.0000 </r>
       <r>    0.9341    1.0000 </r>
       <r>    1.3520    1.0000 </r>
       <r>    2.5209    1.0000 </r>
       <r>    3.0602    1.0000 </r>
       <r>    3.1114    1.0000 </r>
       <r>    3.1419    1.0000 </r>
       <r>    3.1909    1.0000 </r>
       <r>    3.6263    1.0000 </r>
       <r>    3.9335    1.0000 </r>
       <r>    4.0846    1.0000 </r>
       <r>    5.9122    1.0000 </r>
       <r>    5.9212    1.0000 </r>
       <r>    6.1199    1.0000 </r>
       <r>    6.6907    1.0000 </r>
       <r>    6.8035    1.0000 </r>
       <r>    7.1076    0.9999 </r>
       <r>    7.3186    0.0000 </r>
       <r>    7.7981    0.0000 </r>
       <r>    7.8663    0.0000 </r>
       <r>    8.1291    0.0000 </r>
       <r>    8.1754    0.0000 </r>
       <r>    8.2856    0.0000 </r>
       <r>    8.5360    0.0000 </r>
       <r>    8.5869    0.0000 </r>
       <r>    9.7316    0.0000 </r>
       <r>   10.1406    0.0000 </r>
      </set>
     </set>
    </set>
   </array>
  </eigenvalues>
  <separator name="orbital magnetization" >
   <v name="MAGDIPOLOUT">      0.00000000      0.00000000      0.00000000</v>
  </separator>
  <dos>
   <i name="efermi">      7.15946243 </i>
   <total>
    <array>
     <dimension dim="1">gridpoints</dimension>
     <dimension dim="2">spin</dimension>
     <field>energy</field>
     <field>total</field>
     <field>integrated</field>
     <set>
      <set comment="spin 1">
       <r>   -58.5468     0.0000     0.0000 </r>
       <r>   -58.3002     0.0000     0.0000 </r>
       <r>   -58.0537     0.0000     0.0000 </r>
       <r>   -57.8071     0.0000     0.0000 </r>
       <r>   -57.5605     0.0000     0.0000 </r>
       <r>   -57.3139     0.0000     0.0000 </r>
       <r>   -57.0673     0.0000     0.0000 </r>
       <r>   -56.8207     0.0000     0.0000 </r>
       <r>   -56.5741     0.0000     0.0000 </r>
       <r>   -56.3275     0.0000     0.0000 </r>
       <r>   -56.0810     0.0000     0.0000 </r>
       <r>   -55.8344     0.0000     0.0000 </r>
       <r>   -55.5878     0.0000     0.0000 </r>
       <r>   -55.3412     0.0000     0.0000 </r>
       <r>   -55.0946    10.3641     2.5557 </r>
       <r>   -54.8480     8.1107     8.0000 </r>
       <r>   -54.6014     0.0000     8.0000 </r>
       <r>   -54.3548     0.0000     8.0000 </r>
       <r>   -54.1083     0.0000     8.0000 </r>
       <r>   -53.8617     0.0000     8.0000 </r>
       <r>   -53.6151     0.0000     8.0000 </r>
       <r>   -53.3685     0.0000     8.0000 </r>
       <r>   -53.1219     0.0000     8.0000 </r>
       <r>   -52.8753     0.0000     8.0000 </r>
       <r>   -52.6287     0.0000     8.0000 </r>
       <r>   -52.3821     0.0000     8.0000 </r>
       <r>   -52.1356     0.0000     8.0000 </r>
       <r>   -51.8890     0.0000     8.0000 </r>
       <r>   -51.6424     0.0000     8.0000 </r>
       <r>   -51.3958     0.0000     8.0000 </r>
       <r>   -51.1492     0.0000     8.0000 </r>
       <r>   -50.9026     0.0000     8.0000 </r>
       <r>   -50.6560     0.0000     8.0000 </r>
       <r>   -50.4094     0.0000     8.0000 </r>
       <r>   -50.1628     0.0000     8.0000 </r>
       <r>   -49.9163     0.0000     8.0000 </r>
       <r>   -49.6697     0.0000     8.0000 </r>
       <r>   -49.4231     0.0000     8.0000 </r>
       <r>   -49.1765     0.0000     8.0000 </r>
       <r>   -48.9299     0.0000     8.0000 </r>
       <r>   -48.6833     0.0000     8.0000 </r>
       <r>   -48.4367     0.0000     8.0000 </r>
       <r>   -48.1901     0.0000     8.0000 </r>
       <r>   -47.9436     0.0000     8.0000 </r>
       <r>   -47.6970     0.0000     8.0000 </r>
       <r>   -47.4504     0.0000     8.0000 </r>
       <r>   -47.2038     0.0000     8.0000 </r>
       <r>   -46.9572     0.0000     8.0000 </r>
       <r>   -46.7106     0.0000     8.0000 </r>
       <r>   -46.4640     0.0000     8.0000 </r>
       <r>   -46.2174     0.0000     8.0000 </r>
       <r>   -45.9709     0.0000     8.0000 </r>
       <r>   -45.7243     0.0000     8.0000 </r>
       <r>   -45.4777     0.0000     8.0000 </r>
       <r>   -45.2311     0.0000     8.0000 </r>
       <r>   -44.9845     0.0000     8.0000 </r>
       <r>   -44.7379     0.0000     8.0000 </r>
       <r>   -44.4913     0.0000     8.0000 </r>
       <r>   -44.2447     0.0000     8.0000 </r>
       <r>   -43.9982     0.0000     8.0000 </r>
       <r>   -43.7516     0.0000     8.0000 </r>
       <r>   -43.5050     0.0000     8.0000 </r>
       <r>   -43.2584     0.0000     8.0000 </r>
       <r>   -43.0118     0.0000     8.0000 </r>
       <r>   -42.7652     0.0000     8.0000 </r>
       <r>   -42.5186     0.0000     8.0000 </r>
       <r>   -42.2720     0.0000     8.0000 </r>
       <r>   -42.0254     0.0000     8.0000 </r>
       <r>   -41.7789     0.0000     8.0000 </r>
       <r>   -41.5323     0.0000     8.0000 </r>
       <r>   -41.2857     0.0000     8.0000 </r>
       <r>   -41.0391     0.0000     8.0000 </r>
       <r>   -40.7925     0.0000     8.0000 </r>
       <r>   -40.5459     0.0000     8.0000 </r>
       <r>   -40.2993     0.0000     8.0000 </r>
       <r>   -40.0527     0.0000     8.0000 </r>
       <r>   -39.8062     0.0000     8.0000 </r>
       <r>   -39.5596     0.0000     8.0000 </r>
       <r>   -39.3130     0.0000     8.0000 </r>
       <r>   -39.0664     0.0000     8.0000 </r>
       <r>   -38.8198     0.0000     8.0000 </r>
       <r>   -38.5732     0.0000     8.0000 </r>
       <r>   -38.3266     0.0000     8.0000 </r>
       <r>   -38.0800     0.0000     8.0000 </r>
       <r>   -37.8335     0.0000     8.0000 </r>
       <r>   -37.5869     0.0000     8.0000 </r>
       <r>   -37.3403     0.0000     8.0000 </r>
       <r>   -37.0937     0.0000     8.0000 </r>
       <r>   -36.8471     0.0000     8.0000 </r>
       <r>   -36.6005     0.0000     8.0000 </r>
       <r>   -36.3539     0.0000     8.0000 </r>
       <r>   -36.1073     0.0000     8.0000 </r>
       <r>   -35.8608     0.0000     8.0000 </r>
       <r>   -35.6142     0.0000     8.0000 </r>
       <r>   -35.3676     0.0000     8.0000 </r>
       <r>   -35.1210     0.0000     8.0000 </r>
       <r>   -34.8744     0.0000     8.0000 </r>
       <r>   -34.6278     0.0000     8.0000 </r>
       <r>   -34.3812     0.0000     8.0000 </r>
       <r>   -34.1346     0.0000     8.0000 </r>
       <r>   -33.8880     0.0000     8.0000 </r>
       <r>   -33.6415     0.0000     8.0000 </r>
       <r>   -33.3949     0.0000     8.0000 </r>
       <r>   -33.1483     0.0000     8.0000 </r>
       <r>   -32.9017     0.0000     8.0000 </r>
       <r>   -32.6551     0.0000     8.0000 </r>
       <r>   -32.4085     0.0000     8.0000 </r>
       <r>   -32.1619     0.0000     8.0000 </r>
       <r>   -31.9153     0.0000     8.0000 </r>
       <r>   -31.6688     0.0000     8.0000 </r>
       <r>   -31.4222     0.0000     8.0000 </r>
       <r>   -31.1756     0.0000     8.0000 </r>
       <r>   -30.9290     0.0000     8.0000 </r>
       <r>   -30.6824     0.0000     8.0000 </r>
       <r>   -30.4358     0.0000     8.0000 </r>
       <r>   -30.1892     0.0000     8.0000 </r>
       <r>   -29.9426     0.0000     8.0000 </r>
       <r>   -29.6961     0.0000     8.0000 </r>
       <r>   -29.4495     0.0000     8.0000 </r>
       <r>   -29.2029     1.3927     8.3434 </r>
       <r>   -28.9563    18.5523    14.7482 </r>
       <r>   -28.7097    16.1590    20.6632 </r>
       <r>   -28.4631    10.5912    26.4433 </r>
       <r>   -28.2165     8.1104    31.9999 </r>
       <r>   -27.9699     0.0000    32.0000 </r>
       <r>   -27.7234     0.0000    32.0000 </r>
       <r>   -27.4768     0.0000    32.0000 </r>
       <r>   -27.2302     0.0000    32.0000 </r>
       <r>   -26.9836     0.0000    32.0000 </r>
       <r>   -26.7370     0.0000    32.0000 </r>
       <r>   -26.4904     0.0000    32.0000 </r>
       <r>   -26.2438     0.0000    32.0000 </r>
       <r>   -25.9972     0.0000    32.0000 </r>
       <r>   -25.7506     0.0000    32.0000 </r>
       <r>   -25.5041     0.0000    32.0000 </r>
       <r>   -25.2575     0.0000    32.0000 </r>
       <r>   -25.0109     0.0000    32.0000 </r>
       <r>   -24.7643     0.0000    32.0000 </r>
       <r>   -24.5177     0.0000    32.0000 </r>
       <r>   -24.2711     0.0000    32.0000 </r>
       <r>   -24.0245     0.0000    32.0000 </r>
       <r>   -23.7779     0.0000    32.0000 </r>
       <r>   -23.5314     0.0000    32.0000 </r>
       <r>   -23.2848     0.0000    32.0000 </r>
       <r>   -23.0382     0.0000    32.0000 </r>
       <r>   -22.7916     0.0000    32.0000 </r>
       <r>   -22.5450     0.0000    32.0000 </r>
       <r>   -22.2984     0.0000    32.0000 </r>
       <r>   -22.0518     0.0000    32.0000 </r>
       <r>   -21.8052     0.0000    32.0000 </r>
       <r>   -21.5587     0.0000    32.0000 </r>
       <r>   -21.3121     0.0000    32.0000 </r>
       <r>   -21.0655     0.0000    32.0000 </r>
       <r>   -20.8189     0.0000    32.0000 </r>
       <r>   -20.5723     0.0000    32.0000 </r>
       <r>   -20.3257     0.0000    32.0000 </r>
       <r>   -20.0791     0.0000    32.0000 </r>
       <r>   -19.8325     0.0000    32.0000 </r>
       <r>   -19.5860     0.0000    32.0000 </r>
       <r>   -19.3394     0.0000    32.0000 </r>
       <r>   -19.0928     0.0000    32.0000 </r>
       <r>   -18.8462     0.0000    32.0000 </r>
       <r>   -18.5996     0.0000    32.0000 </r>
       <r>   -18.3530     0.0000    32.0000 </r>
       <r>   -18.1064     0.0000    32.0000 </r>
       <r>   -17.8598     0.0000    32.0000 </r>
       <r>   -17.6132     0.0000    32.0000 </r>
       <r>   -17.3667     0.0000    32.0000 </r>
       <r>   -17.1201     0.0000    32.0000 </r>
       <r>   -16.8735     0.0000    32.0000 </r>
       <r>   -16.6269     0.0000    32.0000 </r>
       <r>   -16.3803     0.0000    32.0000 </r>
       <r>   -16.1337     0.0000    32.0000 </r>
       <r>   -15.8871     0.0000    32.0000 </r>
       <r>   -15.6405     0.0000    32.0000 </r>
       <r>   -15.3940     0.0000    32.0000 </r>
       <r>   -15.1474     0.0000    32.0000 </r>
       <r>   -14.9008     0.0000    32.0000 </r>
       <r>   -14.6542     0.0000    32.0000 </r>
       <r>   -14.4076     0.0000    32.0000 </r>
       <r>   -14.1610     0.0000    32.0000 </r>
       <r>   -13.9144     0.0000    32.0000 </r>
       <r>   -13.6678     0.0000    32.0000 </r>
       <r>   -13.4213     0.0000    32.0000 </r>
       <r>   -13.1747     0.0000    32.0000 </r>
       <r>   -12.9281     0.0000    32.0000 </r>
       <r>   -12.6815     0.0000    32.0000 </r>
       <r>   -12.4349     0.0000    32.0000 </r>
       <r>   -12.1883     0.0000    32.0000 </r>
       <r>   -11.9417     0.0000    32.0000 </r>
       <r>   -11.6951     0.0000    32.0000 </r>
       <r>   -11.4486     0.0000    32.0000 </r>
       <r>   -11.2020     0.0000    32.0000 </r>
       <r>   -10.9554     0.0000    32.0000 </r>
       <r>   -10.7088     0.0000    32.0000 </r>
       <r>   -10.4622     0.0000    32.0000 </r>
       <r>   -10.2156     0.0000    32.0000 </r>
       <r>    -9.9690     0.0000    32.0000 </r>
       <r>    -9.7224     0.0000    32.0000 </r>
       <r>    -9.4758     0.0000    32.0000 </r>
       <r>    -9.2293     0.0000    32.0000 </r>
       <r>    -8.9827     0.0000    32.0000 </r>
       <r>    -8.7361     0.0000    32.0000 </r>
       <r>    -8.4895     0.0000    32.0000 </r>
       <r>    -8.2429     0.0000    32.0000 </r>
       <r>    -7.9963     0.0000    32.0000 </r>
       <r>    -7.7497     0.0000    32.0000 </r>
       <r>    -7.5031     0.0000    32.0000 </r>
       <r>    -7.2566     0.0000    32.0000 </r>
       <r>    -7.0100     0.0000    32.0000 </r>
       <r>    -6.7634     0.0000    32.0000 </r>
       <r>    -6.5168     0.0000    32.0000 </r>
       <r>    -6.2702     0.0000    32.0000 </r>
       <r>    -6.0236     0.0000    32.0000 </r>
       <r>    -5.7770     0.0000    32.0000 </r>
       <r>    -5.5304     0.0000    32.0000 </r>
       <r>    -5.2839     0.0000    32.0000 </r>
       <r>    -5.0373     0.0000    32.0000 </r>
       <r>    -4.7907     0.0000    32.0000 </r>
       <r>    -4.5441     0.0000    32.0000 </r>
       <r>    -4.2975     0.0000    32.0000 </r>
       <r>    -4.0509     0.0198    32.0049 </r>
       <r>    -3.8043     0.3488    32.1217 </r>
       <r>    -3.5577     0.7668    32.3881 </r>
       <r>    -3.3112     0.7415    32.6675 </r>
       <r>    -3.0646     0.9563    32.9450 </r>
       <r>    -2.8180     0.6223    33.2504 </r>
       <r>    -2.5714     1.1220    33.5879 </r>
       <r>    -2.3248     0.9979    33.9348 </r>
       <r>    -2.0782     0.8740    34.2818 </r>
       <r>    -1.8316     2.1682    35.0091 </r>
       <r>    -1.5850     2.0306    35.8834 </r>
       <r>    -1.3384     3.2732    36.9908 </r>
       <r>    -1.0919     2.5651    37.8978 </r>
       <r>    -0.8453     1.7953    38.6672 </r>
       <r>    -0.5987     0.8103    39.0059 </r>
       <r>    -0.3521     0.7439    39.3671 </r>
       <r>    -0.1055     1.0961    39.7193 </r>
       <r>     0.1411     0.5192    39.8729 </r>
       <r>     0.3877     0.4998    40.0008 </r>
       <r>     0.6343     6.0496    41.9254 </r>
       <r>     0.8808     3.7566    43.4978 </r>
       <r>     1.1274     0.7122    43.9664 </r>
       <r>     1.3740     0.7124    44.2828 </r>
       <r>     1.6206     1.4405    44.9624 </r>
       <r>     1.8672     1.2532    45.4570 </r>
       <r>     2.1138     2.1302    46.1375 </r>
       <r>     2.3604     2.9404    47.2047 </r>
       <r>     2.6070     6.0303    49.0584 </r>
       <r>     2.8535     5.9112    51.0086 </r>
       <r>     3.1001     5.0256    53.0964 </r>
       <r>     3.3467     4.5010    54.8752 </r>
       <r>     3.5933     6.0566    57.1108 </r>
       <r>     3.8399     9.5699    60.4874 </r>
       <r>     4.0865     5.5341    62.7473 </r>
       <r>     4.3331     4.7685    64.5840 </r>
       <r>     4.5797     4.5371    66.2821 </r>
       <r>     4.8262     3.1174    67.3197 </r>
       <r>     5.0728     2.6437    68.2845 </r>
       <r>     5.3194     2.4172    69.3001 </r>
       <r>     5.5660     2.3169    70.2601 </r>
       <r>     5.8126     2.1966    71.0876 </r>
       <r>     6.0592     2.8144    72.1736 </r>
       <r>     6.3058     3.2440    73.3255 </r>
       <r>     6.5524     3.6416    74.8368 </r>
       <r>     6.7990     3.6452    76.1642 </r>
       <r>     7.0455     2.9188    77.4187 </r>
       <r>     7.2921     4.2428    78.9187 </r>
       <r>     7.5387     4.4116    80.4399 </r>
       <r>     7.7853     5.1713    82.1527 </r>
       <r>     8.0319     2.1670    83.3660 </r>
       <r>     8.2785     1.5851    83.9674 </r>
       <r>     8.5251     0.4782    84.1536 </r>
       <r>     8.7717     1.5385    84.6957 </r>
       <r>     9.0182     2.0426    85.4578 </r>
       <r>     9.2648     2.1864    86.3351 </r>
       <r>     9.5114     3.4739    87.5862 </r>
       <r>     9.7580     5.3650    89.5066 </r>
       <r>    10.0046     5.5306    91.5985 </r>
       <r>    10.2512     4.4256    93.3056 </r>
       <r>    10.4978     3.3852    94.5388 </r>
       <r>    10.7444     1.2236    95.1129 </r>
       <r>    10.9909     0.9679    95.4989 </r>
       <r>    11.2375     0.5419    95.7714 </r>
       <r>    11.4841     0.4552    95.9592 </r>
       <r>    11.7307     0.0825    95.9897 </r>
       <r>    11.9773     0.0203    95.9948 </r>
       <r>    12.2239     0.0207    96.0000 </r>
       <r>    12.4705     0.0000    96.0000 </r>
       <r>    12.7171     0.0000    96.0000 </r>
       <r>    12.9636     0.0000    96.0000 </r>
       <r>    13.2102     0.0000    96.0000 </r>
       <r>    13.4568     0.0000    96.0000 </r>
       <r>    13.7034     0.0000    96.0000 </r>
       <r>    13.9500     0.0000    96.0000 </r>
       <r>    14.1966     0.0000    96.0000 </r>
       <r>    14.4432     0.0000    96.0000 </r>
       <r>    14.6898     0.0000    96.0000 </r>
       <r>    14.9364     0.0000    96.0000 </r>
       <r>    15.1829     0.0000    96.0000 </r>
       <r>    15.4295     0.0000    96.0000 </r>
      </set>
     </set>
    </array>
   </total>
  </dos>
 </calculation>
 <structure name="finalpos" >
  <crystal>
   <varray name="basis" >
    <v>       5.35448706       0.00000000      -3.23283789 </v>
    <v>      -1.70539119       5.07564504      -3.23283789 </v>
    <v>       0.00000000       0.00000000       6.25474000 </v>
   </varray>
   <i name="volume">    169.98804418 </i>
   <varray name="rec_basis" >
    <v>       0.18675925       0.06275017       0.00000000 </v>
    <v>       0.00000000       0.19701929       0.00000000 </v>
    <v>       0.09652877       0.13426498       0.15987875 </v>
   </varray>
  </crystal>
  <varray name="positions" >
   <v>       0.00000000       0.00000000       0.00000000 </v>
   <v>       0.50000000       0.50000000       0.00000000 </v>
   <v>       0.25000000       0.25000000       0.00000000 </v>
   <v>       0.25000000       0.75000000       0.50000000 </v>
   <v>       0.75000000       0.75000000       0.00000000 </v>
   <v>       0.75000000       0.25000000       0.50000000 </v>
   <v>       0.01171000       0.51171000       0.02210000 </v>
   <v>       0.50000000       0.50000000       0.50000000 </v>
   <v>       0.48960000       0.98960000       0.97790000 </v>
   <v>       0.00000000       0.00000000       0.50000000 </v>
  </varray>
 </structure>
</modeling>
