<?xml version="1.0" encoding="ISO-8859-1"?>
<modeling>
 <generator>
  <i name="program" type="string">vasp </i>
  <i name="version" type="string">6.2.0  </i>
  <i name="subversion" type="string">18Jan21 (build Jan 05 2022 15:41:44) complex                          parallel </i>
  <i name="platform" type="string">LinuxIFC </i>
  <i name="date" type="string">2025 05 07 </i>
  <i name="time" type="string">14:33:32 </i>
 </generator>
 <incar>
  <i type="string" name="SYSTEM">routine with relax: pwdword</i>
  <i type="string" name="PREC">Acc</i>
  <i type="int" name="IALGO">    38</i>
  <i type="string" name="ALGO">A</i>
  <i type="logical" name="ADDGRID"> T  </i>
  <i type="int" name="ICHARG">     2</i>
  <i type="int" name="NELM">   100</i>
  <i type="int" name="NELMIN">     6</i>
  <i name="EDIFF">      0.00000000</i>
  <i type="int" name="NSW">     0</i>
  <i type="int" name="ISIF">    -1</i>
  <i name="ENCUT">    600.00000000</i>
  <i type="logical" name="LREAL"> F  </i>
  <i type="int" name="ISMEAR">     0</i>
  <i name="SIGMA">      0.02000000</i>
  <i type="logical" name="LASPH"> T  </i>
  <i type="string" name="METAGGA">R2SCAN</i>
  <i type="logical" name="LMIXTAU"> F  </i>
 </incar>
 <primitive_cell>
  <structure name="primitive_cell" >
   <crystal>
    <varray name="basis" >
     <v>       5.24992726       0.00000000      -3.31284175 </v>
     <v>      -1.59639335       5.00132628      -3.31284175 </v>
     <v>       0.00000000       0.00000000       6.20779000 </v>
    </varray>
    <i name="volume">    162.99545375 </i>
    <varray name="rec_basis" >
     <v>       0.19047883       0.06079970       0.00000000 </v>
     <v>       0.00000000       0.19994696       0.00000000 </v>
     <v>       0.10165070       0.13914975       0.16108792 </v>
    </varray>
   </crystal>
   <varray name="positions" >
    <v>       0.25000000       0.75000000       0.50000000 </v>
    <v>       0.75000000       0.25000000       0.50000000 </v>
    <v>       0.25000000       0.25000000       0.00000000 </v>
    <v>       0.73745000       0.23745000       0.97489000 </v>
    <v>       0.75000000       0.75000000       0.00000000 </v>
    <v>       0.26255000       0.76255000       0.02511000 </v>
    <v>       0.23745000       0.26255000       0.50000000 </v>
    <v>       0.76255000       0.73745000       0.50000000 </v>
    <v>       0.00970000       0.50970000       0.02001000 </v>
    <v>       0.50000000       0.50000000       0.50000000 </v>
    <v>       0.48969000       0.98969000       0.97999000 </v>
    <v>       0.00000000       0.00000000       0.50000000 </v>
   </varray>
  </structure>
  <varray name="primitive_index" >
   <v type="int" >        1 </v>
   <v type="int" >        2 </v>
   <v type="int" >        3 </v>
   <v type="int" >        4 </v>
   <v type="int" >        5 </v>
   <v type="int" >        6 </v>
   <v type="int" >        7 </v>
   <v type="int" >        8 </v>
   <v type="int" >        9 </v>
   <v type="int" >       10 </v>
   <v type="int" >       11 </v>
   <v type="int" >       12 </v>
  </varray>
 </primitive_cell>
 <kpoints>
  <generation param="Gamma">
   <v type="int" name="divisions">       7        7        8 </v>
   <v name="usershift">      0.00000000       0.00000000       0.00000000 </v>
   <v name="genvec1">      0.14285714       0.00000000       0.00000000 </v>
   <v name="genvec2">      0.00000000       0.14285714       0.00000000 </v>
   <v name="genvec3">     -0.00000000       0.00000000       0.12500000 </v>
   <v name="shift">      0.00000000       0.00000000       0.00000000 </v>
  </generation>
  <varray name="kpointlist" >
   <v>       0.00000000       0.00000000       0.00000000 </v>
   <v>       0.14285714       0.00000000       0.00000000 </v>
   <v>       0.28571429      -0.00000000       0.00000000 </v>
   <v>       0.42857143       0.00000000       0.00000000 </v>
   <v>       0.14285714       0.14285714       0.00000000 </v>
   <v>       0.28571429       0.14285714       0.00000000 </v>
   <v>       0.42857143       0.14285714       0.00000000 </v>
   <v>      -0.42857143       0.14285714       0.00000000 </v>
   <v>      -0.28571429       0.14285714       0.00000000 </v>
   <v>      -0.14285714       0.14285714       0.00000000 </v>
   <v>       0.28571429       0.28571429       0.00000000 </v>
   <v>       0.42857143       0.28571429       0.00000000 </v>
   <v>      -0.42857143       0.28571429       0.00000000 </v>
   <v>      -0.28571429       0.28571429       0.00000000 </v>
   <v>       0.42857143       0.42857143       0.00000000 </v>
   <v>      -0.42857143       0.42857143       0.00000000 </v>
   <v>       0.00000000       0.00000000       0.12500000 </v>
   <v>       0.14285714       0.00000000       0.12500000 </v>
   <v>       0.28571429      -0.00000000       0.12500000 </v>
   <v>       0.42857143       0.00000000       0.12500000 </v>
   <v>      -0.42857143      -0.00000000       0.12500000 </v>
   <v>      -0.28571429       0.00000000       0.12500000 </v>
   <v>      -0.14285714       0.00000000       0.12500000 </v>
   <v>       0.14285714       0.14285714       0.12500000 </v>
   <v>       0.28571429       0.14285714       0.12500000 </v>
   <v>       0.42857143       0.14285714       0.12500000 </v>
   <v>      -0.42857143       0.14285714       0.12500000 </v>
   <v>      -0.28571429       0.14285714       0.12500000 </v>
   <v>      -0.14285714       0.14285714       0.12500000 </v>
   <v>       0.28571429       0.28571429       0.12500000 </v>
   <v>       0.42857143       0.28571429       0.12500000 </v>
   <v>      -0.42857143       0.28571429       0.12500000 </v>
   <v>      -0.28571429       0.28571429       0.12500000 </v>
   <v>      -0.14285714       0.28571429       0.12500000 </v>
   <v>       0.42857143       0.42857143       0.12500000 </v>
   <v>      -0.42857143       0.42857143       0.12500000 </v>
   <v>      -0.28571429       0.42857143       0.12500000 </v>
   <v>      -0.14285714       0.42857143       0.12500000 </v>
   <v>      -0.42857143      -0.42857143       0.12500000 </v>
   <v>      -0.28571429      -0.42857143       0.12500000 </v>
   <v>      -0.14285714      -0.42857143       0.12500000 </v>
   <v>      -0.28571429      -0.28571429       0.12500000 </v>
   <v>      -0.14285714      -0.28571429       0.12500000 </v>
   <v>      -0.14285714      -0.14285714       0.12500000 </v>
   <v>       0.00000000       0.00000000       0.25000000 </v>
   <v>       0.14285714       0.00000000       0.25000000 </v>
   <v>       0.28571429       0.00000000       0.25000000 </v>
   <v>       0.42857143       0.00000000       0.25000000 </v>
   <v>      -0.42857143      -0.00000000       0.25000000 </v>
   <v>      -0.28571429       0.00000000       0.25000000 </v>
   <v>      -0.14285714       0.00000000       0.25000000 </v>
   <v>       0.14285714       0.14285714       0.25000000 </v>
   <v>       0.28571429       0.14285714       0.25000000 </v>
   <v>       0.42857143       0.14285714       0.25000000 </v>
   <v>      -0.42857143       0.14285714       0.25000000 </v>
   <v>      -0.28571429       0.14285714       0.25000000 </v>
   <v>      -0.14285714       0.14285714       0.25000000 </v>
   <v>       0.28571429       0.28571429       0.25000000 </v>
   <v>       0.42857143       0.28571429       0.25000000 </v>
   <v>      -0.42857143       0.28571429       0.25000000 </v>
   <v>      -0.28571429       0.28571429       0.25000000 </v>
   <v>      -0.14285714       0.28571429       0.25000000 </v>
   <v>       0.42857143       0.42857143       0.25000000 </v>
   <v>      -0.42857143       0.42857143       0.25000000 </v>
   <v>      -0.28571429       0.42857143       0.25000000 </v>
   <v>      -0.14285714       0.42857143       0.25000000 </v>
   <v>      -0.42857143      -0.42857143       0.25000000 </v>
   <v>      -0.28571429      -0.42857143       0.25000000 </v>
   <v>      -0.14285714      -0.42857143       0.25000000 </v>
   <v>      -0.28571429      -0.28571429       0.25000000 </v>
   <v>      -0.14285714      -0.28571429       0.25000000 </v>
   <v>      -0.14285714      -0.14285714       0.25000000 </v>
   <v>       0.00000000      -0.00000000       0.37500000 </v>
   <v>       0.14285714      -0.00000000       0.37500000 </v>
   <v>       0.28571429      -0.00000000       0.37500000 </v>
   <v>       0.42857143      -0.00000000       0.37500000 </v>
   <v>      -0.42857143      -0.00000000       0.37500000 </v>
   <v>      -0.28571429      -0.00000000       0.37500000 </v>
   <v>      -0.14285714       0.00000000       0.37500000 </v>
   <v>       0.14285714       0.14285714       0.37500000 </v>
   <v>       0.28571429       0.14285714       0.37500000 </v>
   <v>       0.42857143       0.14285714       0.37500000 </v>
   <v>      -0.42857143       0.14285714       0.37500000 </v>
   <v>      -0.28571429       0.14285714       0.37500000 </v>
   <v>      -0.14285714       0.14285714       0.37500000 </v>
   <v>       0.28571429       0.28571429       0.37500000 </v>
   <v>       0.42857143       0.28571429       0.37500000 </v>
   <v>      -0.42857143       0.28571429       0.37500000 </v>
   <v>      -0.28571429       0.28571429       0.37500000 </v>
   <v>      -0.14285714       0.28571429       0.37500000 </v>
   <v>       0.42857143       0.42857143       0.37500000 </v>
   <v>      -0.42857143       0.42857143       0.37500000 </v>
   <v>      -0.28571429       0.42857143       0.37500000 </v>
   <v>      -0.14285714       0.42857143       0.37500000 </v>
   <v>      -0.42857143      -0.42857143       0.37500000 </v>
   <v>      -0.28571429      -0.42857143       0.37500000 </v>
   <v>      -0.14285714      -0.42857143       0.37500000 </v>
   <v>      -0.28571429      -0.28571429       0.37500000 </v>
   <v>      -0.14285714      -0.28571429       0.37500000 </v>
   <v>      -0.14285714      -0.14285714       0.37500000 </v>
   <v>       0.00000000       0.00000000       0.50000000 </v>
   <v>       0.14285714       0.00000000       0.50000000 </v>
   <v>       0.28571429       0.00000000       0.50000000 </v>
   <v>       0.42857143       0.00000000       0.50000000 </v>
   <v>       0.14285714       0.14285714       0.50000000 </v>
   <v>       0.28571429       0.14285714       0.50000000 </v>
   <v>       0.42857143       0.14285714       0.50000000 </v>
   <v>      -0.42857143       0.14285714       0.50000000 </v>
   <v>      -0.28571429       0.14285714       0.50000000 </v>
   <v>      -0.14285714       0.14285714       0.50000000 </v>
   <v>       0.28571429       0.28571429       0.50000000 </v>
   <v>       0.42857143       0.28571429       0.50000000 </v>
   <v>      -0.42857143       0.28571429       0.50000000 </v>
   <v>      -0.28571429       0.28571429       0.50000000 </v>
   <v>       0.42857143       0.42857143       0.50000000 </v>
   <v>      -0.42857143       0.42857143       0.50000000 </v>
  </varray>
  <varray name="weights" >
   <v>       0.00255102 </v>
   <v>       0.01020408 </v>
   <v>       0.01020408 </v>
   <v>       0.01020408 </v>
   <v>       0.00510204 </v>
   <v>       0.01020408 </v>
   <v>       0.01020408 </v>
   <v>       0.01020408 </v>
   <v>       0.01020408 </v>
   <v>       0.00510204 </v>
   <v>       0.00510204 </v>
   <v>       0.01020408 </v>
   <v>       0.01020408 </v>
   <v>       0.00510204 </v>
   <v>       0.00510204 </v>
   <v>       0.00510204 </v>
   <v>       0.00510204 </v>
   <v>       0.01020408 </v>
   <v>       0.01020408 </v>
   <v>       0.01020408 </v>
   <v>       0.01020408 </v>
   <v>       0.01020408 </v>
   <v>       0.01020408 </v>
   <v>       0.00510204 </v>
   <v>       0.01020408 </v>
   <v>       0.01020408 </v>
   <v>       0.01020408 </v>
   <v>       0.01020408 </v>
   <v>       0.01020408 </v>
   <v>       0.00510204 </v>
   <v>       0.01020408 </v>
   <v>       0.01020408 </v>
   <v>       0.01020408 </v>
   <v>       0.01020408 </v>
   <v>       0.00510204 </v>
   <v>       0.01020408 </v>
   <v>       0.01020408 </v>
   <v>       0.01020408 </v>
   <v>       0.00510204 </v>
   <v>       0.01020408 </v>
   <v>       0.01020408 </v>
   <v>       0.00510204 </v>
   <v>       0.01020408 </v>
   <v>       0.00510204 </v>
   <v>       0.00510204 </v>
   <v>       0.01020408 </v>
   <v>       0.01020408 </v>
   <v>       0.01020408 </v>
   <v>       0.01020408 </v>
   <v>       0.01020408 </v>
   <v>       0.01020408 </v>
   <v>       0.00510204 </v>
   <v>       0.01020408 </v>
   <v>       0.01020408 </v>
   <v>       0.01020408 </v>
   <v>       0.01020408 </v>
   <v>       0.01020408 </v>
   <v>       0.00510204 </v>
   <v>       0.01020408 </v>
   <v>       0.01020408 </v>
   <v>       0.01020408 </v>
   <v>       0.01020408 </v>
   <v>       0.00510204 </v>
   <v>       0.01020408 </v>
   <v>       0.01020408 </v>
   <v>       0.01020408 </v>
   <v>       0.00510204 </v>
   <v>       0.01020408 </v>
   <v>       0.01020408 </v>
   <v>       0.00510204 </v>
   <v>       0.01020408 </v>
   <v>       0.00510204 </v>
   <v>       0.00510204 </v>
   <v>       0.01020408 </v>
   <v>       0.01020408 </v>
   <v>       0.01020408 </v>
   <v>       0.01020408 </v>
   <v>       0.01020408 </v>
   <v>       0.01020408 </v>
   <v>       0.00510204 </v>
   <v>       0.01020408 </v>
   <v>       0.01020408 </v>
   <v>       0.01020408 </v>
   <v>       0.01020408 </v>
   <v>       0.01020408 </v>
   <v>       0.00510204 </v>
   <v>       0.01020408 </v>
   <v>       0.01020408 </v>
   <v>       0.01020408 </v>
   <v>       0.01020408 </v>
   <v>       0.00510204 </v>
   <v>       0.01020408 </v>
   <v>       0.01020408 </v>
   <v>       0.01020408 </v>
   <v>       0.00510204 </v>
   <v>       0.01020408 </v>
   <v>       0.01020408 </v>
   <v>       0.00510204 </v>
   <v>       0.01020408 </v>
   <v>       0.00510204 </v>
   <v>       0.00255102 </v>
   <v>       0.01020408 </v>
   <v>       0.01020408 </v>
   <v>       0.01020408 </v>
   <v>       0.00510204 </v>
   <v>       0.01020408 </v>
   <v>       0.01020408 </v>
   <v>       0.01020408 </v>
   <v>       0.01020408 </v>
   <v>       0.00510204 </v>
   <v>       0.00510204 </v>
   <v>       0.01020408 </v>
   <v>       0.01020408 </v>
   <v>       0.00510204 </v>
   <v>       0.00510204 </v>
   <v>       0.00510204 </v>
  </varray>
 </kpoints>
 <parameters>
  <separator name="general" >
   <i type="string" name="SYSTEM">routine with relax: pwdword</i>
   <i type="logical" name="LCOMPAT"> F  </i>
  </separator>
  <separator name="electronic" >
   <i type="string" name="PREC">acc</i>
   <i name="ENMAX">    600.00000000</i>
   <i name="ENAUG">    535.51400000</i>
   <i name="EDIFF">      0.00000000</i>
   <i type="int" name="IALGO">    58</i>
   <i type="int" name="IWAVPR">    10</i>
   <i type="int" name="NBANDS">    66</i>
   <i type="int" name="NBANDSLOW">    -1</i>
   <i type="int" name="NBANDSHIGH">    -1</i>
   <i name="NELECT">    106.00000000</i>
   <i type="int" name="TURBO">     0</i>
   <i type="int" name="IRESTART">     0</i>
   <i type="int" name="NREBOOT">     0</i>
   <i type="int" name="NMIN">     0</i>
   <i name="EREF">      0.00000000</i>
   <separator name="electronic smearing" >
    <i type="int" name="ISMEAR">     0</i>
    <i name="SIGMA">      0.02000000</i>
    <i name="KSPACING">      0.50000000</i>
    <i type="logical" name="KGAMMA"> T  </i>
    <i type="logical" name="KBLOWUP"> F  </i>
   </separator>
   <separator name="electronic projectors" >
    <i type="logical" name="LREAL"> F  </i>
    <v name="ROPT">      0.00000000      0.00000000      0.00000000</v>
    <i type="int" name="LMAXPAW">  -100</i>
    <i type="int" name="LMAXMIX">     2</i>
    <i type="logical" name="NLSPLINE"> F  </i>
   </separator>
   <separator name="electronic startup" >
    <i type="int" name="ISTART">     0</i>
    <i type="int" name="ICHARG">     2</i>
    <i type="int" name="INIWAV">     1</i>
   </separator>
   <separator name="electronic spin" >
    <i type="int" name="ISPIN">     1</i>
    <i type="logical" name="LNONCOLLINEAR"> F  </i>
    <v name="MAGMOM">      1.00000000      1.00000000      1.00000000      1.00000000      1.00000000      1.00000000      1.00000000      1.00000000      1.00000000      1.00000000      1.00000000      1.00000000</v>
    <i name="NUPDOWN">     -1.00000000</i>
    <i type="logical" name="LSORBIT"> F  </i>
    <v name="SAXIS">      0.00000000      0.00000000      1.00000000</v>
    <i type="logical" name="LSPIRAL"> F  </i>
    <v name="QSPIRAL">      0.00000000      0.00000000      0.00000000</v>
    <i type="logical" name="LZEROZ"> F  </i>
   </separator>
   <separator name="electronic exchange-correlation" >
    <i type="logical" name="LASPH"> T  </i>
    <i type="logical" name="LMETAGGA"> F  </i>
   </separator>
   <separator name="electronic convergence" >
    <i type="int" name="NELM">   100</i>
    <i type="int" name="NELMDL">    -5</i>
    <i type="int" name="NELMIN">     6</i>
    <i name="ENINI">    600.00000000</i>
    <separator name="electronic convergence detail" >
     <i type="logical" name="LDIAG"> T  </i>
     <i type="logical" name="LSUBROT"> F  </i>
     <i name="WEIMIN">      0.00000000</i>
     <i name="EBREAK">      0.00000000</i>
     <i name="DEPER">      0.30000000</i>
     <i type="int" name="NRMM">     4</i>
     <i name="TIME">      0.40000000</i>
    </separator>
   </separator>
   <separator name="electronic mixer" >
    <i name="AMIX">      0.40000000</i>
    <i name="BMIX">      1.00000000</i>
    <i name="AMIN">      0.10000000</i>
    <i name="AMIX_MAG">      1.60000000</i>
    <i name="BMIX_MAG">      1.00000000</i>
    <separator name="electronic mixer details" >
     <i type="int" name="IMIX">     4</i>
     <i type="logical" name="MIXFIRST"> F  </i>
     <i type="int" name="MAXMIX">   -45</i>
     <i name="WC">    100.00000000</i>
     <i type="int" name="INIMIX">     1</i>
     <i type="int" name="MIXPRE">     1</i>
     <i type="int" name="MREMOVE">     5</i>
    </separator>
   </separator>
   <separator name="electronic dipolcorrection" >
    <i type="logical" name="LDIPOL"> F  </i>
    <i type="logical" name="LMONO"> F  </i>
    <i type="int" name="IDIPOL">     0</i>
    <i name="EPSILON">      1.00000000</i>
    <v name="DIPOL">   -100.00000000   -100.00000000   -100.00000000</v>
    <i name="EFIELD">      0.00000000</i>
   </separator>
  </separator>
  <separator name="grids" >
   <i type="int" name="NGX">    50</i>
   <i type="int" name="NGY">    50</i>
   <i type="int" name="NGZ">    50</i>
   <i type="int" name="NGXF">   100</i>
   <i type="int" name="NGYF">   100</i>
   <i type="int" name="NGZF">   100</i>
   <i type="logical" name="ADDGRID"> T  </i>
  </separator>
  <separator name="ionic" >
   <i type="int" name="NSW">     0</i>
   <i type="int" name="IBRION">    -1</i>
   <i type="int" name="MDALGO">     0</i>
   <i type="int" name="ISIF">    -1</i>
   <i name="PSTRESS">      0.00000000</i>
   <i name="EDIFFG">      0.00000001</i>
   <i type="int" name="NFREE">     0</i>
   <i name="POTIM">      0.50000000</i>
   <i name="SMASS">     -3.00000000</i>
   <i name="SCALEE">      1.00000000</i>
  </separator>
  <separator name="ionic md" >
   <i name="TEBEG">      0.00010000</i>
   <i name="TEEND">      0.00010000</i>
   <i type="int" name="NBLOCK">     1</i>
   <i type="int" name="KBLOCK">     1</i>
   <i type="int" name="NPACO">   256</i>
   <i name="APACO">     16.00000000</i>
  </separator>
  <separator name="symmetry" >
   <i type="int" name="ISYM">     2</i>
   <i name="SYMPREC">      0.00001000</i>
  </separator>
  <separator name="dos" >
   <i type="int" name="LORBIT">     0</i>
   <v name="RWIGS">     -1.00000000     -1.00000000     -1.00000000</v>
   <i type="int" name="NEDOS">   301</i>
   <i name="EMIN">     10.00000000</i>
   <i name="EMAX">    -10.00000000</i>
   <i name="EFERMI">      0.00000000</i>
  </separator>
  <separator name="writing" >
   <i type="int" name="NWRITE">     2</i>
   <i type="logical" name="LWAVE"> T  </i>
   <i type="logical" name="LDOWNSAMPLE"> F  </i>
   <i type="logical" name="LCHARG"> T  </i>
   <i type="logical" name="LPARD"> F  </i>
   <i type="logical" name="LVTOT"> F  </i>
   <i type="logical" name="LVHAR"> F  </i>
   <i type="logical" name="LELF"> F  </i>
   <i type="logical" name="LOPTICS"> F  </i>
   <v name="STM">      0.00000000      0.00000000      0.00000000      0.00000000      0.00000000      0.00000000      0.00000000</v>
  </separator>
  <separator name="performance" >
   <i type="int" name="NPAR">     6</i>
   <i type="int" name="NSIM">     4</i>
   <i type="int" name="NBLK">    -1</i>
   <i type="logical" name="LPLANE"> T  </i>
   <i type="logical" name="LSCALAPACK"> T  </i>
   <i type="logical" name="LSCAAWARE"> F  </i>
   <i type="logical" name="LSCALU"> F  </i>
   <i type="logical" name="LASYNC"> F  </i>
   <i type="logical" name="LORBITALREAL"> F  </i>
  </separator>
  <separator name="miscellaneous" >
   <i type="int" name="IDIOT">     3</i>
   <i type="int" name="PHON_NSTRUCT">    -1</i>
   <i type="logical" name="LMUSIC"> F  </i>
   <v name="POMASS">     10.81100000     95.94000000     28.08500000</v>
   <v name="DARWINR">      0.00000000      0.00000000      0.00000000</v>
   <v name="DARWINV">      1.00000000      1.00000000      1.00000000</v>
   <i type="logical" name="LCORR"> T  </i>
  </separator>
  <i type="logical" name="GGA_COMPAT"> T  </i>
  <i type="logical" name="LBERRY"> F  </i>
  <i type="int" name="ICORELEVEL">     0</i>
  <i type="logical" name="LDAU"> F  </i>
  <i type="int" name="I_CONSTRAINED_M">     0</i>
  <separator name="electronic exchange-correlation" >
   <i type="string" name="GGA">--</i>
   <i type="int" name="VOSKOWN">     0</i>
   <i type="logical" name="LHFCALC"> F  </i>
   <i type="string" name="PRECFOCK"></i>
   <i type="logical" name="LSYMGRAD"> F  </i>
   <i type="logical" name="LHFONE"> F  </i>
   <i type="logical" name="LRHFCALC"> F  </i>
   <i type="logical" name="LTHOMAS"> F  </i>
   <i type="logical" name="LMODELHF"> F  </i>
   <i type="logical" name="LFOCKACE"> F  </i>
   <i name="ENCUT4O">     -1.00000000</i>
   <i type="int" name="EXXOEP">     0</i>
   <i type="int" name="FOURORBIT">     0</i>
   <i name="AEXX">      0.00000000</i>
   <i name="HFALPHA">      0.00000000</i>
   <i name="MCALPHA">      0.00000000</i>
   <i name="ALDAX">      1.00000000</i>
   <i name="AGGAX">      1.00000000</i>
   <i name="ALDAC">      1.00000000</i>
   <i name="AGGAC">      1.00000000</i>
   <i type="int" name="NKREDX">     1</i>
   <i type="int" name="NKREDY">     1</i>
   <i type="int" name="NKREDZ">     1</i>
   <i type="logical" name="SHIFTRED"> F  </i>
   <i type="logical" name="ODDONLY"> F  </i>
   <i type="logical" name="EVENONLY"> F  </i>
   <i type="int" name="LMAXFOCK">     0</i>
   <i type="int" name="NMAXFOCKAE">     0</i>
   <i type="logical" name="LFOCKAEDFT"> F  </i>
   <i name="HFSCREEN">      0.00000000</i>
   <i name="HFSCREENC">      0.00000000</i>
   <i type="int" name="NBANDSGWLOW">     0</i>
  </separator>
  <separator name="vdW DFT" >
   <i type="logical" name="LUSE_VDW"> F  </i>
   <i name="Zab_VDW">     -0.84910000</i>
   <i name="PARAM1">      0.12340000</i>
   <i name="PARAM2">      1.00000000</i>
   <i name="PARAM3">      0.00000000</i>
  </separator>
  <separator name="model GW" >
   <i type="int" name="MODEL_GW">     0</i>
   <i name="MODEL_EPS0">      8.14977269</i>
   <i name="MODEL_ALPHA">      1.00000000</i>
  </separator>
  <separator name="linear response parameters" >
   <i type="logical" name="LEPSILON"> F  </i>
   <i type="logical" name="LRPA"> F  </i>
   <i type="logical" name="LNABLA"> F  </i>
   <i type="logical" name="LVEL"> F  </i>
   <i type="int" name="KINTER">     0</i>
   <i name="CSHIFT">      0.10000000</i>
   <i name="OMEGAMAX">     -1.00000000</i>
   <i name="DEG_THRESHOLD">      0.00200000</i>
   <i name="RTIME">     -0.10000000</i>
   <i name="WPLASMAI">      0.00000000</i>
   <v name="DFIELD">      0.00000000      0.00000000      0.00000000</v>
   <v name="WPLASMA">      0.00000000      0.00000000      0.00000000      0.00000000      0.00000000      0.00000000      0.00000000      0.00000000      0.00000000</v>
  </separator>
  <separator name="orbital magnetization" >
   <i type="logical" name="NUCIND"> F  </i>
   <v name="MAGPOS">      0.00000000      0.00000000      0.00000000</v>
   <i type="logical" name="LNICSALL"> T  </i>
   <i type="logical" name="ORBITALMAG"> F  </i>
   <i type="logical" name="LMAGBLOCH"> F  </i>
   <i type="logical" name="LCHIMAG"> F  </i>
   <i type="logical" name="LGAUGE"> T  </i>
   <i type="int" name="MAGATOM">     0</i>
   <v name="MAGDIPOL">      0.00000000      0.00000000      0.00000000</v>
   <v name="AVECCONST">      0.00000000      0.00000000      0.00000000</v>
  </separator>
  <separator name="response functions" >
   <i type="logical" name="LFINITE_TEMPERATURE"> F  </i>
   <i type="logical" name="LADDER"> F  </i>
   <i type="logical" name="LRPAFORCE"> F  </i>
   <i type="logical" name="LFXC"> F  </i>
   <i type="logical" name="LHARTREE"> T  </i>
   <i type="int" name="IBSE">     0</i>
   <v type="int" name="KPOINT">    -1     0     0     0</v>
   <i type="logical" name="LTCTC"> F  </i>
   <i type="logical" name="LTCTE"> F  </i>
   <i type="logical" name="LTETE"> F  </i>
   <i type="logical" name="LTRIPLET"> F  </i>
   <i type="logical" name="LFXCEPS"> F  </i>
   <i type="logical" name="LFXHEG"> F  </i>
   <i type="int" name="NATURALO">     2</i>
   <i type="logical" name="LHOLEGF"> F  </i>
   <i type="logical" name="L2ORDER"> F  </i>
   <i type="logical" name="LDMP1"> F  </i>
   <i type="logical" name="LMP2LT"> F  </i>
   <i type="logical" name="LSMP2LT"> F  </i>
   <i type="logical" name="LGWLF"> F  </i>
   <i name="ENCUTGW">     -2.00000000</i>
   <i name="ENCUTGWSOFT">     -2.00000000</i>
   <i name="ENCUTLF">     -1.00000000</i>
   <i type="logical" name="LESF_SPLINES"> F  </i>
   <i type="int" name="LMAXMP2">    -1</i>
   <i name="SCISSOR">      0.00000000</i>
   <i type="int" name="NOMEGA">     0</i>
   <i type="int" name="NOMEGAR">     0</i>
   <i type="int" name="NBANDSGW">    -1</i>
   <i type="int" name="NBANDSO">    -1</i>
   <i type="int" name="NBANDSV">    -1</i>
   <i type="int" name="NELM">   100</i>
   <i type="int" name="NELMHF">     1</i>
   <i type="int" name="DIM">     3</i>
   <i type="int" name="IESPILON">     4</i>
   <i type="int" name="ANTIRES">     0</i>
   <i name="OMEGAMAX">    -30.00000000</i>
   <i name="OMEGAMIN">    -30.00000000</i>
   <i name="OMEGATL">   -200.00000000</i>
   <i type="int" name="OMEGAGRID">     0</i>
   <i name="CSHIFT">     -0.10000000</i>
   <i type="logical" name="LSELFENERGY"> F  </i>
   <i type="logical" name="LSPECTRAL"> F  </i>
   <i type="logical" name="LSPECTRALGW"> F  </i>
   <i type="logical" name="LSINGLES"> F  </i>
   <i type="logical" name="LFERMIGW"> F  </i>
   <i type="logical" name="ODDONLYGW"> F  </i>
   <i type="logical" name="EVENONLYGW"> F  </i>
   <i type="int" name="NKREDLFX">     1</i>
   <i type="int" name="NKREDLFY">     1</i>
   <i type="int" name="NKREDLFZ">     1</i>
   <i type="int" name="MAXMEM">  2800</i>
   <i type="int" name="TELESCOPE">     0</i>
   <i type="int" name="NTAUPAR">    -1</i>
   <i type="int" name="NOMEGAPAR">    -1</i>
   <i name="DAMP_NEWTON">      0.80000001</i>
   <i name="LAMBDA">      1.00000000</i>
  </separator>
  <separator name="External order field" >
   <i name="OFIELD_KAPPA">      0.00000000</i>
   <v name="OFIELD_K">      0.00000000      0.00000000      0.00000000</v>
   <i name="OFIELD_Q6_NEAR">      0.00000000</i>
   <i name="OFIELD_Q6_FAR">      0.00000000</i>
   <i name="OFIELD_A">      0.00000000</i>
  </separator>
 </parameters>
 <atominfo>
  <atoms>      12 </atoms>
  <types>       3 </types>
  <array name="atoms" >
   <dimension dim="1">ion</dimension>
   <field type="string">element</field>
   <field type="int">atomtype</field>
   <set>
    <rc><c>B </c><c>   1</c></rc>
    <rc><c>B </c><c>   1</c></rc>
    <rc><c>Mo</c><c>   2</c></rc>
    <rc><c>Mo</c><c>   2</c></rc>
    <rc><c>Mo</c><c>   2</c></rc>
    <rc><c>Mo</c><c>   2</c></rc>
    <rc><c>Mo</c><c>   2</c></rc>
    <rc><c>Mo</c><c>   2</c></rc>
    <rc><c>Si</c><c>   3</c></rc>
    <rc><c>Si</c><c>   3</c></rc>
    <rc><c>Si</c><c>   3</c></rc>
    <rc><c>Si</c><c>   3</c></rc>
   </set>
  </array>
  <array name="atomtypes" >
   <dimension dim="1">type</dimension>
   <field type="int">atomspertype</field>
   <field type="string">element</field>
   <field>mass</field>
   <field>valence</field>
   <field type="string">pseudopotential</field>
   <set>
    <rc><c>   2</c><c>B </c><c>     10.81100000</c><c>      3.00000000</c><c>  PAW_PBE B 06Sep2000                   </c></rc>
    <rc><c>   6</c><c>Mo</c><c>     95.94000000</c><c>     14.00000000</c><c>  PAW_PBE Mo_sv 02Feb2006               </c></rc>
    <rc><c>   4</c><c>Si</c><c>     28.08500000</c><c>      4.00000000</c><c>  PAW_PBE Si 05Jan2001                  </c></rc>
   </set>
  </array>
 </atominfo>
 <structure name="initialpos" >
  <crystal>
   <varray name="basis" >
    <v>       5.24992726       0.00000000      -3.31284175 </v>
    <v>      -1.59639335       5.00132628      -3.31284175 </v>
    <v>       0.00000000       0.00000000       6.20779000 </v>
   </varray>
   <i name="volume">    162.99545375 </i>
   <varray name="rec_basis" >
    <v>       0.19047883       0.06079970       0.00000000 </v>
    <v>       0.00000000       0.19994696       0.00000000 </v>
    <v>       0.10165070       0.13914975       0.16108792 </v>
   </varray>
  </crystal>
  <varray name="positions" >
   <v>       0.25000000       0.75000000       0.50000000 </v>
   <v>       0.75000000       0.25000000       0.50000000 </v>
   <v>       0.25000000       0.25000000       0.00000000 </v>
   <v>       0.73745000       0.23745000       0.97489000 </v>
   <v>       0.75000000       0.75000000       0.00000000 </v>
   <v>       0.26255000       0.76255000       0.02511000 </v>
   <v>       0.23745000       0.26255000       0.50000000 </v>
   <v>       0.76255000       0.73745000       0.50000000 </v>
   <v>       0.00970000       0.50970000       0.02001000 </v>
   <v>       0.50000000       0.50000000       0.50000000 </v>
   <v>       0.48969000       0.98969000       0.97999000 </v>
   <v>       0.00000000       0.00000000       0.50000000 </v>
  </varray>
 </structure>
 <calculation>
  <scstep>
   <time name="total">   22.07   22.28</time>
   <energy>
    <i name="alphaZ">    565.34427319 </i>
    <i name="ewald">  -9537.86414705 </i>
    <i name="hartreedc">  -2451.98457879 </i>
    <i name="XCdc">    461.78169803 </i>
    <i name="pawpsdc">   9333.50011946 </i>
    <i name="pawaedc">  -9270.82734050 </i>
    <i name="eentropy">     -0.00073803 </i>
    <i name="bandstr">    276.25047813 </i>
    <i name="atom">  11728.30056431 </i>
    <i name="e_fr_energy">   1104.50032875 </i>
    <i name="e_wo_entrp">   1104.50106678 </i>
    <i name="e_0_energy">   1104.50069776 </i>
   </energy>
  </scstep>
  <scstep>
   <time name="total">   22.53   22.73</time>
   <energy>
    <i name="e_fr_energy">   -177.12434628 </i>
    <i name="e_wo_entrp">   -177.12259063 </i>
    <i name="e_0_energy">   -177.12346845 </i>
   </energy>
  </scstep>
  <scstep>
   <time name="total">   25.00   25.23</time>
   <energy>
    <i name="e_fr_energy">   -228.75836852 </i>
    <i name="e_wo_entrp">   -228.75604630 </i>
    <i name="e_0_energy">   -228.75720741 </i>
   </energy>
  </scstep>
  <scstep>
   <time name="total">   23.41   23.62</time>
   <energy>
    <i name="e_fr_energy">   -229.99592631 </i>
    <i name="e_wo_entrp">   -229.99350354 </i>
    <i name="e_0_energy">   -229.99471493 </i>
   </energy>
  </scstep>
  <scstep>
   <time name="total">   25.59   25.82</time>
   <energy>
    <i name="e_fr_energy">   -230.01981714 </i>
    <i name="e_wo_entrp">   -230.01741684 </i>
    <i name="e_0_energy">   -230.01861699 </i>
   </energy>
  </scstep>
  <scstep>
   <time name="total">   24.95   25.18</time>
   <energy>
    <i name="e_fr_energy">   -140.12723025 </i>
    <i name="e_wo_entrp">   -140.12441188 </i>
    <i name="e_0_energy">   -140.12582106 </i>
   </energy>
  </scstep>
  <scstep>
   <time name="total">   24.93   25.19</time>
   <energy>
    <i name="e_fr_energy">   -178.96670585 </i>
    <i name="e_wo_entrp">   -178.96429075 </i>
    <i name="e_0_energy">   -178.96549830 </i>
   </energy>
  </scstep>
  <scstep>
   <time name="total">   24.87   25.11</time>
   <energy>
    <i name="e_fr_energy">   -182.81801880 </i>
    <i name="e_wo_entrp">   -182.81550563 </i>
    <i name="e_0_energy">   -182.81676222 </i>
   </energy>
  </scstep>
  <scstep>
   <time name="total">   25.40   25.64</time>
   <energy>
    <i name="e_fr_energy">   -183.72700482 </i>
    <i name="e_wo_entrp">   -183.72426287 </i>
    <i name="e_0_energy">   -183.72563384 </i>
   </energy>
  </scstep>
  <scstep>
   <time name="total">   25.56   25.80</time>
   <energy>
    <i name="e_fr_energy">   -184.02153904 </i>
    <i name="e_wo_entrp">   -184.01888519 </i>
    <i name="e_0_energy">   -184.02021212 </i>
   </energy>
  </scstep>
  <scstep>
   <time name="total">   25.71   25.96</time>
   <energy>
    <i name="e_fr_energy">   -184.10955375 </i>
    <i name="e_wo_entrp">   -184.10685991 </i>
    <i name="e_0_energy">   -184.10820683 </i>
   </energy>
  </scstep>
  <scstep>
   <time name="total">   25.53   25.77</time>
   <energy>
    <i name="e_fr_energy">   -184.15802688 </i>
    <i name="e_wo_entrp">   -184.15536782 </i>
    <i name="e_0_energy">   -184.15669735 </i>
   </energy>
  </scstep>
  <scstep>
   <time name="total">   25.80   26.04</time>
   <energy>
    <i name="e_fr_energy">   -184.17577674 </i>
    <i name="e_wo_entrp">   -184.17314144 </i>
    <i name="e_0_energy">   -184.17445909 </i>
   </energy>
  </scstep>
  <scstep>
   <time name="total">   25.46   25.70</time>
   <energy>
    <i name="e_fr_energy">   -184.18537034 </i>
    <i name="e_wo_entrp">   -184.18278343 </i>
    <i name="e_0_energy">   -184.18407688 </i>
   </energy>
  </scstep>
  <scstep>
   <time name="total">   25.10   25.34</time>
   <energy>
    <i name="e_fr_energy">   -184.19433167 </i>
    <i name="e_wo_entrp">   -184.19178670 </i>
    <i name="e_0_energy">   -184.19305919 </i>
   </energy>
  </scstep>
  <scstep>
   <time name="total">   25.41   25.64</time>
   <energy>
    <i name="e_fr_energy">   -184.19763909 </i>
    <i name="e_wo_entrp">   -184.19510455 </i>
    <i name="e_0_energy">   -184.19637182 </i>
   </energy>
  </scstep>
  <scstep>
   <time name="total">   25.64   25.88</time>
   <energy>
    <i name="e_fr_energy">   -184.19917122 </i>
    <i name="e_wo_entrp">   -184.19664380 </i>
    <i name="e_0_energy">   -184.19790751 </i>
   </energy>
  </scstep>
  <scstep>
   <time name="total">   25.29   25.54</time>
   <energy>
    <i name="e_fr_energy">   -184.20016568 </i>
    <i name="e_wo_entrp">   -184.19764258 </i>
    <i name="e_0_energy">   -184.19890413 </i>
   </energy>
  </scstep>
  <scstep>
   <time name="total">   25.76   26.00</time>
   <energy>
    <i name="e_fr_energy">   -184.20056178 </i>
    <i name="e_wo_entrp">   -184.19803715 </i>
    <i name="e_0_energy">   -184.19929946 </i>
   </energy>
  </scstep>
  <scstep>
   <time name="total">   25.33   25.58</time>
   <energy>
    <i name="e_fr_energy">   -184.20084603 </i>
    <i name="e_wo_entrp">   -184.19831853 </i>
    <i name="e_0_energy">   -184.19958228 </i>
   </energy>
  </scstep>
  <scstep>
   <time name="total">   25.46   25.71</time>
   <energy>
    <i name="e_fr_energy">   -184.20096821 </i>
    <i name="e_wo_entrp">   -184.19844049 </i>
    <i name="e_0_energy">   -184.19970435 </i>
   </energy>
  </scstep>
  <scstep>
   <time name="total">   25.66   25.91</time>
   <energy>
    <i name="e_fr_energy">   -184.20105605 </i>
    <i name="e_wo_entrp">   -184.19852669 </i>
    <i name="e_0_energy">   -184.19979137 </i>
   </energy>
  </scstep>
  <scstep>
   <time name="total">   25.24   25.49</time>
   <energy>
    <i name="e_fr_energy">   -184.20109113 </i>
    <i name="e_wo_entrp">   -184.19856094 </i>
    <i name="e_0_energy">   -184.19982604 </i>
   </energy>
  </scstep>
  <scstep>
   <time name="total">   25.43   25.67</time>
   <energy>
    <i name="e_fr_energy">   -184.20110951 </i>
    <i name="e_wo_entrp">   -184.19857844 </i>
    <i name="e_0_energy">   -184.19984397 </i>
   </energy>
  </scstep>
  <scstep>
   <time name="total">   25.45   25.69</time>
   <energy>
    <i name="e_fr_energy">   -184.20112303 </i>
    <i name="e_wo_entrp">   -184.19859121 </i>
    <i name="e_0_energy">   -184.19985712 </i>
   </energy>
  </scstep>
  <scstep>
   <time name="total">   25.20   25.44</time>
   <energy>
    <i name="e_fr_energy">   -184.20112759 </i>
    <i name="e_wo_entrp">   -184.19859514 </i>
    <i name="e_0_energy">   -184.19986136 </i>
   </energy>
  </scstep>
  <scstep>
   <time name="total">   25.47   25.71</time>
   <energy>
    <i name="e_fr_energy">   -184.20113113 </i>
    <i name="e_wo_entrp">   -184.19859866 </i>
    <i name="e_0_energy">   -184.19986489 </i>
   </energy>
  </scstep>
  <scstep>
   <time name="total">   25.65   25.89</time>
   <energy>
    <i name="e_fr_energy">   -184.20113247 </i>
    <i name="e_wo_entrp">   -184.19859981 </i>
    <i name="e_0_energy">   -184.19986614 </i>
   </energy>
  </scstep>
  <scstep>
   <time name="total">   25.46   25.70</time>
   <energy>
    <i name="e_fr_energy">   -184.20113322 </i>
    <i name="e_wo_entrp">   -184.19860045 </i>
    <i name="e_0_energy">   -184.19986684 </i>
   </energy>
  </scstep>
  <scstep>
   <time name="total">   25.66   25.90</time>
   <energy>
    <i name="e_fr_energy">   -184.20113353 </i>
    <i name="e_wo_entrp">   -184.19860094 </i>
    <i name="e_0_energy">   -184.19986723 </i>
   </energy>
  </scstep>
  <scstep>
   <time name="total">   25.38   25.61</time>
   <energy>
    <i name="e_fr_energy">   -184.20113377 </i>
    <i name="e_wo_entrp">   -184.19860116 </i>
    <i name="e_0_energy">   -184.19986747 </i>
   </energy>
  </scstep>
  <scstep>
   <time name="total">   25.54   25.78</time>
   <energy>
    <i name="e_fr_energy">   -184.20113401 </i>
    <i name="e_wo_entrp">   -184.19860134 </i>
    <i name="e_0_energy">   -184.19986768 </i>
   </energy>
  </scstep>
  <scstep>
   <time name="total">   25.58   25.82</time>
   <energy>
    <i name="e_fr_energy">   -184.20113405 </i>
    <i name="e_wo_entrp">   -184.19860138 </i>
    <i name="e_0_energy">   -184.19986772 </i>
   </energy>
  </scstep>
  <scstep>
   <time name="total">   25.32   25.54</time>
   <energy>
    <i name="e_fr_energy">   -184.20113407 </i>
    <i name="e_wo_entrp">   -184.19860148 </i>
    <i name="e_0_energy">   -184.19986778 </i>
   </energy>
  </scstep>
  <scstep>
   <time name="total">   25.39   25.62</time>
   <energy>
    <i name="e_fr_energy">   -184.20113410 </i>
    <i name="e_wo_entrp">   -184.19860152 </i>
    <i name="e_0_energy">   -184.19986781 </i>
   </energy>
  </scstep>
  <scstep>
   <time name="total">   25.24   25.47</time>
   <energy>
    <i name="e_fr_energy">   -184.20113411 </i>
    <i name="e_wo_entrp">   -184.19860152 </i>
    <i name="e_0_energy">   -184.19986781 </i>
   </energy>
  </scstep>
  <scstep>
   <time name="total">   24.88   25.11</time>
   <energy>
    <i name="e_fr_energy">   -184.20113411 </i>
    <i name="e_wo_entrp">   -184.19860153 </i>
    <i name="e_0_energy">   -184.19986782 </i>
   </energy>
  </scstep>
  <scstep>
   <time name="total">   25.69   25.92</time>
   <energy>
    <i name="e_fr_energy">   -184.20113412 </i>
    <i name="e_wo_entrp">   -184.19860154 </i>
    <i name="e_0_energy">   -184.19986783 </i>
   </energy>
  </scstep>
  <scstep>
   <time name="total">   25.55   25.78</time>
   <energy>
    <i name="e_fr_energy">   -184.20113412 </i>
    <i name="e_wo_entrp">   -184.19860155 </i>
    <i name="e_0_energy">   -184.19986784 </i>
   </energy>
  </scstep>
  <scstep>
   <time name="total">   44.05   44.44</time>
   <energy>
    <i name="e_fr_energy">   -184.20113413 </i>
    <i name="e_wo_entrp">   -184.19860163 </i>
    <i name="e_0_energy">   -184.19986788 </i>
   </energy>
  </scstep>
  <scstep>
   <time name="total">   25.44   25.67</time>
   <energy>
    <i name="e_fr_energy">   -184.20113412 </i>
    <i name="e_wo_entrp">   -184.19860158 </i>
    <i name="e_0_energy">   -184.19986785 </i>
   </energy>
  </scstep>
  <scstep>
   <time name="total">   25.14   25.37</time>
   <energy>
    <i name="e_fr_energy">   -184.20113413 </i>
    <i name="e_wo_entrp">   -184.19860159 </i>
    <i name="e_0_energy">   -184.19986786 </i>
   </energy>
  </scstep>
  <scstep>
   <time name="total">   29.41   29.68</time>
   <energy>
    <i name="alphaZ">    565.34427319 </i>
    <i name="ewald">  -9537.86414705 </i>
    <i name="hartreedc">  -2331.03701554 </i>
    <i name="XCdc">    472.84715441 </i>
    <i name="pawpsdc">  16422.21648938 </i>
    <i name="pawaedc"> -16376.69443826 </i>
    <i name="eentropy">     -0.00253255 </i>
    <i name="bandstr">  -1127.31148203 </i>
    <i name="atom">  11728.30056431 </i>
    <i name="e_fr_energy">   -184.20113413 </i>
    <i name="e_wo_entrp">   -184.19860159 </i>
    <i name="e_0_energy">   -184.19986786 </i>
   </energy>
  </scstep>
  <structure>
   <crystal>
    <varray name="basis" >
     <v>       5.24992726       0.00000000      -3.31284175 </v>
     <v>      -1.59639335       5.00132628      -3.31284175 </v>
     <v>       0.00000000       0.00000000       6.20779000 </v>
    </varray>
    <i name="volume">    162.99545375 </i>
    <varray name="rec_basis" >
     <v>       0.19047883       0.06079970       0.00000000 </v>
     <v>       0.00000000       0.19994696       0.00000000 </v>
     <v>       0.10165070       0.13914975       0.16108792 </v>
    </varray>
   </crystal>
   <varray name="positions" >
    <v>       0.25000000       0.75000000       0.50000000 </v>
    <v>       0.75000000       0.25000000       0.50000000 </v>
    <v>       0.25000000       0.25000000       0.00000000 </v>
    <v>       0.73745000       0.23745000       0.97489000 </v>
    <v>       0.75000000       0.75000000       0.00000000 </v>
    <v>       0.26255000       0.76255000       0.02511000 </v>
    <v>       0.23745000       0.26255000       0.50000000 </v>
    <v>       0.76255000       0.73745000       0.50000000 </v>
    <v>       0.00970000       0.50970000       0.02001000 </v>
    <v>       0.50000000       0.50000000       0.50000000 </v>
    <v>       0.48969000       0.98969000       0.97999000 </v>
    <v>       0.00000000       0.00000000       0.50000000 </v>
   </varray>
  </structure>
  <varray name="forces" >
   <v>       0.00000000       0.00000000       0.00000000 </v>
   <v>       0.00000000       0.00000000       0.00000000 </v>
   <v>       0.00000000       0.00000000       0.00000000 </v>
   <v>       0.00000000       0.00000000       0.00000000 </v>
   <v>       0.00000000       0.00000000       0.00000000 </v>
   <v>       0.00000000       0.00000000       0.00000000 </v>
   <v>       0.00000000       0.00000000       0.00000000 </v>
   <v>       0.00000000       0.00000000       0.00000000 </v>
   <v>       0.00000000       0.00000000       0.00000000 </v>
   <v>       0.00000000       0.00000000       0.00000000 </v>
   <v>       0.00000000       0.00000000       0.00000000 </v>
   <v>       0.00000000       0.00000000       0.00000000 </v>
  </varray>
  <varray name="stress" >
   <v>       0.00000000       0.00000000       0.00000000 </v>
   <v>       0.00000000       0.00000000       0.00000000 </v>
   <v>       0.00000000       0.00000000       0.00000000 </v>
  </varray>
  <energy>
   <i name="e_fr_energy">   -184.20113413 </i>
   <i name="e_wo_entrp">   -184.19860159 </i>
   <i name="e_0_energy">   -184.19986786 </i>
  </energy>
  <time name="totalsc"> 1110.01 1120.43</time>
  <eigenvalues>
   <array>
    <dimension dim="1">band</dimension>
    <dimension dim="2">kpoint</dimension>
    <dimension dim="3">spin</dimension>
    <field>eigene</field>
    <field>occ</field>
    <set>
     <set comment="spin 1">
      <set comment="kpoint 1">
       <r>  -51.7766    1.0000 </r>
       <r>  -51.7341    1.0000 </r>
       <r>  -51.7302    1.0000 </r>
       <r>  -51.6932    1.0000 </r>
       <r>  -51.1563    1.0000 </r>
       <r>  -51.1542    1.0000 </r>
       <r>  -25.4792    1.0000 </r>
       <r>  -25.4781    1.0000 </r>
       <r>  -25.3888    1.0000 </r>
       <r>  -25.3718    1.0000 </r>
       <r>  -25.3694    1.0000 </r>
       <r>  -25.3690    1.0000 </r>
       <r>  -25.3673    1.0000 </r>
       <r>  -25.2318    1.0000 </r>
       <r>  -25.1117    1.0000 </r>
       <r>  -25.1078    1.0000 </r>
       <r>  -25.0020    1.0000 </r>
       <r>  -25.0000    1.0000 </r>
       <r>  -24.9211    1.0000 </r>
       <r>  -24.8808    1.0000 </r>
       <r>  -24.8792    1.0000 </r>
       <r>  -24.8477    1.0000 </r>
       <r>  -24.2410    1.0000 </r>
       <r>  -24.2407    1.0000 </r>
       <r>   -2.5999    1.0000 </r>
       <r>    0.0448    1.0000 </r>
       <r>    1.7985    1.0000 </r>
       <r>    2.4719    1.0000 </r>
       <r>    2.4876    1.0000 </r>
       <r>    4.6579    1.0000 </r>
       <r>    5.0376    1.0000 </r>
       <r>    5.0493    1.0000 </r>
       <r>    5.4594    1.0000 </r>
       <r>    5.5009    1.0000 </r>
       <r>    6.0861    1.0000 </r>
       <r>    6.3228    1.0000 </r>
       <r>    6.5618    1.0000 </r>
       <r>    7.0463    1.0000 </r>
       <r>    7.0472    1.0000 </r>
       <r>    7.1740    1.0000 </r>
       <r>    7.2857    1.0000 </r>
       <r>    8.0433    1.0000 </r>
       <r>    8.6154    1.0000 </r>
       <r>    8.6175    1.0000 </r>
       <r>    9.1115    1.0000 </r>
       <r>    9.6387    1.0000 </r>
       <r>    9.9608    1.0000 </r>
       <r>   10.6090    1.0000 </r>
       <r>   10.7548    1.0000 </r>
       <r>   10.7657    1.0000 </r>
       <r>   10.8134    1.0000 </r>
       <r>   10.8392    1.0000 </r>
       <r>   10.9291    1.0000 </r>
       <r>   10.9872    0.5189 </r>
       <r>   11.1178    0.0000 </r>
       <r>   11.2091    0.0000 </r>
       <r>   11.2164    0.0000 </r>
       <r>   12.8071    0.0000 </r>
       <r>   13.2706    0.0000 </r>
       <r>   13.3925    0.0000 </r>
       <r>   13.4036    0.0000 </r>
       <r>   13.8067    0.0000 </r>
       <r>   13.8777    0.0000 </r>
       <r>   14.3493    0.0000 </r>
       <r>   14.5290    0.0000 </r>
       <r>   14.7462    0.0000 </r>
      </set>
      <set comment="kpoint 2">
       <r>  -51.7743    1.0000 </r>
       <r>  -51.7350    1.0000 </r>
       <r>  -51.7295    1.0000 </r>
       <r>  -51.6951    1.0000 </r>
       <r>  -51.1563    1.0000 </r>
       <r>  -51.1545    1.0000 </r>
       <r>  -25.4687    1.0000 </r>
       <r>  -25.4651    1.0000 </r>
       <r>  -25.3837    1.0000 </r>
       <r>  -25.3702    1.0000 </r>
       <r>  -25.3615    1.0000 </r>
       <r>  -25.3492    1.0000 </r>
       <r>  -25.3458    1.0000 </r>
       <r>  -25.2353    1.0000 </r>
       <r>  -25.1177    1.0000 </r>
       <r>  -25.1077    1.0000 </r>
       <r>  -25.0124    1.0000 </r>
       <r>  -25.0097    1.0000 </r>
       <r>  -24.9338    1.0000 </r>
       <r>  -24.9019    1.0000 </r>
       <r>  -24.8814    1.0000 </r>
       <r>  -24.8575    1.0000 </r>
       <r>  -24.2463    1.0000 </r>
       <r>  -24.2460    1.0000 </r>
       <r>   -2.4734    1.0000 </r>
       <r>    0.0092    1.0000 </r>
       <r>    1.7830    1.0000 </r>
       <r>    2.2069    1.0000 </r>
       <r>    2.3781    1.0000 </r>
       <r>    4.7819    1.0000 </r>
       <r>    4.9889    1.0000 </r>
       <r>    5.1975    1.0000 </r>
       <r>    5.3161    1.0000 </r>
       <r>    5.5412    1.0000 </r>
       <r>    6.1499    1.0000 </r>
       <r>    6.3238    1.0000 </r>
       <r>    6.8196    1.0000 </r>
       <r>    6.8893    1.0000 </r>
       <r>    7.1694    1.0000 </r>
       <r>    7.4025    1.0000 </r>
       <r>    7.6074    1.0000 </r>
       <r>    8.0059    1.0000 </r>
       <r>    8.5778    1.0000 </r>
       <r>    8.7356    1.0000 </r>
       <r>    9.1596    1.0000 </r>
       <r>    9.6883    1.0000 </r>
       <r>   10.2032    1.0000 </r>
       <r>   10.3367    1.0000 </r>
       <r>   10.5177    1.0000 </r>
       <r>   10.6393    1.0000 </r>
       <r>   10.7314    1.0000 </r>
       <r>   10.7763    1.0000 </r>
       <r>   10.8328    1.0000 </r>
       <r>   10.9214    1.0000 </r>
       <r>   11.1451    0.0000 </r>
       <r>   11.2807    0.0000 </r>
       <r>   11.3059    0.0000 </r>
       <r>   12.5830    0.0000 </r>
       <r>   12.8534    0.0000 </r>
       <r>   13.0465    0.0000 </r>
       <r>   13.2071    0.0000 </r>
       <r>   13.3674    0.0000 </r>
       <r>   13.4078    0.0000 </r>
       <r>   13.5480    0.0000 </r>
       <r>   14.2256    0.0000 </r>
       <r>   14.7073    0.0000 </r>
      </set>
      <set comment="kpoint 3">
       <r>  -51.7679    1.0000 </r>
       <r>  -51.7404    1.0000 </r>
       <r>  -51.7246    1.0000 </r>
       <r>  -51.7005    1.0000 </r>
       <r>  -51.1564    1.0000 </r>
       <r>  -51.1551    1.0000 </r>
       <r>  -25.4447    1.0000 </r>
       <r>  -25.4281    1.0000 </r>
       <r>  -25.3868    1.0000 </r>
       <r>  -25.3584    1.0000 </r>
       <r>  -25.3359    1.0000 </r>
       <r>  -25.3071    1.0000 </r>
       <r>  -25.2829    1.0000 </r>
       <r>  -25.2393    1.0000 </r>
       <r>  -25.1340    1.0000 </r>
       <r>  -25.0972    1.0000 </r>
       <r>  -25.0422    1.0000 </r>
       <r>  -25.0388    1.0000 </r>
       <r>  -24.9777    1.0000 </r>
       <r>  -24.9621    1.0000 </r>
       <r>  -24.8842    1.0000 </r>
       <r>  -24.8729    1.0000 </r>
       <r>  -24.2583    1.0000 </r>
       <r>  -24.2573    1.0000 </r>
       <r>   -2.1091    1.0000 </r>
       <r>   -0.2466    1.0000 </r>
       <r>    1.7400    1.0000 </r>
       <r>    1.9961    1.0000 </r>
       <r>    2.1700    1.0000 </r>
       <r>    3.8219    1.0000 </r>
       <r>    5.1910    1.0000 </r>
       <r>    5.6916    1.0000 </r>
       <r>    5.8407    1.0000 </r>
       <r>    5.9674    1.0000 </r>
       <r>    6.0699    1.0000 </r>
       <r>    6.2763    1.0000 </r>
       <r>    7.0289    1.0000 </r>
       <r>    7.2128    1.0000 </r>
       <r>    7.3789    1.0000 </r>
       <r>    7.5820    1.0000 </r>
       <r>    8.0087    1.0000 </r>
       <r>    8.1984    1.0000 </r>
       <r>    8.4038    1.0000 </r>
       <r>    9.0456    1.0000 </r>
       <r>    9.2853    1.0000 </r>
       <r>    9.5808    1.0000 </r>
       <r>    9.6478    1.0000 </r>
       <r>    9.7362    1.0000 </r>
       <r>   10.2993    1.0000 </r>
       <r>   10.5428    1.0000 </r>
       <r>   10.6022    1.0000 </r>
       <r>   10.6972    1.0000 </r>
       <r>   10.9683    0.9161 </r>
       <r>   11.1017    0.0000 </r>
       <r>   11.1908    0.0000 </r>
       <r>   11.5598    0.0000 </r>
       <r>   11.6785    0.0000 </r>
       <r>   11.9528    0.0000 </r>
       <r>   12.2121    0.0000 </r>
       <r>   12.3531    0.0000 </r>
       <r>   12.9192    0.0000 </r>
       <r>   13.0040    0.0000 </r>
       <r>   13.1993    0.0000 </r>
       <r>   13.4575    0.0000 </r>
       <r>   14.1131    0.0000 </r>
       <r>   14.5533    0.0000 </r>
      </set>
      <set comment="kpoint 4">
       <r>  -51.7588    1.0000 </r>
       <r>  -51.7489    1.0000 </r>
       <r>  -51.7170    1.0000 </r>
       <r>  -51.7083    1.0000 </r>
       <r>  -51.1562    1.0000 </r>
       <r>  -51.1558    1.0000 </r>
       <r>  -25.4193    1.0000 </r>
       <r>  -25.3999    1.0000 </r>
       <r>  -25.3763    1.0000 </r>
       <r>  -25.3388    1.0000 </r>
       <r>  -25.3222    1.0000 </r>
       <r>  -25.3159    1.0000 </r>
       <r>  -25.1933    1.0000 </r>
       <r>  -25.1847    1.0000 </r>
       <r>  -25.1443    1.0000 </r>
       <r>  -25.0999    1.0000 </r>
       <r>  -25.0812    1.0000 </r>
       <r>  -25.0670    1.0000 </r>
       <r>  -25.0490    1.0000 </r>
       <r>  -25.0267    1.0000 </r>
       <r>  -24.8854    1.0000 </r>
       <r>  -24.8811    1.0000 </r>
       <r>  -24.2672    1.0000 </r>
       <r>  -24.2667    1.0000 </r>
       <r>   -1.5688    1.0000 </r>
       <r>   -0.8064    1.0000 </r>
       <r>    1.7636    1.0000 </r>
       <r>    1.9853    1.0000 </r>
       <r>    2.2621    1.0000 </r>
       <r>    2.9482    1.0000 </r>
       <r>    5.3667    1.0000 </r>
       <r>    5.7122    1.0000 </r>
       <r>    5.9259    1.0000 </r>
       <r>    6.2329    1.0000 </r>
       <r>    6.6217    1.0000 </r>
       <r>    6.7805    1.0000 </r>
       <r>    7.2491    1.0000 </r>
       <r>    7.3533    1.0000 </r>
       <r>    7.4837    1.0000 </r>
       <r>    7.7895    1.0000 </r>
       <r>    7.8768    1.0000 </r>
       <r>    8.2062    1.0000 </r>
       <r>    8.5536    1.0000 </r>
       <r>    8.9235    1.0000 </r>
       <r>    9.2304    1.0000 </r>
       <r>    9.3061    1.0000 </r>
       <r>    9.4162    1.0000 </r>
       <r>    9.5611    1.0000 </r>
       <r>   10.1855    1.0000 </r>
       <r>   10.3512    1.0000 </r>
       <r>   10.5121    1.0000 </r>
       <r>   10.6193    1.0000 </r>
       <r>   11.0026    0.1479 </r>
       <r>   11.1222    0.0000 </r>
       <r>   11.4205    0.0000 </r>
       <r>   11.5526    0.0000 </r>
       <r>   11.6930    0.0000 </r>
       <r>   11.7633    0.0000 </r>
       <r>   12.0583    0.0000 </r>
       <r>   12.2555    0.0000 </r>
       <r>   12.4945    0.0000 </r>
       <r>   12.9018    0.0000 </r>
       <r>   12.9830    0.0000 </r>
       <r>   13.2432    0.0000 </r>
       <r>   13.6372    0.0000 </r>
       <r>   14.0783    0.0000 </r>
      </set>
      <set comment="kpoint 5">
       <r>  -51.7717    1.0000 </r>
       <r>  -51.7343    1.0000 </r>
       <r>  -51.7305    1.0000 </r>
       <r>  -51.6970    1.0000 </r>
       <r>  -51.1566    1.0000 </r>
       <r>  -51.1547    1.0000 </r>
       <r>  -25.4553    1.0000 </r>
       <r>  -25.4364    1.0000 </r>
       <r>  -25.3812    1.0000 </r>
       <r>  -25.3558    1.0000 </r>
       <r>  -25.3449    1.0000 </r>
       <r>  -25.3314    1.0000 </r>
       <r>  -25.3266    1.0000 </r>
       <r>  -25.2424    1.0000 </r>
       <r>  -25.1155    1.0000 </r>
       <r>  -25.1152    1.0000 </r>
       <r>  -25.0407    1.0000 </r>
       <r>  -25.0217    1.0000 </r>
       <r>  -24.9442    1.0000 </r>
       <r>  -24.9108    1.0000 </r>
       <r>  -24.9020    1.0000 </r>
       <r>  -24.8685    1.0000 </r>
       <r>  -24.2553    1.0000 </r>
       <r>  -24.2544    1.0000 </r>
       <r>   -2.2901    1.0000 </r>
       <r>   -0.0052    1.0000 </r>
       <r>    1.6514    1.0000 </r>
       <r>    1.7971    1.0000 </r>
       <r>    2.4481    1.0000 </r>
       <r>    4.8074    1.0000 </r>
       <r>    4.9335    1.0000 </r>
       <r>    5.2730    1.0000 </r>
       <r>    5.4296    1.0000 </r>
       <r>    5.7965    1.0000 </r>
       <r>    6.0400    1.0000 </r>
       <r>    6.3259    1.0000 </r>
       <r>    6.9310    1.0000 </r>
       <r>    7.1841    1.0000 </r>
       <r>    7.3398    1.0000 </r>
       <r>    7.5747    1.0000 </r>
       <r>    7.8369    1.0000 </r>
       <r>    7.9245    1.0000 </r>
       <r>    8.6304    1.0000 </r>
       <r>    8.6767    1.0000 </r>
       <r>    9.1723    1.0000 </r>
       <r>    9.7200    1.0000 </r>
       <r>    9.7330    1.0000 </r>
       <r>   10.0725    1.0000 </r>
       <r>   10.2805    1.0000 </r>
       <r>   10.5416    1.0000 </r>
       <r>   10.7268    1.0000 </r>
       <r>   10.7844    1.0000 </r>
       <r>   10.9162    1.0000 </r>
       <r>   10.9748    0.8224 </r>
       <r>   11.3035    0.0000 </r>
       <r>   11.3127    0.0000 </r>
       <r>   11.6508    0.0000 </r>
       <r>   12.1903    0.0000 </r>
       <r>   12.3996    0.0000 </r>
       <r>   12.6111    0.0000 </r>
       <r>   12.9877    0.0000 </r>
       <r>   13.1006    0.0000 </r>
       <r>   13.1517    0.0000 </r>
       <r>   13.3681    0.0000 </r>
       <r>   14.3550    0.0000 </r>
       <r>   14.9538    0.0000 </r>
      </set>
      <set comment="kpoint 6">
       <r>  -51.7652    1.0000 </r>
       <r>  -51.7387    1.0000 </r>
       <r>  -51.7268    1.0000 </r>
       <r>  -51.7024    1.0000 </r>
       <r>  -51.1568    1.0000 </r>
       <r>  -51.1551    1.0000 </r>
       <r>  -25.4269    1.0000 </r>
       <r>  -25.3961    1.0000 </r>
       <r>  -25.3882    1.0000 </r>
       <r>  -25.3360    1.0000 </r>
       <r>  -25.3154    1.0000 </r>
       <r>  -25.3018    1.0000 </r>
       <r>  -25.2684    1.0000 </r>
       <r>  -25.2427    1.0000 </r>
       <r>  -25.1277    1.0000 </r>
       <r>  -25.0991    1.0000 </r>
       <r>  -25.0814    1.0000 </r>
       <r>  -25.0518    1.0000 </r>
       <r>  -24.9843    1.0000 </r>
       <r>  -24.9697    1.0000 </r>
       <r>  -24.9093    1.0000 </r>
       <r>  -24.8863    1.0000 </r>
       <r>  -24.2657    1.0000 </r>
       <r>  -24.2648    1.0000 </r>
       <r>   -1.8888    1.0000 </r>
       <r>   -0.2617    1.0000 </r>
       <r>    1.2218    1.0000 </r>
       <r>    1.7315    1.0000 </r>
       <r>    2.5384    1.0000 </r>
       <r>    3.9981    1.0000 </r>
       <r>    5.1543    1.0000 </r>
       <r>    5.4938    1.0000 </r>
       <r>    5.6583    1.0000 </r>
       <r>    5.8433    1.0000 </r>
       <r>    6.4023    1.0000 </r>
       <r>    6.7641    1.0000 </r>
       <r>    7.2110    1.0000 </r>
       <r>    7.4069    1.0000 </r>
       <r>    7.5958    1.0000 </r>
       <r>    7.6748    1.0000 </r>
       <r>    8.0203    1.0000 </r>
       <r>    8.3100    1.0000 </r>
       <r>    8.3973    1.0000 </r>
       <r>    8.8715    1.0000 </r>
       <r>    9.1573    1.0000 </r>
       <r>    9.2787    1.0000 </r>
       <r>    9.3596    1.0000 </r>
       <r>    9.7387    1.0000 </r>
       <r>   10.1740    1.0000 </r>
       <r>   10.5653    1.0000 </r>
       <r>   10.6964    1.0000 </r>
       <r>   10.7614    1.0000 </r>
       <r>   10.8798    1.0000 </r>
       <r>   11.0703    0.0000 </r>
       <r>   11.2863    0.0000 </r>
       <r>   11.5683    0.0000 </r>
       <r>   11.6312    0.0000 </r>
       <r>   11.8644    0.0000 </r>
       <r>   12.0739    0.0000 </r>
       <r>   12.1351    0.0000 </r>
       <r>   12.7803    0.0000 </r>
       <r>   12.9904    0.0000 </r>
       <r>   13.0469    0.0000 </r>
       <r>   13.2640    0.0000 </r>
       <r>   13.9302    0.0000 </r>
       <r>   14.3120    0.0000 </r>
      </set>
      <set comment="kpoint 7">
       <r>  -51.7562    1.0000 </r>
       <r>  -51.7473    1.0000 </r>
       <r>  -51.7192    1.0000 </r>
       <r>  -51.7102    1.0000 </r>
       <r>  -51.1566    1.0000 </r>
       <r>  -51.1556    1.0000 </r>
       <r>  -25.4113    1.0000 </r>
       <r>  -25.3974    1.0000 </r>
       <r>  -25.3495    1.0000 </r>
       <r>  -25.3356    1.0000 </r>
       <r>  -25.3136    1.0000 </r>
       <r>  -25.2995    1.0000 </r>
       <r>  -25.1960    1.0000 </r>
       <r>  -25.1774    1.0000 </r>
       <r>  -25.1337    1.0000 </r>
       <r>  -25.1217    1.0000 </r>
       <r>  -25.0899    1.0000 </r>
       <r>  -25.0661    1.0000 </r>
       <r>  -25.0565    1.0000 </r>
       <r>  -25.0307    1.0000 </r>
       <r>  -24.9099    1.0000 </r>
       <r>  -24.8952    1.0000 </r>
       <r>  -24.2696    1.0000 </r>
       <r>  -24.2692    1.0000 </r>
       <r>   -1.3636    1.0000 </r>
       <r>   -0.8309    1.0000 </r>
       <r>    1.1924    1.0000 </r>
       <r>    1.6400    1.0000 </r>
       <r>    2.7981    1.0000 </r>
       <r>    3.2963    1.0000 </r>
       <r>    5.1748    1.0000 </r>
       <r>    5.5671    1.0000 </r>
       <r>    5.7894    1.0000 </r>
       <r>    6.0212    1.0000 </r>
       <r>    6.9416    1.0000 </r>
       <r>    7.0520    1.0000 </r>
       <r>    7.3076    1.0000 </r>
       <r>    7.5817    1.0000 </r>
       <r>    7.6851    1.0000 </r>
       <r>    7.7789    1.0000 </r>
       <r>    8.0333    1.0000 </r>
       <r>    8.1081    1.0000 </r>
       <r>    8.6360    1.0000 </r>
       <r>    8.7356    1.0000 </r>
       <r>    9.1336    1.0000 </r>
       <r>    9.2031    1.0000 </r>
       <r>    9.4187    1.0000 </r>
       <r>    9.6558    1.0000 </r>
       <r>   10.2205    1.0000 </r>
       <r>   10.3329    1.0000 </r>
       <r>   10.4965    1.0000 </r>
       <r>   10.6067    1.0000 </r>
       <r>   10.9451    0.9987 </r>
       <r>   11.0283    0.0021 </r>
       <r>   11.2631    0.0000 </r>
       <r>   11.5127    0.0000 </r>
       <r>   11.6552    0.0000 </r>
       <r>   11.9143    0.0000 </r>
       <r>   12.0613    0.0000 </r>
       <r>   12.2388    0.0000 </r>
       <r>   12.3899    0.0000 </r>
       <r>   12.7244    0.0000 </r>
       <r>   13.0279    0.0000 </r>
       <r>   13.3834    0.0000 </r>
       <r>   13.4328    0.0000 </r>
       <r>   13.7477    0.0000 </r>
      </set>
      <set comment="kpoint 8">
       <r>  -51.7572    1.0000 </r>
       <r>  -51.7466    1.0000 </r>
       <r>  -51.7188    1.0000 </r>
       <r>  -51.7105    1.0000 </r>
       <r>  -51.1560    1.0000 </r>
       <r>  -51.1558    1.0000 </r>
       <r>  -25.4411    1.0000 </r>
       <r>  -25.3801    1.0000 </r>
       <r>  -25.3787    1.0000 </r>
       <r>  -25.3262    1.0000 </r>
       <r>  -25.3138    1.0000 </r>
       <r>  -25.2970    1.0000 </r>
       <r>  -25.2104    1.0000 </r>
       <r>  -25.1940    1.0000 </r>
       <r>  -25.1526    1.0000 </r>
       <r>  -25.0925    1.0000 </r>
       <r>  -25.0800    1.0000 </r>
       <r>  -25.0581    1.0000 </r>
       <r>  -25.0377    1.0000 </r>
       <r>  -25.0256    1.0000 </r>
       <r>  -24.9053    1.0000 </r>
       <r>  -24.8977    1.0000 </r>
       <r>  -24.2652    1.0000 </r>
       <r>  -24.2635    1.0000 </r>
       <r>   -1.6003    1.0000 </r>
       <r>   -0.6286    1.0000 </r>
       <r>    1.3013    1.0000 </r>
       <r>    1.5439    1.0000 </r>
       <r>    2.9055    1.0000 </r>
       <r>    3.3502    1.0000 </r>
       <r>    4.9737    1.0000 </r>
       <r>    5.6687    1.0000 </r>
       <r>    5.8614    1.0000 </r>
       <r>    6.0470    1.0000 </r>
       <r>    6.2746    1.0000 </r>
       <r>    7.1628    1.0000 </r>
       <r>    7.2454    1.0000 </r>
       <r>    7.4644    1.0000 </r>
       <r>    7.6914    1.0000 </r>
       <r>    7.7719    1.0000 </r>
       <r>    7.9805    1.0000 </r>
       <r>    8.4244    1.0000 </r>
       <r>    8.5689    1.0000 </r>
       <r>    9.1006    1.0000 </r>
       <r>    9.1995    1.0000 </r>
       <r>    9.3803    1.0000 </r>
       <r>    9.5463    1.0000 </r>
       <r>    9.7549    1.0000 </r>
       <r>    9.9780    1.0000 </r>
       <r>   10.1893    1.0000 </r>
       <r>   10.4049    1.0000 </r>
       <r>   10.7276    1.0000 </r>
       <r>   10.8683    1.0000 </r>
       <r>   11.0692    0.0000 </r>
       <r>   11.5281    0.0000 </r>
       <r>   11.5666    0.0000 </r>
       <r>   11.6363    0.0000 </r>
       <r>   11.7456    0.0000 </r>
       <r>   12.1499    0.0000 </r>
       <r>   12.2478    0.0000 </r>
       <r>   12.5463    0.0000 </r>
       <r>   12.7487    0.0000 </r>
       <r>   12.9534    0.0000 </r>
       <r>   13.2273    0.0000 </r>
       <r>   13.6618    0.0000 </r>
       <r>   13.8209    0.0000 </r>
      </set>
      <set comment="kpoint 9">
       <r>  -51.7662    1.0000 </r>
       <r>  -51.7383    1.0000 </r>
       <r>  -51.7265    1.0000 </r>
       <r>  -51.7026    1.0000 </r>
       <r>  -51.1560    1.0000 </r>
       <r>  -51.1553    1.0000 </r>
       <r>  -25.4688    1.0000 </r>
       <r>  -25.4215    1.0000 </r>
       <r>  -25.3699    1.0000 </r>
       <r>  -25.3453    1.0000 </r>
       <r>  -25.3375    1.0000 </r>
       <r>  -25.3034    1.0000 </r>
       <r>  -25.2833    1.0000 </r>
       <r>  -25.2439    1.0000 </r>
       <r>  -25.1328    1.0000 </r>
       <r>  -25.1042    1.0000 </r>
       <r>  -25.0449    1.0000 </r>
       <r>  -25.0128    1.0000 </r>
       <r>  -24.9843    1.0000 </r>
       <r>  -24.9572    1.0000 </r>
       <r>  -24.8975    1.0000 </r>
       <r>  -24.8923    1.0000 </r>
       <r>  -24.2547    1.0000 </r>
       <r>  -24.2531    1.0000 </r>
       <r>   -2.1068    1.0000 </r>
       <r>   -0.1721    1.0000 </r>
       <r>    1.4645    1.0000 </r>
       <r>    1.5859    1.0000 </r>
       <r>    2.8140    1.0000 </r>
       <r>    4.1137    1.0000 </r>
       <r>    4.8841    1.0000 </r>
       <r>    5.3713    1.0000 </r>
       <r>    5.5291    1.0000 </r>
       <r>    5.7107    1.0000 </r>
       <r>    6.3301    1.0000 </r>
       <r>    6.6291    1.0000 </r>
       <r>    6.8660    1.0000 </r>
       <r>    7.2707    1.0000 </r>
       <r>    7.5001    1.0000 </r>
       <r>    7.8257    1.0000 </r>
       <r>    8.1255    1.0000 </r>
       <r>    8.2358    1.0000 </r>
       <r>    8.6099    1.0000 </r>
       <r>    9.0163    1.0000 </r>
       <r>    9.4182    1.0000 </r>
       <r>    9.7769    1.0000 </r>
       <r>    9.8281    1.0000 </r>
       <r>    9.9522    1.0000 </r>
       <r>   10.0071    1.0000 </r>
       <r>   10.2875    1.0000 </r>
       <r>   10.5893    1.0000 </r>
       <r>   10.6769    1.0000 </r>
       <r>   10.8556    1.0000 </r>
       <r>   11.1251    0.0000 </r>
       <r>   11.1651    0.0000 </r>
       <r>   11.3790    0.0000 </r>
       <r>   11.4686    0.0000 </r>
       <r>   12.1780    0.0000 </r>
       <r>   12.3207    0.0000 </r>
       <r>   12.6646    0.0000 </r>
       <r>   12.7424    0.0000 </r>
       <r>   13.1215    0.0000 </r>
       <r>   13.1943    0.0000 </r>
       <r>   13.3488    0.0000 </r>
       <r>   13.8419    0.0000 </r>
       <r>   14.1426    0.0000 </r>
      </set>
      <set comment="kpoint 10">
       <r>  -51.7723    1.0000 </r>
       <r>  -51.7342    1.0000 </r>
       <r>  -51.7303    1.0000 </r>
       <r>  -51.6971    1.0000 </r>
       <r>  -51.1561    1.0000 </r>
       <r>  -51.1547    1.0000 </r>
       <r>  -25.4797    1.0000 </r>
       <r>  -25.4536    1.0000 </r>
       <r>  -25.3760    1.0000 </r>
       <r>  -25.3575    1.0000 </r>
       <r>  -25.3562    1.0000 </r>
       <r>  -25.3449    1.0000 </r>
       <r>  -25.3384    1.0000 </r>
       <r>  -25.2367    1.0000 </r>
       <r>  -25.1144    1.0000 </r>
       <r>  -25.1135    1.0000 </r>
       <r>  -25.0179    1.0000 </r>
       <r>  -25.0022    1.0000 </r>
       <r>  -24.9441    1.0000 </r>
       <r>  -24.9061    1.0000 </r>
       <r>  -24.8929    1.0000 </r>
       <r>  -24.8704    1.0000 </r>
       <r>  -24.2460    1.0000 </r>
       <r>  -24.2454    1.0000 </r>
       <r>   -2.4115    1.0000 </r>
       <r>   -0.0148    1.0000 </r>
       <r>    1.6628    1.0000 </r>
       <r>    1.9099    1.0000 </r>
       <r>    2.7167    1.0000 </r>
       <r>    4.8059    1.0000 </r>
       <r>    5.0220    1.0000 </r>
       <r>    5.0406    1.0000 </r>
       <r>    5.2405    1.0000 </r>
       <r>    5.3139    1.0000 </r>
       <r>    6.2553    1.0000 </r>
       <r>    6.5143    1.0000 </r>
       <r>    6.6425    1.0000 </r>
       <r>    7.1262    1.0000 </r>
       <r>    7.2232    1.0000 </r>
       <r>    7.6375    1.0000 </r>
       <r>    7.7379    1.0000 </r>
       <r>    8.1318    1.0000 </r>
       <r>    8.6691    1.0000 </r>
       <r>    8.7604    1.0000 </r>
       <r>    9.2636    1.0000 </r>
       <r>    9.8761    1.0000 </r>
       <r>   10.1004    1.0000 </r>
       <r>   10.2964    1.0000 </r>
       <r>   10.4197    1.0000 </r>
       <r>   10.5937    1.0000 </r>
       <r>   10.6077    1.0000 </r>
       <r>   10.6805    1.0000 </r>
       <r>   10.8113    1.0000 </r>
       <r>   10.8699    1.0000 </r>
       <r>   11.1885    0.0000 </r>
       <r>   11.2200    0.0000 </r>
       <r>   11.2405    0.0000 </r>
       <r>   12.5853    0.0000 </r>
       <r>   12.7837    0.0000 </r>
       <r>   12.9820    0.0000 </r>
       <r>   13.1274    0.0000 </r>
       <r>   13.5253    0.0000 </r>
       <r>   13.6695    0.0000 </r>
       <r>   13.9212    0.0000 </r>
       <r>   14.2036    0.0000 </r>
       <r>   14.5018    0.0000 </r>
      </set>
      <set comment="kpoint 11">
       <r>  -51.7589    1.0000 </r>
       <r>  -51.7348    1.0000 </r>
       <r>  -51.7315    1.0000 </r>
       <r>  -51.7078    1.0000 </r>
       <r>  -51.1570    1.0000 </r>
       <r>  -51.1553    1.0000 </r>
       <r>  -25.4087    1.0000 </r>
       <r>  -25.3906    1.0000 </r>
       <r>  -25.3581    1.0000 </r>
       <r>  -25.2998    1.0000 </r>
       <r>  -25.2891    1.0000 </r>
       <r>  -25.2738    1.0000 </r>
       <r>  -25.2416    1.0000 </r>
       <r>  -25.2405    1.0000 </r>
       <r>  -25.1383    1.0000 </r>
       <r>  -25.1119    1.0000 </r>
       <r>  -25.0903    1.0000 </r>
       <r>  -25.0685    1.0000 </r>
       <r>  -25.0099    1.0000 </r>
       <r>  -24.9862    1.0000 </r>
       <r>  -24.9622    1.0000 </r>
       <r>  -24.9140    1.0000 </r>
       <r>  -24.2709    1.0000 </r>
       <r>  -24.2704    1.0000 </r>
       <r>   -1.4858    1.0000 </r>
       <r>   -0.3024    1.0000 </r>
       <r>    0.5062    1.0000 </r>
       <r>    1.5034    1.0000 </r>
       <r>    2.9679    1.0000 </r>
       <r>    4.3382    1.0000 </r>
       <r>    4.5676    1.0000 </r>
       <r>    5.2343    1.0000 </r>
       <r>    5.7866    1.0000 </r>
       <r>    5.8174    1.0000 </r>
       <r>    7.0390    1.0000 </r>
       <r>    7.2196    1.0000 </r>
       <r>    7.4228    1.0000 </r>
       <r>    7.5106    1.0000 </r>
       <r>    7.6474    1.0000 </r>
       <r>    7.8864    1.0000 </r>
       <r>    8.0116    1.0000 </r>
       <r>    8.4499    1.0000 </r>
       <r>    8.5721    1.0000 </r>
       <r>    8.7724    1.0000 </r>
       <r>    8.9517    1.0000 </r>
       <r>    8.9584    1.0000 </r>
       <r>    9.4919    1.0000 </r>
       <r>    9.9728    1.0000 </r>
       <r>    9.9968    1.0000 </r>
       <r>   10.3719    1.0000 </r>
       <r>   10.5749    1.0000 </r>
       <r>   10.8194    1.0000 </r>
       <r>   10.9129    1.0000 </r>
       <r>   10.9136    1.0000 </r>
       <r>   11.2528    0.0000 </r>
       <r>   11.5070    0.0000 </r>
       <r>   11.6279    0.0000 </r>
       <r>   11.6850    0.0000 </r>
       <r>   12.0889    0.0000 </r>
       <r>   12.1297    0.0000 </r>
       <r>   12.5600    0.0000 </r>
       <r>   12.7895    0.0000 </r>
       <r>   12.9089    0.0000 </r>
       <r>   12.9648    0.0000 </r>
       <r>   13.3798    0.0000 </r>
       <r>   13.7354    0.0000 </r>
      </set>
      <set comment="kpoint 12">
       <r>  -51.7502    1.0000 </r>
       <r>  -51.7421    1.0000 </r>
       <r>  -51.7252    1.0000 </r>
       <r>  -51.7156    1.0000 </r>
       <r>  -51.1568    1.0000 </r>
       <r>  -51.1554    1.0000 </r>
       <r>  -25.4408    1.0000 </r>
       <r>  -25.3568    1.0000 </r>
       <r>  -25.3207    1.0000 </r>
       <r>  -25.3138    1.0000 </r>
       <r>  -25.2761    1.0000 </r>
       <r>  -25.2545    1.0000 </r>
       <r>  -25.2201    1.0000 </r>
       <r>  -25.1784    1.0000 </r>
       <r>  -25.1392    1.0000 </r>
       <r>  -25.1305    1.0000 </r>
       <r>  -25.0984    1.0000 </r>
       <r>  -25.0759    1.0000 </r>
       <r>  -25.0481    1.0000 </r>
       <r>  -25.0343    1.0000 </r>
       <r>  -24.9722    1.0000 </r>
       <r>  -24.9293    1.0000 </r>
       <r>  -24.2711    1.0000 </r>
       <r>  -24.2685    1.0000 </r>
       <r>   -1.0559    1.0000 </r>
       <r>   -0.6598    1.0000 </r>
       <r>    0.3874    1.0000 </r>
       <r>    1.2268    1.0000 </r>
       <r>    3.4421    1.0000 </r>
       <r>    3.8585    1.0000 </r>
       <r>    4.7103    1.0000 </r>
       <r>    5.2863    1.0000 </r>
       <r>    5.7944    1.0000 </r>
       <r>    5.9618    1.0000 </r>
       <r>    6.6782    1.0000 </r>
       <r>    7.2043    1.0000 </r>
       <r>    7.4909    1.0000 </r>
       <r>    7.6899    1.0000 </r>
       <r>    7.9152    1.0000 </r>
       <r>    8.0600    1.0000 </r>
       <r>    8.1339    1.0000 </r>
       <r>    8.3734    1.0000 </r>
       <r>    8.7202    1.0000 </r>
       <r>    8.8668    1.0000 </r>
       <r>    8.9230    1.0000 </r>
       <r>    9.2512    1.0000 </r>
       <r>    9.6238    1.0000 </r>
       <r>    9.8562    1.0000 </r>
       <r>   10.0232    1.0000 </r>
       <r>   10.1321    1.0000 </r>
       <r>   10.4949    1.0000 </r>
       <r>   10.7132    1.0000 </r>
       <r>   10.9294    1.0000 </r>
       <r>   11.0457    0.0000 </r>
       <r>   11.2516    0.0000 </r>
       <r>   11.4537    0.0000 </r>
       <r>   11.6535    0.0000 </r>
       <r>   11.8516    0.0000 </r>
       <r>   11.9146    0.0000 </r>
       <r>   12.2653    0.0000 </r>
       <r>   12.4547    0.0000 </r>
       <r>   12.5466    0.0000 </r>
       <r>   12.7781    0.0000 </r>
       <r>   12.8904    0.0000 </r>
       <r>   13.4415    0.0000 </r>
       <r>   13.5974    0.0000 </r>
      </set>
      <set comment="kpoint 13">
       <r>  -51.7518    1.0000 </r>
       <r>  -51.7409    1.0000 </r>
       <r>  -51.7243    1.0000 </r>
       <r>  -51.7164    1.0000 </r>
       <r>  -51.1564    1.0000 </r>
       <r>  -51.1555    1.0000 </r>
       <r>  -25.4698    1.0000 </r>
       <r>  -25.3487    1.0000 </r>
       <r>  -25.3408    1.0000 </r>
       <r>  -25.2984    1.0000 </r>
       <r>  -25.2853    1.0000 </r>
       <r>  -25.2675    1.0000 </r>
       <r>  -25.2298    1.0000 </r>
       <r>  -25.1878    1.0000 </r>
       <r>  -25.1527    1.0000 </r>
       <r>  -25.1068    1.0000 </r>
       <r>  -25.1018    1.0000 </r>
       <r>  -25.0691    1.0000 </r>
       <r>  -25.0327    1.0000 </r>
       <r>  -25.0097    1.0000 </r>
       <r>  -24.9643    1.0000 </r>
       <r>  -24.9322    1.0000 </r>
       <r>  -24.2653    1.0000 </r>
       <r>  -24.2616    1.0000 </r>
       <r>   -1.4329    1.0000 </r>
       <r>   -0.3653    1.0000 </r>
       <r>    0.6614    1.0000 </r>
       <r>    1.0267    1.0000 </r>
       <r>    3.5336    1.0000 </r>
       <r>    4.0073    1.0000 </r>
       <r>    4.6317    1.0000 </r>
       <r>    5.3638    1.0000 </r>
       <r>    5.5606    1.0000 </r>
       <r>    6.0474    1.0000 </r>
       <r>    6.1461    1.0000 </r>
       <r>    7.1593    1.0000 </r>
       <r>    7.4817    1.0000 </r>
       <r>    7.5515    1.0000 </r>
       <r>    7.7765    1.0000 </r>
       <r>    8.0236    1.0000 </r>
       <r>    8.3143    1.0000 </r>
       <r>    8.6561    1.0000 </r>
       <r>    8.7811    1.0000 </r>
       <r>    8.8808    1.0000 </r>
       <r>    9.0636    1.0000 </r>
       <r>    9.3926    1.0000 </r>
       <r>    9.6785    1.0000 </r>
       <r>    9.8939    1.0000 </r>
       <r>    9.9963    1.0000 </r>
       <r>   10.4126    1.0000 </r>
       <r>   10.4443    1.0000 </r>
       <r>   10.6218    1.0000 </r>
       <r>   10.8557    1.0000 </r>
       <r>   11.1247    0.0000 </r>
       <r>   11.3579    0.0000 </r>
       <r>   11.4949    0.0000 </r>
       <r>   11.6345    0.0000 </r>
       <r>   11.8549    0.0000 </r>
       <r>   11.9803    0.0000 </r>
       <r>   12.1553    0.0000 </r>
       <r>   12.3765    0.0000 </r>
       <r>   12.5523    0.0000 </r>
       <r>   12.9521    0.0000 </r>
       <r>   13.2671    0.0000 </r>
       <r>   13.5011    0.0000 </r>
       <r>   13.6971    0.0000 </r>
      </set>
      <set comment="kpoint 14">
       <r>  -51.7604    1.0000 </r>
       <r>  -51.7343    1.0000 </r>
       <r>  -51.7305    1.0000 </r>
       <r>  -51.7083    1.0000 </r>
       <r>  -51.1558    1.0000 </r>
       <r>  -51.1557    1.0000 </r>
       <r>  -25.4807    1.0000 </r>
       <r>  -25.3888    1.0000 </r>
       <r>  -25.3482    1.0000 </r>
       <r>  -25.3157    1.0000 </r>
       <r>  -25.3061    1.0000 </r>
       <r>  -25.2825    1.0000 </r>
       <r>  -25.2642    1.0000 </r>
       <r>  -25.2515    1.0000 </r>
       <r>  -25.1261    1.0000 </r>
       <r>  -25.1240    1.0000 </r>
       <r>  -25.0678    1.0000 </r>
       <r>  -25.0097    1.0000 </r>
       <r>  -25.0026    1.0000 </r>
       <r>  -24.9723    1.0000 </r>
       <r>  -24.9370    1.0000 </r>
       <r>  -24.9247    1.0000 </r>
       <r>  -24.2579    1.0000 </r>
       <r>  -24.2549    1.0000 </r>
       <r>   -1.8729    1.0000 </r>
       <r>   -0.1284    1.0000 </r>
       <r>    1.0645    1.0000 </r>
       <r>    1.1337    1.0000 </r>
       <r>    3.2849    1.0000 </r>
       <r>    4.6100    1.0000 </r>
       <r>    4.6160    1.0000 </r>
       <r>    4.8295    1.0000 </r>
       <r>    5.5556    1.0000 </r>
       <r>    5.6411    1.0000 </r>
       <r>    6.2947    1.0000 </r>
       <r>    6.9945    1.0000 </r>
       <r>    7.2329    1.0000 </r>
       <r>    7.3327    1.0000 </r>
       <r>    7.6510    1.0000 </r>
       <r>    8.1211    1.0000 </r>
       <r>    8.2075    1.0000 </r>
       <r>    8.5325    1.0000 </r>
       <r>    8.7584    1.0000 </r>
       <r>    9.0667    1.0000 </r>
       <r>    9.1662    1.0000 </r>
       <r>    9.5901    1.0000 </r>
       <r>    9.6002    1.0000 </r>
       <r>    9.7435    1.0000 </r>
       <r>   10.2397    1.0000 </r>
       <r>   10.4638    1.0000 </r>
       <r>   10.4805    1.0000 </r>
       <r>   10.7596    1.0000 </r>
       <r>   10.9973    0.2525 </r>
       <r>   11.0470    0.0000 </r>
       <r>   11.1405    0.0000 </r>
       <r>   11.3851    0.0000 </r>
       <r>   11.5242    0.0000 </r>
       <r>   12.1044    0.0000 </r>
       <r>   12.2418    0.0000 </r>
       <r>   12.2841    0.0000 </r>
       <r>   12.3497    0.0000 </r>
       <r>   12.8076    0.0000 </r>
       <r>   13.3815    0.0000 </r>
       <r>   13.6014    0.0000 </r>
       <r>   13.7027    0.0000 </r>
       <r>   13.8345    0.0000 </r>
      </set>
      <set comment="kpoint 15">
       <r>  -51.7419    1.0000 </r>
       <r>  -51.7352    1.0000 </r>
       <r>  -51.7327    1.0000 </r>
       <r>  -51.7235    1.0000 </r>
       <r>  -51.1568    1.0000 </r>
       <r>  -51.1553    1.0000 </r>
       <r>  -25.4702    1.0000 </r>
       <r>  -25.3083    1.0000 </r>
       <r>  -25.3078    1.0000 </r>
       <r>  -25.2979    1.0000 </r>
       <r>  -25.2608    1.0000 </r>
       <r>  -25.2150    1.0000 </r>
       <r>  -25.1874    1.0000 </r>
       <r>  -25.1764    1.0000 </r>
       <r>  -25.1524    1.0000 </r>
       <r>  -25.1453    1.0000 </r>
       <r>  -25.1019    1.0000 </r>
       <r>  -25.0887    1.0000 </r>
       <r>  -25.0741    1.0000 </r>
       <r>  -25.0471    1.0000 </r>
       <r>  -25.0108    1.0000 </r>
       <r>  -24.9522    1.0000 </r>
       <r>  -24.2702    1.0000 </r>
       <r>  -24.2652    1.0000 </r>
       <r>   -0.8144    1.0000 </r>
       <r>   -0.3226    1.0000 </r>
       <r>   -0.1838    1.0000 </r>
       <r>    0.8377    1.0000 </r>
       <r>    4.0013    1.0000 </r>
       <r>    4.0134    1.0000 </r>
       <r>    4.4881    1.0000 </r>
       <r>    5.4053    1.0000 </r>
       <r>    5.9195    1.0000 </r>
       <r>    5.9369    1.0000 </r>
       <r>    6.3354    1.0000 </r>
       <r>    6.5451    1.0000 </r>
       <r>    7.5782    1.0000 </r>
       <r>    7.7804    1.0000 </r>
       <r>    7.8259    1.0000 </r>
       <r>    8.3452    1.0000 </r>
       <r>    8.4586    1.0000 </r>
       <r>    8.5070    1.0000 </r>
       <r>    8.7115    1.0000 </r>
       <r>    8.7664    1.0000 </r>
       <r>    9.3070    1.0000 </r>
       <r>    9.4499    1.0000 </r>
       <r>    9.8035    1.0000 </r>
       <r>    9.8613    1.0000 </r>
       <r>   10.1035    1.0000 </r>
[...]
       <r>    8.5104    1.0000 </r>
       <r>    8.5173    1.0000 </r>
       <r>    8.5752    1.0000 </r>
       <r>    8.8849    1.0000 </r>
       <r>    8.9328    1.0000 </r>
       <r>    9.0576    1.0000 </r>
       <r>    9.2191    1.0000 </r>
       <r>   10.1188    1.0000 </r>
       <r>   10.2783    1.0000 </r>
       <r>   10.6085    1.0000 </r>
       <r>   10.9343    0.9999 </r>
       <r>   11.2166    0.0000 </r>
       <r>   11.3533    0.0000 </r>
       <r>   11.6218    0.0000 </r>
       <r>   11.7890    0.0000 </r>
       <r>   11.8924    0.0000 </r>
       <r>   12.0338    0.0000 </r>
       <r>   12.1749    0.0000 </r>
       <r>   12.2170    0.0000 </r>
       <r>   13.1700    0.0000 </r>
       <r>   13.6115    0.0000 </r>
       <r>   14.3236    0.0000 </r>
       <r>   14.9417    0.0000 </r>
       <r>   15.2820    0.0000 </r>
      </set>
      <set comment="kpoint 116">
       <r>  -51.7721    1.0000 </r>
       <r>  -51.7349    1.0000 </r>
       <r>  -51.7310    1.0000 </r>
       <r>  -51.6935    1.0000 </r>
       <r>  -51.1593    1.0000 </r>
       <r>  -51.1544    1.0000 </r>
       <r>  -25.3770    1.0000 </r>
       <r>  -25.3497    1.0000 </r>
       <r>  -25.3097    1.0000 </r>
       <r>  -25.2989    1.0000 </r>
       <r>  -25.2977    1.0000 </r>
       <r>  -25.2795    1.0000 </r>
       <r>  -25.2764    1.0000 </r>
       <r>  -25.2593    1.0000 </r>
       <r>  -25.1960    1.0000 </r>
       <r>  -25.1903    1.0000 </r>
       <r>  -25.1434    1.0000 </r>
       <r>  -25.1270    1.0000 </r>
       <r>  -24.9284    1.0000 </r>
       <r>  -24.9214    1.0000 </r>
       <r>  -24.9193    1.0000 </r>
       <r>  -24.8520    1.0000 </r>
       <r>  -24.3033    1.0000 </r>
       <r>  -24.3003    1.0000 </r>
       <r>   -1.7933    1.0000 </r>
       <r>    0.1966    1.0000 </r>
       <r>    1.1369    1.0000 </r>
       <r>    1.4300    1.0000 </r>
       <r>    2.9269    1.0000 </r>
       <r>    4.0577    1.0000 </r>
       <r>    4.6471    1.0000 </r>
       <r>    4.6778    1.0000 </r>
       <r>    5.7382    1.0000 </r>
       <r>    6.4932    1.0000 </r>
       <r>    6.5425    1.0000 </r>
       <r>    7.1971    1.0000 </r>
       <r>    7.4617    1.0000 </r>
       <r>    7.7492    1.0000 </r>
       <r>    7.8272    1.0000 </r>
       <r>    7.8535    1.0000 </r>
       <r>    8.1084    1.0000 </r>
       <r>    8.2040    1.0000 </r>
       <r>    8.4517    1.0000 </r>
       <r>    8.5062    1.0000 </r>
       <r>    8.5369    1.0000 </r>
       <r>    8.8539    1.0000 </r>
       <r>    9.0274    1.0000 </r>
       <r>    9.1630    1.0000 </r>
       <r>    9.1850    1.0000 </r>
       <r>    9.9201    1.0000 </r>
       <r>   10.0771    1.0000 </r>
       <r>   10.5463    1.0000 </r>
       <r>   10.8737    1.0000 </r>
       <r>   11.1272    0.0000 </r>
       <r>   11.3143    0.0000 </r>
       <r>   11.5617    0.0000 </r>
       <r>   11.8975    0.0000 </r>
       <r>   11.9739    0.0000 </r>
       <r>   11.9740    0.0000 </r>
       <r>   12.1221    0.0000 </r>
       <r>   12.3328    0.0000 </r>
       <r>   13.1807    0.0000 </r>
       <r>   14.0323    0.0000 </r>
       <r>   14.2274    0.0000 </r>
       <r>   14.7109    0.0000 </r>
       <r>   15.3228    0.0000 </r>
      </set>
     </set>
    </set>
   </array>
  </eigenvalues>
  <separator name="orbital magnetization" >
   <v name="MAGDIPOLOUT">      0.00000000      0.00000000      0.00000000</v>
  </separator>
  <dos>
   <i name="efermi">     10.98785540 </i>
   <total>
    <array>
     <dimension dim="1">gridpoints</dimension>
     <dimension dim="2">spin</dimension>
     <field>energy</field>
     <field>total</field>
     <field>integrated</field>
     <set>
      <set comment="spin 1">
       <r>   -55.1377     0.0000     0.0000 </r>
       <r>   -54.8912     0.0000     0.0000 </r>
       <r>   -54.6447     0.0000     0.0000 </r>
       <r>   -54.3983     0.0000     0.0000 </r>
       <r>   -54.1518     0.0000     0.0000 </r>
       <r>   -53.9053     0.0000     0.0000 </r>
       <r>   -53.6588     0.0000     0.0000 </r>
       <r>   -53.4123     0.0000     0.0000 </r>
       <r>   -53.1659     0.0000     0.0000 </r>
       <r>   -52.9194     0.0000     0.0000 </r>
       <r>   -52.6729     0.0000     0.0000 </r>
       <r>   -52.4264     0.0000     0.0000 </r>
       <r>   -52.1799     0.0000     0.0000 </r>
       <r>   -51.9335     0.0000     0.0000 </r>
       <r>   -51.6870    31.5193     7.7688 </r>
       <r>   -51.4405     0.0000     8.0000 </r>
       <r>   -51.1940     0.0600     8.0148 </r>
       <r>   -50.9476     0.0000    12.0000 </r>
       <r>   -50.7011     0.0000    12.0000 </r>
       <r>   -50.4546     0.0000    12.0000 </r>
       <r>   -50.2081     0.0000    12.0000 </r>
       <r>   -49.9616     0.0000    12.0000 </r>
       <r>   -49.7152     0.0000    12.0000 </r>
       <r>   -49.4687     0.0000    12.0000 </r>
       <r>   -49.2222     0.0000    12.0000 </r>
       <r>   -48.9757     0.0000    12.0000 </r>
       <r>   -48.7293     0.0000    12.0000 </r>
       <r>   -48.4828     0.0000    12.0000 </r>
       <r>   -48.2363     0.0000    12.0000 </r>
       <r>   -47.9898     0.0000    12.0000 </r>
       <r>   -47.7433     0.0000    12.0000 </r>
       <r>   -47.4969     0.0000    12.0000 </r>
       <r>   -47.2504     0.0000    12.0000 </r>
       <r>   -47.0039     0.0000    12.0000 </r>
       <r>   -46.7574     0.0000    12.0000 </r>
       <r>   -46.5109     0.0000    12.0000 </r>
       <r>   -46.2645     0.0000    12.0000 </r>
       <r>   -46.0180     0.0000    12.0000 </r>
       <r>   -45.7715     0.0000    12.0000 </r>
       <r>   -45.5250     0.0000    12.0000 </r>
       <r>   -45.2786     0.0000    12.0000 </r>
       <r>   -45.0321     0.0000    12.0000 </r>
       <r>   -44.7856     0.0000    12.0000 </r>
       <r>   -44.5391     0.0000    12.0000 </r>
       <r>   -44.2926     0.0000    12.0000 </r>
       <r>   -44.0462     0.0000    12.0000 </r>
       <r>   -43.7997     0.0000    12.0000 </r>
       <r>   -43.5532     0.0000    12.0000 </r>
       <r>   -43.3067     0.0000    12.0000 </r>
       <r>   -43.0603     0.0000    12.0000 </r>
       <r>   -42.8138     0.0000    12.0000 </r>
       <r>   -42.5673     0.0000    12.0000 </r>
       <r>   -42.3208     0.0000    12.0000 </r>
       <r>   -42.0743     0.0000    12.0000 </r>
       <r>   -41.8279     0.0000    12.0000 </r>
       <r>   -41.5814     0.0000    12.0000 </r>
       <r>   -41.3349     0.0000    12.0000 </r>
       <r>   -41.0884     0.0000    12.0000 </r>
       <r>   -40.8419     0.0000    12.0000 </r>
       <r>   -40.5955     0.0000    12.0000 </r>
       <r>   -40.3490     0.0000    12.0000 </r>
       <r>   -40.1025     0.0000    12.0000 </r>
       <r>   -39.8560     0.0000    12.0000 </r>
       <r>   -39.6096     0.0000    12.0000 </r>
       <r>   -39.3631     0.0000    12.0000 </r>
       <r>   -39.1166     0.0000    12.0000 </r>
       <r>   -38.8701     0.0000    12.0000 </r>
       <r>   -38.6236     0.0000    12.0000 </r>
       <r>   -38.3772     0.0000    12.0000 </r>
       <r>   -38.1307     0.0000    12.0000 </r>
       <r>   -37.8842     0.0000    12.0000 </r>
       <r>   -37.6377     0.0000    12.0000 </r>
       <r>   -37.3913     0.0000    12.0000 </r>
       <r>   -37.1448     0.0000    12.0000 </r>
       <r>   -36.8983     0.0000    12.0000 </r>
       <r>   -36.6518     0.0000    12.0000 </r>
       <r>   -36.4053     0.0000    12.0000 </r>
       <r>   -36.1589     0.0000    12.0000 </r>
       <r>   -35.9124     0.0000    12.0000 </r>
       <r>   -35.6659     0.0000    12.0000 </r>
       <r>   -35.4194     0.0000    12.0000 </r>
       <r>   -35.1729     0.0000    12.0000 </r>
       <r>   -34.9265     0.0000    12.0000 </r>
       <r>   -34.6800     0.0000    12.0000 </r>
       <r>   -34.4335     0.0000    12.0000 </r>
       <r>   -34.1870     0.0000    12.0000 </r>
       <r>   -33.9406     0.0000    12.0000 </r>
       <r>   -33.6941     0.0000    12.0000 </r>
       <r>   -33.4476     0.0000    12.0000 </r>
       <r>   -33.2011     0.0000    12.0000 </r>
       <r>   -32.9546     0.0000    12.0000 </r>
       <r>   -32.7082     0.0000    12.0000 </r>
       <r>   -32.4617     0.0000    12.0000 </r>
       <r>   -32.2152     0.0000    12.0000 </r>
       <r>   -31.9687     0.0000    12.0000 </r>
       <r>   -31.7223     0.0000    12.0000 </r>
       <r>   -31.4758     0.0000    12.0000 </r>
       <r>   -31.2293     0.0000    12.0000 </r>
       <r>   -30.9828     0.0000    12.0000 </r>
       <r>   -30.7363     0.0000    12.0000 </r>
       <r>   -30.4899     0.0000    12.0000 </r>
       <r>   -30.2434     0.0000    12.0000 </r>
       <r>   -29.9969     0.0000    12.0000 </r>
       <r>   -29.7504     0.0000    12.0000 </r>
       <r>   -29.5040     0.0000    12.0000 </r>
       <r>   -29.2575     0.0000    12.0000 </r>
       <r>   -29.0110     0.0000    12.0000 </r>
       <r>   -28.7645     0.0000    12.0000 </r>
       <r>   -28.5180     0.0000    12.0000 </r>
       <r>   -28.2716     0.0000    12.0000 </r>
       <r>   -28.0251     0.0000    12.0000 </r>
       <r>   -27.7786     0.0000    12.0000 </r>
       <r>   -27.5321     0.0000    12.0000 </r>
       <r>   -27.2856     0.0000    12.0000 </r>
       <r>   -27.0392     0.0000    12.0000 </r>
       <r>   -26.7927     0.0000    12.0000 </r>
       <r>   -26.5462     0.0000    12.0000 </r>
       <r>   -26.2997     0.0000    12.0000 </r>
       <r>   -26.0533     0.0000    12.0000 </r>
       <r>   -25.8068     0.0000    12.0000 </r>
       <r>   -25.5603     0.0000    12.0000 </r>
       <r>   -25.3138    33.5916    20.3561 </r>
       <r>   -25.0673    35.1235    34.6112 </r>
       <r>   -24.8209    20.6696    43.9977 </r>
       <r>   -24.5744     0.0000    44.0000 </r>
       <r>   -24.3279     0.0133    44.0033 </r>
       <r>   -24.0814     0.0414    48.0000 </r>
       <r>   -23.8350     0.0000    48.0000 </r>
       <r>   -23.5885     0.0000    48.0000 </r>
       <r>   -23.3420     0.0000    48.0000 </r>
       <r>   -23.0955     0.0000    48.0000 </r>
       <r>   -22.8490     0.0000    48.0000 </r>
       <r>   -22.6026     0.0000    48.0000 </r>
       <r>   -22.3561     0.0000    48.0000 </r>
       <r>   -22.1096     0.0000    48.0000 </r>
       <r>   -21.8631     0.0000    48.0000 </r>
       <r>   -21.6166     0.0000    48.0000 </r>
       <r>   -21.3702     0.0000    48.0000 </r>
       <r>   -21.1237     0.0000    48.0000 </r>
       <r>   -20.8772     0.0000    48.0000 </r>
       <r>   -20.6307     0.0000    48.0000 </r>
       <r>   -20.3843     0.0000    48.0000 </r>
       <r>   -20.1378     0.0000    48.0000 </r>
       <r>   -19.8913     0.0000    48.0000 </r>
       <r>   -19.6448     0.0000    48.0000 </r>
       <r>   -19.3983     0.0000    48.0000 </r>
       <r>   -19.1519     0.0000    48.0000 </r>
       <r>   -18.9054     0.0000    48.0000 </r>
       <r>   -18.6589     0.0000    48.0000 </r>
       <r>   -18.4124     0.0000    48.0000 </r>
       <r>   -18.1660     0.0000    48.0000 </r>
       <r>   -17.9195     0.0000    48.0000 </r>
       <r>   -17.6730     0.0000    48.0000 </r>
       <r>   -17.4265     0.0000    48.0000 </r>
       <r>   -17.1800     0.0000    48.0000 </r>
       <r>   -16.9336     0.0000    48.0000 </r>
       <r>   -16.6871     0.0000    48.0000 </r>
       <r>   -16.4406     0.0000    48.0000 </r>
       <r>   -16.1941     0.0000    48.0000 </r>
       <r>   -15.9476     0.0000    48.0000 </r>
       <r>   -15.7012     0.0000    48.0000 </r>
       <r>   -15.4547     0.0000    48.0000 </r>
       <r>   -15.2082     0.0000    48.0000 </r>
       <r>   -14.9617     0.0000    48.0000 </r>
       <r>   -14.7153     0.0000    48.0000 </r>
       <r>   -14.4688     0.0000    48.0000 </r>
       <r>   -14.2223     0.0000    48.0000 </r>
       <r>   -13.9758     0.0000    48.0000 </r>
       <r>   -13.7293     0.0000    48.0000 </r>
       <r>   -13.4829     0.0000    48.0000 </r>
       <r>   -13.2364     0.0000    48.0000 </r>
       <r>   -12.9899     0.0000    48.0000 </r>
       <r>   -12.7434     0.0000    48.0000 </r>
       <r>   -12.4970     0.0000    48.0000 </r>
       <r>   -12.2505     0.0000    48.0000 </r>
       <r>   -12.0040     0.0000    48.0000 </r>
       <r>   -11.7575     0.0000    48.0000 </r>
       <r>   -11.5110     0.0000    48.0000 </r>
       <r>   -11.2646     0.0000    48.0000 </r>
       <r>   -11.0181     0.0000    48.0000 </r>
       <r>   -10.7716     0.0000    48.0000 </r>
       <r>   -10.5251     0.0000    48.0000 </r>
       <r>   -10.2787     0.0000    48.0000 </r>
       <r>   -10.0322     0.0000    48.0000 </r>
       <r>    -9.7857     0.0000    48.0000 </r>
       <r>    -9.5392     0.0000    48.0000 </r>
       <r>    -9.2927     0.0000    48.0000 </r>
       <r>    -9.0463     0.0000    48.0000 </r>
       <r>    -8.7998     0.0000    48.0000 </r>
       <r>    -8.5533     0.0000    48.0000 </r>
       <r>    -8.3068     0.0000    48.0000 </r>
       <r>    -8.0603     0.0000    48.0000 </r>
       <r>    -7.8139     0.0000    48.0000 </r>
       <r>    -7.5674     0.0000    48.0000 </r>
       <r>    -7.3209     0.0000    48.0000 </r>
       <r>    -7.0744     0.0000    48.0000 </r>
       <r>    -6.8280     0.0000    48.0000 </r>
       <r>    -6.5815     0.0000    48.0000 </r>
       <r>    -6.3350     0.0000    48.0000 </r>
       <r>    -6.0885     0.0000    48.0000 </r>
       <r>    -5.8420     0.0000    48.0000 </r>
       <r>    -5.5956     0.0000    48.0000 </r>
       <r>    -5.3491     0.0000    48.0000 </r>
       <r>    -5.1026     0.0000    48.0000 </r>
       <r>    -4.8561     0.0000    48.0000 </r>
       <r>    -4.6097     0.0000    48.0000 </r>
       <r>    -4.3632     0.0000    48.0000 </r>
       <r>    -4.1167     0.0000    48.0000 </r>
       <r>    -3.8702     0.0000    48.0000 </r>
       <r>    -3.6237     0.0000    48.0000 </r>
       <r>    -3.3773     0.0000    48.0000 </r>
       <r>    -3.1308     0.0000    48.0000 </r>
       <r>    -2.8843     0.0000    48.0000 </r>
       <r>    -2.6378     0.0001    48.0000 </r>
       <r>    -2.3913     0.2896    48.0765 </r>
       <r>    -2.1449     0.6599    48.2494 </r>
       <r>    -1.8984     0.4762    48.4592 </r>
       <r>    -1.6519     0.9641    48.8754 </r>
       <r>    -1.4054     0.9544    49.2607 </r>
       <r>    -1.1590     0.9445    49.7073 </r>
       <r>    -0.9125     0.9808    49.9918 </r>
       <r>    -0.6660     0.8154    50.3591 </r>
       <r>    -0.4195     1.4642    50.9527 </r>
       <r>    -0.1730     1.5284    51.4686 </r>
       <r>     0.0734     0.9490    51.9788 </r>
       <r>     0.3199     0.7282    52.2458 </r>
       <r>     0.5664     0.7492    52.4653 </r>
       <r>     0.8129     0.6514    52.7830 </r>
       <r>     1.0593     1.0291    53.2128 </r>
       <r>     1.3058     1.8824    53.8313 </r>
       <r>     1.5523     1.4905    54.3878 </r>
       <r>     1.7988     1.8136    55.1001 </r>
       <r>     2.0453     1.1803    55.6634 </r>
       <r>     2.2917     1.6021    56.1857 </r>
       <r>     2.5382     1.1643    56.6084 </r>
       <r>     2.7847     1.1438    57.0421 </r>
       <r>     3.0312     0.6813    57.4792 </r>
       <r>     3.2777     0.5827    57.7099 </r>
       <r>     3.5241     1.3748    58.2317 </r>
       <r>     3.7706     0.6016    58.4901 </r>
       <r>     4.0171     1.8256    59.0469 </r>
       <r>     4.2636     1.6656    59.6248 </r>
       <r>     4.5100     1.4127    60.1390 </r>
       <r>     4.7565     2.2019    60.9509 </r>
       <r>     5.0030     1.8657    61.6690 </r>
       <r>     5.2495     2.6766    62.6852 </r>
       <r>     5.4960     2.4301    63.6551 </r>
       <r>     5.7424     3.9453    65.1153 </r>
       <r>     5.9889     2.9875    66.3282 </r>
       <r>     6.2354     3.6104    67.8950 </r>
       <r>     6.4819     3.2794    69.2726 </r>
       <r>     6.7283     2.0813    70.0895 </r>
       <r>     6.9748     2.5720    71.0370 </r>
       <r>     7.2213     4.3179    72.5286 </r>
       <r>     7.4678     5.1662    74.5846 </r>
       <r>     7.7143     6.9335    77.4385 </r>
       <r>     7.9607     6.2658    79.8046 </r>
       <r>     8.2072     5.8629    82.1339 </r>
       <r>     8.4537     5.6821    84.1046 </r>
       <r>     8.7002     5.3057    86.3077 </r>
       <r>     8.9467     4.7816    88.2041 </r>
       <r>     9.1931     5.1636    90.1299 </r>
       <r>     9.4396     6.4586    92.5358 </r>
       <r>     9.6861     4.3413    94.1874 </r>
       <r>     9.9326     4.7132    96.0597 </r>
       <r>    10.1790     5.1685    97.9423 </r>
       <r>    10.4255     5.4228    99.9948 </r>
       <r>    10.6720     7.3589   102.4720 </r>
       <r>    10.9185     6.3148   105.1789 </r>
       <r>    11.1650     6.5405   107.8315 </r>
       <r>    11.4114     5.5479   109.8929 </r>
       <r>    11.6579     7.6070   112.7117 </r>
       <r>    11.9044     7.2944   115.5122 </r>
       <r>    12.1509     6.3793   117.9499 </r>
       <r>    12.3973     5.3738   120.0949 </r>
       <r>    12.6438     4.7649   121.8938 </r>
       <r>    12.8903     4.6060   123.7169 </r>
       <r>    13.1368     5.8384   125.8727 </r>
       <r>    13.3833     4.2247   127.4188 </r>
       <r>    13.6297     3.6243   128.7658 </r>
       <r>    13.8762     2.9443   130.0216 </r>
       <r>    14.1227     1.7352   130.7593 </r>
       <r>    14.3692     1.4185   131.2221 </r>
       <r>    14.6156     1.1283   131.5842 </r>
       <r>    14.8621     0.4010   131.8182 </r>
       <r>    15.1086     0.2616   131.9318 </r>
       <r>    15.3551     0.0920   131.9819 </r>
       <r>    15.6016     0.0414   132.0000 </r>
       <r>    15.8480     0.0000   132.0000 </r>
       <r>    16.0945     0.0000   132.0000 </r>
       <r>    16.3410     0.0000   132.0000 </r>
       <r>    16.5875     0.0000   132.0000 </r>
       <r>    16.8340     0.0000   132.0000 </r>
       <r>    17.0804     0.0000   132.0000 </r>
       <r>    17.3269     0.0000   132.0000 </r>
       <r>    17.5734     0.0000   132.0000 </r>
       <r>    17.8199     0.0000   132.0000 </r>
       <r>    18.0663     0.0000   132.0000 </r>
       <r>    18.3128     0.0000   132.0000 </r>
       <r>    18.5593     0.0000   132.0000 </r>
       <r>    18.8058     0.0000   132.0000 </r>
      </set>
     </set>
    </array>
   </total>
  </dos>
 </calculation>
 <structure name="finalpos" >
  <crystal>
   <varray name="basis" >
    <v>       5.24992726       0.00000000      -3.31284175 </v>
    <v>      -1.59639335       5.00132628      -3.31284175 </v>
    <v>       0.00000000       0.00000000       6.20779000 </v>
   </varray>
   <i name="volume">    162.99545375 </i>
   <varray name="rec_basis" >
    <v>       0.19047883       0.06079970       0.00000000 </v>
    <v>       0.00000000       0.19994696       0.00000000 </v>
    <v>       0.10165070       0.13914975       0.16108792 </v>
   </varray>
  </crystal>
  <varray name="positions" >
   <v>       0.25000000       0.75000000       0.50000000 </v>
   <v>       0.75000000       0.25000000       0.50000000 </v>
   <v>       0.25000000       0.25000000       0.00000000 </v>
   <v>       0.73745000       0.23745000       0.97489000 </v>
   <v>       0.75000000       0.75000000       0.00000000 </v>
   <v>       0.26255000       0.76255000       0.02511000 </v>
   <v>       0.23745000       0.26255000       0.50000000 </v>
   <v>       0.76255000       0.73745000       0.50000000 </v>
   <v>       0.00970000       0.50970000       0.02001000 </v>
   <v>       0.50000000       0.50000000       0.50000000 </v>
   <v>       0.48969000       0.98969000       0.97999000 </v>
   <v>       0.00000000       0.00000000       0.50000000 </v>
  </varray>
 </structure>
</modeling>
