<?xml version="1.0" encoding="ISO-8859-1"?>
<modeling>
 <generator>
  <i name="program" type="string">vasp </i>
  <i name="version" type="string">6.2.0  </i>
  <i name="subversion" type="string">18Jan21 (build Jan 05 2022 15:41:44) complex                          parallel </i>
  <i name="platform" type="string">LinuxIFC </i>
  <i name="date" type="string">2025 05 07 </i>
  <i name="time" type="string">14:36:48 </i>
 </generator>
 <incar>
  <i type="string" name="SYSTEM">routine with relax: pwdword</i>
  <i type="string" name="PREC">Acc</i>
  <i type="int" name="IALGO">    38</i>
  <i type="string" name="ALGO">A</i>
  <i type="logical" name="ADDGRID"> T  </i>
  <i type="int" name="ICHARG">     2</i>
  <i type="int" name="NELM">   100</i>
  <i type="int" name="NELMIN">     6</i>
  <i name="EDIFF">      0.00000000</i>
  <i type="int" name="NSW">     0</i>
  <i type="int" name="ISIF">    -1</i>
  <i name="ENCUT">    600.00000000</i>
  <i type="logical" name="LREAL"> F  </i>
  <i type="int" name="ISMEAR">     0</i>
  <i name="SIGMA">      0.02000000</i>
  <i type="logical" name="LASPH"> T  </i>
  <i type="string" name="METAGGA">R2SCAN</i>
  <i type="logical" name="LMIXTAU"> F  </i>
 </incar>
 <primitive_cell>
  <structure name="primitive_cell" >
   <crystal>
    <varray name="basis" >
     <v>       4.93358888       0.00000000      -3.00627758 </v>
     <v>      -1.55646879       4.68163477      -3.00627758 </v>
     <v>       0.00000000       0.00000000       5.77737000 </v>
    </varray>
    <i name="volume">    133.44142424 </i>
    <varray name="rec_basis" >
     <v>       0.20269220       0.06738759       0.00000000 </v>
     <v>       0.00000000       0.21360060       0.00000000 </v>
     <v>       0.10547170       0.14621333       0.17308914 </v>
    </varray>
   </crystal>
   <varray name="positions" >
    <v>       1.00000000       0.50000000       0.00000000 </v>
    <v>       0.50000000       0.50000000       0.50000000 </v>
    <v>       0.50000000       0.00000000       0.00000000 </v>
    <v>       0.00000000       0.00000000       0.50000000 </v>
    <v>       0.25000000       0.75000000       0.50000000 </v>
    <v>       0.24394000       0.74394000       0.98788000 </v>
    <v>       0.75000000       0.25000000       0.50000000 </v>
    <v>       0.75606000       0.25606000       0.01212000 </v>
    <v>       0.74394000       0.75606000       0.50000000 </v>
    <v>       0.25606000       0.24394000       0.50000000 </v>
    <v>       0.25000000       0.25000000       0.00000000 </v>
    <v>       0.75000000       0.75000000       0.00000000 </v>
   </varray>
  </structure>
  <varray name="primitive_index" >
   <v type="int" >        1 </v>
   <v type="int" >        2 </v>
   <v type="int" >        3 </v>
   <v type="int" >        4 </v>
   <v type="int" >        5 </v>
   <v type="int" >        6 </v>
   <v type="int" >        7 </v>
   <v type="int" >        8 </v>
   <v type="int" >        9 </v>
   <v type="int" >       10 </v>
   <v type="int" >       11 </v>
   <v type="int" >       12 </v>
  </varray>
 </primitive_cell>
 <kpoints>
  <generation param="Gamma">
   <v type="int" name="divisions">       8        8        9 </v>
   <v name="usershift">      0.00000000       0.00000000       0.00000000 </v>
   <v name="genvec1">      0.12500000      -0.00000000       0.00000000 </v>
   <v name="genvec2">      0.00000000       0.12500000       0.00000000 </v>
   <v name="genvec3">      0.00000000       0.00000000       0.11111111 </v>
   <v name="shift">      0.00000000       0.00000000       0.00000000 </v>
  </generation>
  <varray name="kpointlist" >
   <v>       0.00000000       0.00000000       0.00000000 </v>
   <v>       0.12500000      -0.00000000       0.00000000 </v>
   <v>       0.25000000      -0.00000000       0.00000000 </v>
   <v>       0.37500000      -0.00000000       0.00000000 </v>
   <v>       0.50000000      -0.00000000       0.00000000 </v>
   <v>       0.12500000       0.12500000       0.00000000 </v>
   <v>       0.25000000       0.12500000       0.00000000 </v>
   <v>       0.37500000       0.12500000       0.00000000 </v>
   <v>       0.50000000       0.12500000       0.00000000 </v>
   <v>      -0.37500000       0.12500000       0.00000000 </v>
   <v>      -0.25000000       0.12500000       0.00000000 </v>
   <v>      -0.12500000       0.12500000       0.00000000 </v>
   <v>       0.25000000       0.25000000       0.00000000 </v>
   <v>       0.37500000       0.25000000       0.00000000 </v>
   <v>       0.50000000       0.25000000       0.00000000 </v>
   <v>      -0.37500000       0.25000000       0.00000000 </v>
   <v>      -0.25000000       0.25000000       0.00000000 </v>
   <v>       0.37500000       0.37500000       0.00000000 </v>
   <v>       0.50000000       0.37500000       0.00000000 </v>
   <v>      -0.37500000       0.37500000       0.00000000 </v>
   <v>       0.50000000       0.50000000       0.00000000 </v>
   <v>       0.00000000      -0.00000000       0.11111111 </v>
   <v>       0.12500000      -0.00000000       0.11111111 </v>
   <v>       0.25000000      -0.00000000       0.11111111 </v>
   <v>       0.37500000      -0.00000000       0.11111111 </v>
   <v>       0.50000000      -0.00000000       0.11111111 </v>
   <v>      -0.37500000      -0.00000000       0.11111111 </v>
   <v>      -0.25000000       0.00000000       0.11111111 </v>
   <v>      -0.12500000      -0.00000000       0.11111111 </v>
   <v>       0.12500000       0.12500000       0.11111111 </v>
   <v>       0.25000000       0.12500000       0.11111111 </v>
   <v>       0.37500000       0.12500000       0.11111111 </v>
   <v>       0.50000000       0.12500000       0.11111111 </v>
   <v>      -0.37500000       0.12500000       0.11111111 </v>
   <v>      -0.25000000       0.12500000       0.11111111 </v>
   <v>      -0.12500000       0.12500000       0.11111111 </v>
   <v>       0.25000000       0.25000000       0.11111111 </v>
   <v>       0.37500000       0.25000000       0.11111111 </v>
   <v>       0.50000000       0.25000000       0.11111111 </v>
   <v>      -0.37500000       0.25000000       0.11111111 </v>
   <v>      -0.25000000       0.25000000       0.11111111 </v>
   <v>      -0.12500000       0.25000000       0.11111111 </v>
   <v>       0.37500000       0.37500000       0.11111111 </v>
   <v>       0.50000000       0.37500000       0.11111111 </v>
   <v>      -0.37500000       0.37500000       0.11111111 </v>
   <v>      -0.25000000       0.37500000       0.11111111 </v>
   <v>      -0.12500000       0.37500000       0.11111111 </v>
   <v>       0.50000000       0.50000000       0.11111111 </v>
   <v>      -0.37500000       0.50000000       0.11111111 </v>
   <v>      -0.25000000       0.50000000       0.11111111 </v>
   <v>      -0.12500000       0.50000000       0.11111111 </v>
   <v>      -0.37500000      -0.37500000       0.11111111 </v>
   <v>      -0.25000000      -0.37500000       0.11111111 </v>
   <v>      -0.12500000      -0.37500000       0.11111111 </v>
   <v>      -0.25000000      -0.25000000       0.11111111 </v>
   <v>      -0.12500000      -0.25000000       0.11111111 </v>
   <v>      -0.12500000      -0.12500000       0.11111111 </v>
   <v>       0.00000000      -0.00000000       0.22222222 </v>
   <v>       0.12500000      -0.00000000       0.22222222 </v>
   <v>       0.25000000      -0.00000000       0.22222222 </v>
   <v>       0.37500000      -0.00000000       0.22222222 </v>
   <v>       0.50000000      -0.00000000       0.22222222 </v>
   <v>      -0.37500000       0.00000000       0.22222222 </v>
   <v>      -0.25000000       0.00000000       0.22222222 </v>
   <v>      -0.12500000       0.00000000       0.22222222 </v>
   <v>       0.12500000       0.12500000       0.22222222 </v>
   <v>       0.25000000       0.12500000       0.22222222 </v>
   <v>       0.37500000       0.12500000       0.22222222 </v>
   <v>       0.50000000       0.12500000       0.22222222 </v>
   <v>      -0.37500000       0.12500000       0.22222222 </v>
   <v>      -0.25000000       0.12500000       0.22222222 </v>
   <v>      -0.12500000       0.12500000       0.22222222 </v>
   <v>       0.25000000       0.25000000       0.22222222 </v>
   <v>       0.37500000       0.25000000       0.22222222 </v>
   <v>       0.50000000       0.25000000       0.22222222 </v>
   <v>      -0.37500000       0.25000000       0.22222222 </v>
   <v>      -0.25000000       0.25000000       0.22222222 </v>
   <v>      -0.12500000       0.25000000       0.22222222 </v>
   <v>       0.37500000       0.37500000       0.22222222 </v>
   <v>       0.50000000       0.37500000       0.22222222 </v>
   <v>      -0.37500000       0.37500000       0.22222222 </v>
   <v>      -0.25000000       0.37500000       0.22222222 </v>
   <v>      -0.12500000       0.37500000       0.22222222 </v>
   <v>       0.50000000       0.50000000       0.22222222 </v>
   <v>      -0.37500000       0.50000000       0.22222222 </v>
   <v>      -0.25000000       0.50000000       0.22222222 </v>
   <v>      -0.12500000       0.50000000       0.22222222 </v>
   <v>      -0.37500000      -0.37500000       0.22222222 </v>
   <v>      -0.25000000      -0.37500000       0.22222222 </v>
   <v>      -0.12500000      -0.37500000       0.22222222 </v>
   <v>      -0.25000000      -0.25000000       0.22222222 </v>
   <v>      -0.12500000      -0.25000000       0.22222222 </v>
   <v>      -0.12500000      -0.12500000       0.22222222 </v>
   <v>       0.00000000      -0.00000000       0.33333333 </v>
   <v>       0.12500000      -0.00000000       0.33333333 </v>
   <v>       0.25000000       0.00000000       0.33333333 </v>
   <v>       0.37500000      -0.00000000       0.33333333 </v>
   <v>       0.50000000      -0.00000000       0.33333333 </v>
   <v>      -0.37500000      -0.00000000       0.33333333 </v>
   <v>      -0.25000000      -0.00000000       0.33333333 </v>
   <v>      -0.12500000      -0.00000000       0.33333333 </v>
   <v>       0.12500000       0.12500000       0.33333333 </v>
   <v>       0.25000000       0.12500000       0.33333333 </v>
   <v>       0.37500000       0.12500000       0.33333333 </v>
   <v>       0.50000000       0.12500000       0.33333333 </v>
   <v>      -0.37500000       0.12500000       0.33333333 </v>
   <v>      -0.25000000       0.12500000       0.33333333 </v>
   <v>      -0.12500000       0.12500000       0.33333333 </v>
   <v>       0.25000000       0.25000000       0.33333333 </v>
   <v>       0.37500000       0.25000000       0.33333333 </v>
   <v>       0.50000000       0.25000000       0.33333333 </v>
   <v>      -0.37500000       0.25000000       0.33333333 </v>
   <v>      -0.25000000       0.25000000       0.33333333 </v>
   <v>      -0.12500000       0.25000000       0.33333333 </v>
   <v>       0.37500000       0.37500000       0.33333333 </v>
   <v>       0.50000000       0.37500000       0.33333333 </v>
   <v>      -0.37500000       0.37500000       0.33333333 </v>
   <v>      -0.25000000       0.37500000       0.33333333 </v>
   <v>      -0.12500000       0.37500000       0.33333333 </v>
   <v>       0.50000000       0.50000000       0.33333333 </v>
   <v>      -0.37500000       0.50000000       0.33333333 </v>
   <v>      -0.25000000       0.50000000       0.33333333 </v>
   <v>      -0.12500000       0.50000000       0.33333333 </v>
   <v>      -0.37500000      -0.37500000       0.33333333 </v>
   <v>      -0.25000000      -0.37500000       0.33333333 </v>
   <v>      -0.12500000      -0.37500000       0.33333333 </v>
   <v>      -0.25000000      -0.25000000       0.33333333 </v>
   <v>      -0.12500000      -0.25000000       0.33333333 </v>
   <v>      -0.12500000      -0.12500000       0.33333333 </v>
   <v>       0.00000000      -0.00000000       0.44444444 </v>
   <v>       0.12500000       0.00000000       0.44444444 </v>
   <v>       0.25000000      -0.00000000       0.44444444 </v>
   <v>       0.37500000      -0.00000000       0.44444444 </v>
   <v>       0.50000000      -0.00000000       0.44444444 </v>
   <v>      -0.37500000       0.00000000       0.44444444 </v>
   <v>      -0.25000000       0.00000000       0.44444444 </v>
   <v>      -0.12500000       0.00000000       0.44444444 </v>
   <v>       0.12500000       0.12500000       0.44444444 </v>
   <v>       0.25000000       0.12500000       0.44444444 </v>
   <v>       0.37500000       0.12500000       0.44444444 </v>
   <v>       0.50000000       0.12500000       0.44444444 </v>
   <v>      -0.37500000       0.12500000       0.44444444 </v>
   <v>      -0.25000000       0.12500000       0.44444444 </v>
   <v>      -0.12500000       0.12500000       0.44444444 </v>
   <v>       0.25000000       0.25000000       0.44444444 </v>
   <v>       0.37500000       0.25000000       0.44444444 </v>
   <v>       0.50000000       0.25000000       0.44444444 </v>
   <v>      -0.37500000       0.25000000       0.44444444 </v>
   <v>      -0.25000000       0.25000000       0.44444444 </v>
   <v>      -0.12500000       0.25000000       0.44444444 </v>
   <v>       0.37500000       0.37500000       0.44444444 </v>
   <v>       0.50000000       0.37500000       0.44444444 </v>
   <v>      -0.37500000       0.37500000       0.44444444 </v>
   <v>      -0.25000000       0.37500000       0.44444444 </v>
   <v>      -0.12500000       0.37500000       0.44444444 </v>
   <v>       0.50000000       0.50000000       0.44444444 </v>
   <v>      -0.37500000       0.50000000       0.44444444 </v>
   <v>      -0.25000000       0.50000000       0.44444444 </v>
   <v>      -0.12500000       0.50000000       0.44444444 </v>
   <v>      -0.37500000      -0.37500000       0.44444444 </v>
   <v>      -0.25000000      -0.37500000       0.44444444 </v>
   <v>      -0.12500000      -0.37500000       0.44444444 </v>
   <v>      -0.25000000      -0.25000000       0.44444444 </v>
   <v>      -0.12500000      -0.25000000       0.44444444 </v>
   <v>      -0.12500000      -0.12500000       0.44444444 </v>
  </varray>
  <varray name="weights" >
   <v>       0.00173611 </v>
   <v>       0.00694444 </v>
   <v>       0.00694444 </v>
   <v>       0.00694444 </v>
   <v>       0.00347222 </v>
   <v>       0.00347222 </v>
   <v>       0.00694444 </v>
   <v>       0.00694444 </v>
   <v>       0.00694444 </v>
   <v>       0.00694444 </v>
   <v>       0.00694444 </v>
   <v>       0.00347222 </v>
   <v>       0.00347222 </v>
   <v>       0.00694444 </v>
   <v>       0.00694444 </v>
   <v>       0.00694444 </v>
   <v>       0.00347222 </v>
   <v>       0.00347222 </v>
   <v>       0.00694444 </v>
   <v>       0.00347222 </v>
   <v>       0.00173611 </v>
   <v>       0.00347222 </v>
   <v>       0.00694444 </v>
   <v>       0.00694444 </v>
   <v>       0.00694444 </v>
   <v>       0.00694444 </v>
   <v>       0.00694444 </v>
   <v>       0.00694444 </v>
   <v>       0.00694444 </v>
   <v>       0.00347222 </v>
   <v>       0.00694444 </v>
   <v>       0.00694444 </v>
   <v>       0.00694444 </v>
   <v>       0.00694444 </v>
   <v>       0.00694444 </v>
   <v>       0.00694444 </v>
   <v>       0.00347222 </v>
   <v>       0.00694444 </v>
   <v>       0.00694444 </v>
   <v>       0.00694444 </v>
   <v>       0.00694444 </v>
   <v>       0.00694444 </v>
   <v>       0.00347222 </v>
   <v>       0.00694444 </v>
   <v>       0.00694444 </v>
   <v>       0.00694444 </v>
   <v>       0.00694444 </v>
   <v>       0.00347222 </v>
   <v>       0.00694444 </v>
   <v>       0.00694444 </v>
   <v>       0.00694444 </v>
   <v>       0.00347222 </v>
   <v>       0.00694444 </v>
   <v>       0.00694444 </v>
   <v>       0.00347222 </v>
   <v>       0.00694444 </v>
   <v>       0.00347222 </v>
   <v>       0.00347222 </v>
   <v>       0.00694444 </v>
   <v>       0.00694444 </v>
   <v>       0.00694444 </v>
   <v>       0.00694444 </v>
   <v>       0.00694444 </v>
   <v>       0.00694444 </v>
   <v>       0.00694444 </v>
   <v>       0.00347222 </v>
   <v>       0.00694444 </v>
   <v>       0.00694444 </v>
   <v>       0.00694444 </v>
   <v>       0.00694444 </v>
   <v>       0.00694444 </v>
   <v>       0.00694444 </v>
   <v>       0.00347222 </v>
   <v>       0.00694444 </v>
   <v>       0.00694444 </v>
   <v>       0.00694444 </v>
   <v>       0.00694444 </v>
   <v>       0.00694444 </v>
   <v>       0.00347222 </v>
   <v>       0.00694444 </v>
   <v>       0.00694444 </v>
   <v>       0.00694444 </v>
   <v>       0.00694444 </v>
   <v>       0.00347222 </v>
   <v>       0.00694444 </v>
   <v>       0.00694444 </v>
   <v>       0.00694444 </v>
   <v>       0.00347222 </v>
   <v>       0.00694444 </v>
   <v>       0.00694444 </v>
   <v>       0.00347222 </v>
   <v>       0.00694444 </v>
   <v>       0.00347222 </v>
   <v>       0.00347222 </v>
   <v>       0.00694444 </v>
   <v>       0.00694444 </v>
   <v>       0.00694444 </v>
   <v>       0.00694444 </v>
   <v>       0.00694444 </v>
   <v>       0.00694444 </v>
   <v>       0.00694444 </v>
   <v>       0.00347222 </v>
   <v>       0.00694444 </v>
   <v>       0.00694444 </v>
   <v>       0.00694444 </v>
   <v>       0.00694444 </v>
   <v>       0.00694444 </v>
   <v>       0.00694444 </v>
   <v>       0.00347222 </v>
   <v>       0.00694444 </v>
   <v>       0.00694444 </v>
   <v>       0.00694444 </v>
   <v>       0.00694444 </v>
   <v>       0.00694444 </v>
   <v>       0.00347222 </v>
   <v>       0.00694444 </v>
   <v>       0.00694444 </v>
   <v>       0.00694444 </v>
   <v>       0.00694444 </v>
   <v>       0.00347222 </v>
   <v>       0.00694444 </v>
   <v>       0.00694444 </v>
   <v>       0.00694444 </v>
   <v>       0.00347222 </v>
   <v>       0.00694444 </v>
   <v>       0.00694444 </v>
   <v>       0.00347222 </v>
   <v>       0.00694444 </v>
   <v>       0.00347222 </v>
   <v>       0.00347222 </v>
   <v>       0.00694444 </v>
   <v>       0.00694444 </v>
   <v>       0.00694444 </v>
   <v>       0.00694444 </v>
   <v>       0.00694444 </v>
   <v>       0.00694444 </v>
   <v>       0.00694444 </v>
   <v>       0.00347222 </v>
   <v>       0.00694444 </v>
   <v>       0.00694444 </v>
   <v>       0.00694444 </v>
   <v>       0.00694444 </v>
   <v>       0.00694444 </v>
   <v>       0.00694444 </v>
   <v>       0.00347222 </v>
   <v>       0.00694444 </v>
   <v>       0.00694444 </v>
   <v>       0.00694444 </v>
   <v>       0.00694444 </v>
   <v>       0.00694444 </v>
   <v>       0.00347222 </v>
   <v>       0.00694444 </v>
   <v>       0.00694444 </v>
   <v>       0.00694444 </v>
   <v>       0.00694444 </v>
   <v>       0.00347222 </v>
   <v>       0.00694444 </v>
   <v>       0.00694444 </v>
   <v>       0.00694444 </v>
   <v>       0.00347222 </v>
   <v>       0.00694444 </v>
   <v>       0.00694444 </v>
   <v>       0.00347222 </v>
   <v>       0.00694444 </v>
   <v>       0.00347222 </v>
  </varray>
 </kpoints>
 <parameters>
  <separator name="general" >
   <i type="string" name="SYSTEM">routine with relax: pwdword</i>
   <i type="logical" name="LCOMPAT"> F  </i>
  </separator>
  <separator name="electronic" >
   <i type="string" name="PREC">acc</i>
   <i name="ENMAX">    600.00000000</i>
   <i name="ENAUG">    535.51400000</i>
   <i name="EDIFF">      0.00000000</i>
   <i type="int" name="IALGO">    58</i>
   <i type="int" name="IWAVPR">    10</i>
   <i type="int" name="NBANDS">    66</i>
   <i type="int" name="NBANDSLOW">    -1</i>
   <i type="int" name="NBANDSHIGH">    -1</i>
   <i name="NELECT">    104.00000000</i>
   <i type="int" name="TURBO">     0</i>
   <i type="int" name="IRESTART">     0</i>
   <i type="int" name="NREBOOT">     0</i>
   <i type="int" name="NMIN">     0</i>
   <i name="EREF">      0.00000000</i>
   <separator name="electronic smearing" >
    <i type="int" name="ISMEAR">     0</i>
    <i name="SIGMA">      0.02000000</i>
    <i name="KSPACING">      0.50000000</i>
    <i type="logical" name="KGAMMA"> T  </i>
    <i type="logical" name="KBLOWUP"> F  </i>
   </separator>
   <separator name="electronic projectors" >
    <i type="logical" name="LREAL"> F  </i>
    <v name="ROPT">      0.00000000      0.00000000      0.00000000</v>
    <i type="int" name="LMAXPAW">  -100</i>
    <i type="int" name="LMAXMIX">     2</i>
    <i type="logical" name="NLSPLINE"> F  </i>
   </separator>
   <separator name="electronic startup" >
    <i type="int" name="ISTART">     0</i>
    <i type="int" name="ICHARG">     2</i>
    <i type="int" name="INIWAV">     1</i>
   </separator>
   <separator name="electronic spin" >
    <i type="int" name="ISPIN">     1</i>
    <i type="logical" name="LNONCOLLINEAR"> F  </i>
    <v name="MAGMOM">      1.00000000      1.00000000      1.00000000      1.00000000      1.00000000      1.00000000      1.00000000      1.00000000      1.00000000      1.00000000      1.00000000      1.00000000</v>
    <i name="NUPDOWN">     -1.00000000</i>
    <i type="logical" name="LSORBIT"> F  </i>
    <v name="SAXIS">      0.00000000      0.00000000      1.00000000</v>
    <i type="logical" name="LSPIRAL"> F  </i>
    <v name="QSPIRAL">      0.00000000      0.00000000      0.00000000</v>
    <i type="logical" name="LZEROZ"> F  </i>
   </separator>
   <separator name="electronic exchange-correlation" >
    <i type="logical" name="LASPH"> T  </i>
    <i type="logical" name="LMETAGGA"> F  </i>
   </separator>
   <separator name="electronic convergence" >
    <i type="int" name="NELM">   100</i>
    <i type="int" name="NELMDL">    -5</i>
    <i type="int" name="NELMIN">     6</i>
    <i name="ENINI">    600.00000000</i>
    <separator name="electronic convergence detail" >
     <i type="logical" name="LDIAG"> T  </i>
     <i type="logical" name="LSUBROT"> F  </i>
     <i name="WEIMIN">      0.00000000</i>
     <i name="EBREAK">      0.00000000</i>
     <i name="DEPER">      0.30000000</i>
     <i type="int" name="NRMM">     4</i>
     <i name="TIME">      0.40000000</i>
    </separator>
   </separator>
   <separator name="electronic mixer" >
    <i name="AMIX">      0.40000000</i>
    <i name="BMIX">      1.00000000</i>
    <i name="AMIN">      0.10000000</i>
    <i name="AMIX_MAG">      1.60000000</i>
    <i name="BMIX_MAG">      1.00000000</i>
    <separator name="electronic mixer details" >
     <i type="int" name="IMIX">     4</i>
     <i type="logical" name="MIXFIRST"> F  </i>
     <i type="int" name="MAXMIX">   -45</i>
     <i name="WC">    100.00000000</i>
     <i type="int" name="INIMIX">     1</i>
     <i type="int" name="MIXPRE">     1</i>
     <i type="int" name="MREMOVE">     5</i>
    </separator>
   </separator>
   <separator name="electronic dipolcorrection" >
    <i type="logical" name="LDIPOL"> F  </i>
    <i type="logical" name="LMONO"> F  </i>
    <i type="int" name="IDIPOL">     0</i>
    <i name="EPSILON">      1.00000000</i>
    <v name="DIPOL">   -100.00000000   -100.00000000   -100.00000000</v>
    <i name="EFIELD">      0.00000000</i>
   </separator>
  </separator>
  <separator name="grids" >
   <i type="int" name="NGX">    48</i>
   <i type="int" name="NGY">    48</i>
   <i type="int" name="NGZ">    48</i>
   <i type="int" name="NGXF">    96</i>
   <i type="int" name="NGYF">    96</i>
   <i type="int" name="NGZF">    96</i>
   <i type="logical" name="ADDGRID"> T  </i>
  </separator>
  <separator name="ionic" >
   <i type="int" name="NSW">     0</i>
   <i type="int" name="IBRION">    -1</i>
   <i type="int" name="MDALGO">     0</i>
   <i type="int" name="ISIF">    -1</i>
   <i name="PSTRESS">      0.00000000</i>
   <i name="EDIFFG">      0.00000001</i>
   <i type="int" name="NFREE">     0</i>
   <i name="POTIM">      0.50000000</i>
   <i name="SMASS">     -3.00000000</i>
   <i name="SCALEE">      1.00000000</i>
  </separator>
  <separator name="ionic md" >
   <i name="TEBEG">      0.00010000</i>
   <i name="TEEND">      0.00010000</i>
   <i type="int" name="NBLOCK">     1</i>
   <i type="int" name="KBLOCK">     1</i>
   <i type="int" name="NPACO">   256</i>
   <i name="APACO">     16.00000000</i>
  </separator>
  <separator name="symmetry" >
   <i type="int" name="ISYM">     2</i>
   <i name="SYMPREC">      0.00001000</i>
  </separator>
  <separator name="dos" >
   <i type="int" name="LORBIT">     0</i>
   <v name="RWIGS">     -1.00000000     -1.00000000     -1.00000000</v>
   <i type="int" name="NEDOS">   301</i>
   <i name="EMIN">     10.00000000</i>
   <i name="EMAX">    -10.00000000</i>
   <i name="EFERMI">      0.00000000</i>
  </separator>
  <separator name="writing" >
   <i type="int" name="NWRITE">     2</i>
   <i type="logical" name="LWAVE"> T  </i>
   <i type="logical" name="LDOWNSAMPLE"> F  </i>
   <i type="logical" name="LCHARG"> T  </i>
   <i type="logical" name="LPARD"> F  </i>
   <i type="logical" name="LVTOT"> F  </i>
   <i type="logical" name="LVHAR"> F  </i>
   <i type="logical" name="LELF"> F  </i>
   <i type="logical" name="LOPTICS"> F  </i>
   <v name="STM">      0.00000000      0.00000000      0.00000000      0.00000000      0.00000000      0.00000000      0.00000000</v>
  </separator>
  <separator name="performance" >
   <i type="int" name="NPAR">     6</i>
   <i type="int" name="NSIM">     4</i>
   <i type="int" name="NBLK">    -1</i>
   <i type="logical" name="LPLANE"> T  </i>
   <i type="logical" name="LSCALAPACK"> T  </i>
   <i type="logical" name="LSCAAWARE"> F  </i>
   <i type="logical" name="LSCALU"> F  </i>
   <i type="logical" name="LASYNC"> F  </i>
   <i type="logical" name="LORBITALREAL"> F  </i>
  </separator>
  <separator name="miscellaneous" >
   <i type="int" name="IDIOT">     3</i>
   <i type="int" name="PHON_NSTRUCT">    -1</i>
   <i type="logical" name="LMUSIC"> F  </i>
   <v name="POMASS">     10.81100000     95.94000000     28.08500000</v>
   <v name="DARWINR">      0.00000000      0.00000000      0.00000000</v>
   <v name="DARWINV">      1.00000000      1.00000000      1.00000000</v>
   <i type="logical" name="LCORR"> T  </i>
  </separator>
  <i type="logical" name="GGA_COMPAT"> T  </i>
  <i type="logical" name="LBERRY"> F  </i>
  <i type="int" name="ICORELEVEL">     0</i>
  <i type="logical" name="LDAU"> F  </i>
  <i type="int" name="I_CONSTRAINED_M">     0</i>
  <separator name="electronic exchange-correlation" >
   <i type="string" name="GGA">--</i>
   <i type="int" name="VOSKOWN">     0</i>
   <i type="logical" name="LHFCALC"> F  </i>
   <i type="string" name="PRECFOCK"></i>
   <i type="logical" name="LSYMGRAD"> F  </i>
   <i type="logical" name="LHFONE"> F  </i>
   <i type="logical" name="LRHFCALC"> F  </i>
   <i type="logical" name="LTHOMAS"> F  </i>
   <i type="logical" name="LMODELHF"> F  </i>
   <i type="logical" name="LFOCKACE"> F  </i>
   <i name="ENCUT4O">     -1.00000000</i>
   <i type="int" name="EXXOEP">     0</i>
   <i type="int" name="FOURORBIT">     0</i>
   <i name="AEXX">      0.00000000</i>
   <i name="HFALPHA">      0.00000000</i>
   <i name="MCALPHA">      0.00000000</i>
   <i name="ALDAX">      1.00000000</i>
   <i name="AGGAX">      1.00000000</i>
   <i name="ALDAC">      1.00000000</i>
   <i name="AGGAC">      1.00000000</i>
   <i type="int" name="NKREDX">     1</i>
   <i type="int" name="NKREDY">     1</i>
   <i type="int" name="NKREDZ">     1</i>
   <i type="logical" name="SHIFTRED"> F  </i>
   <i type="logical" name="ODDONLY"> F  </i>
   <i type="logical" name="EVENONLY"> F  </i>
   <i type="int" name="LMAXFOCK">     0</i>
   <i type="int" name="NMAXFOCKAE">     0</i>
   <i type="logical" name="LFOCKAEDFT"> F  </i>
   <i name="HFSCREEN">      0.00000000</i>
   <i name="HFSCREENC">      0.00000000</i>
   <i type="int" name="NBANDSGWLOW">     0</i>
  </separator>
  <separator name="vdW DFT" >
   <i type="logical" name="LUSE_VDW"> F  </i>
   <i name="Zab_VDW">     -0.84910000</i>
   <i name="PARAM1">      0.12340000</i>
   <i name="PARAM2">      1.00000000</i>
   <i name="PARAM3">      0.00000000</i>
  </separator>
  <separator name="model GW" >
   <i type="int" name="MODEL_GW">     0</i>
   <i name="MODEL_EPS0">      6.67207121</i>
   <i name="MODEL_ALPHA">      1.00000000</i>
  </separator>
  <separator name="linear response parameters" >
   <i type="logical" name="LEPSILON"> F  </i>
   <i type="logical" name="LRPA"> F  </i>
   <i type="logical" name="LNABLA"> F  </i>
   <i type="logical" name="LVEL"> F  </i>
   <i type="int" name="KINTER">     0</i>
   <i name="CSHIFT">      0.10000000</i>
   <i name="OMEGAMAX">     -1.00000000</i>
   <i name="DEG_THRESHOLD">      0.00200000</i>
   <i name="RTIME">     -0.10000000</i>
   <i name="WPLASMAI">      0.00000000</i>
   <v name="DFIELD">      0.00000000      0.00000000      0.00000000</v>
   <v name="WPLASMA">      0.00000000      0.00000000      0.00000000      0.00000000      0.00000000      0.00000000      0.00000000      0.00000000      0.00000000</v>
  </separator>
  <separator name="orbital magnetization" >
   <i type="logical" name="NUCIND"> F  </i>
   <v name="MAGPOS">      0.00000000      0.00000000      0.00000000</v>
   <i type="logical" name="LNICSALL"> T  </i>
   <i type="logical" name="ORBITALMAG"> F  </i>
   <i type="logical" name="LMAGBLOCH"> F  </i>
   <i type="logical" name="LCHIMAG"> F  </i>
   <i type="logical" name="LGAUGE"> T  </i>
   <i type="int" name="MAGATOM">     0</i>
   <v name="MAGDIPOL">      0.00000000      0.00000000      0.00000000</v>
   <v name="AVECCONST">      0.00000000      0.00000000      0.00000000</v>
  </separator>
  <separator name="response functions" >
   <i type="logical" name="LFINITE_TEMPERATURE"> F  </i>
   <i type="logical" name="LADDER"> F  </i>
   <i type="logical" name="LRPAFORCE"> F  </i>
   <i type="logical" name="LFXC"> F  </i>
   <i type="logical" name="LHARTREE"> T  </i>
   <i type="int" name="IBSE">     0</i>
   <v type="int" name="KPOINT">    -1     0     0     0</v>
   <i type="logical" name="LTCTC"> F  </i>
   <i type="logical" name="LTCTE"> F  </i>
   <i type="logical" name="LTETE"> F  </i>
   <i type="logical" name="LTRIPLET"> F  </i>
   <i type="logical" name="LFXCEPS"> F  </i>
   <i type="logical" name="LFXHEG"> F  </i>
   <i type="int" name="NATURALO">     2</i>
   <i type="logical" name="LHOLEGF"> F  </i>
   <i type="logical" name="L2ORDER"> F  </i>
   <i type="logical" name="LDMP1"> F  </i>
   <i type="logical" name="LMP2LT"> F  </i>
   <i type="logical" name="LSMP2LT"> F  </i>
   <i type="logical" name="LGWLF"> F  </i>
   <i name="ENCUTGW">     -2.00000000</i>
   <i name="ENCUTGWSOFT">     -2.00000000</i>
   <i name="ENCUTLF">     -1.00000000</i>
   <i type="logical" name="LESF_SPLINES"> F  </i>
   <i type="int" name="LMAXMP2">    -1</i>
   <i name="SCISSOR">      0.00000000</i>
   <i type="int" name="NOMEGA">     0</i>
   <i type="int" name="NOMEGAR">     0</i>
   <i type="int" name="NBANDSGW">    -1</i>
   <i type="int" name="NBANDSO">    -1</i>
   <i type="int" name="NBANDSV">    -1</i>
   <i type="int" name="NELM">   100</i>
   <i type="int" name="NELMHF">     1</i>
   <i type="int" name="DIM">     3</i>
   <i type="int" name="IESPILON">     4</i>
   <i type="int" name="ANTIRES">     0</i>
   <i name="OMEGAMAX">    -30.00000000</i>
   <i name="OMEGAMIN">    -30.00000000</i>
   <i name="OMEGATL">   -200.00000000</i>
   <i type="int" name="OMEGAGRID">     0</i>
   <i name="CSHIFT">     -0.10000000</i>
   <i type="logical" name="LSELFENERGY"> F  </i>
   <i type="logical" name="LSPECTRAL"> F  </i>
   <i type="logical" name="LSPECTRALGW"> F  </i>
   <i type="logical" name="LSINGLES"> F  </i>
   <i type="logical" name="LFERMIGW"> F  </i>
   <i type="logical" name="ODDONLYGW"> F  </i>
   <i type="logical" name="EVENONLYGW"> F  </i>
   <i type="int" name="NKREDLFX">     1</i>
   <i type="int" name="NKREDLFY">     1</i>
   <i type="int" name="NKREDLFZ">     1</i>
   <i type="int" name="MAXMEM">  2800</i>
   <i type="int" name="TELESCOPE">     0</i>
   <i type="int" name="NTAUPAR">    -1</i>
   <i type="int" name="NOMEGAPAR">    -1</i>
   <i name="DAMP_NEWTON">      0.80000001</i>
   <i name="LAMBDA">      1.00000000</i>
  </separator>
  <separator name="External order field" >
   <i name="OFIELD_KAPPA">      0.00000000</i>
   <v name="OFIELD_K">      0.00000000      0.00000000      0.00000000</v>
   <i name="OFIELD_Q6_NEAR">      0.00000000</i>
   <i name="OFIELD_Q6_FAR">      0.00000000</i>
   <i name="OFIELD_A">      0.00000000</i>
  </separator>
 </parameters>
 <atominfo>
  <atoms>      12 </atoms>
  <types>       3 </types>
  <array name="atoms" >
   <dimension dim="1">ion</dimension>
   <field type="string">element</field>
   <field type="int">atomtype</field>
   <set>
    <rc><c>B </c><c>   1</c></rc>
    <rc><c>B </c><c>   1</c></rc>
    <rc><c>B </c><c>   1</c></rc>
    <rc><c>B </c><c>   1</c></rc>
    <rc><c>Mo</c><c>   2</c></rc>
    <rc><c>Mo</c><c>   2</c></rc>
    <rc><c>Mo</c><c>   2</c></rc>
    <rc><c>Mo</c><c>   2</c></rc>
    <rc><c>Mo</c><c>   2</c></rc>
    <rc><c>Mo</c><c>   2</c></rc>
    <rc><c>Si</c><c>   3</c></rc>
    <rc><c>Si</c><c>   3</c></rc>
   </set>
  </array>
  <array name="atomtypes" >
   <dimension dim="1">type</dimension>
   <field type="int">atomspertype</field>
   <field type="string">element</field>
   <field>mass</field>
   <field>valence</field>
   <field type="string">pseudopotential</field>
   <set>
    <rc><c>   4</c><c>B </c><c>     10.81100000</c><c>      3.00000000</c><c>  PAW_PBE B 06Sep2000                   </c></rc>
    <rc><c>   6</c><c>Mo</c><c>     95.94000000</c><c>     14.00000000</c><c>  PAW_PBE Mo_sv 02Feb2006               </c></rc>
    <rc><c>   2</c><c>Si</c><c>     28.08500000</c><c>      4.00000000</c><c>  PAW_PBE Si 05Jan2001                  </c></rc>
   </set>
  </array>
 </atominfo>
 <structure name="initialpos" >
  <crystal>
   <varray name="basis" >
    <v>       4.93358888       0.00000000      -3.00627758 </v>
    <v>      -1.55646879       4.68163477      -3.00627758 </v>
    <v>       0.00000000       0.00000000       5.77737000 </v>
   </varray>
   <i name="volume">    133.44142424 </i>
   <varray name="rec_basis" >
    <v>       0.20269220       0.06738759       0.00000000 </v>
    <v>       0.00000000       0.21360060       0.00000000 </v>
    <v>       0.10547170       0.14621333       0.17308914 </v>
   </varray>
  </crystal>
  <varray name="positions" >
   <v>       0.00000000       0.50000000       0.00000000 </v>
   <v>       0.50000000       0.50000000       0.50000000 </v>
   <v>       0.50000000       0.00000000       0.00000000 </v>
   <v>       0.00000000       0.00000000       0.50000000 </v>
   <v>       0.25000000       0.75000000       0.50000000 </v>
   <v>       0.24394000       0.74394000       0.98788000 </v>
   <v>       0.75000000       0.25000000       0.50000000 </v>
   <v>       0.75606000       0.25606000       0.01212000 </v>
   <v>       0.74394000       0.75606000       0.50000000 </v>
   <v>       0.25606000       0.24394000       0.50000000 </v>
   <v>       0.25000000       0.25000000       0.00000000 </v>
   <v>       0.75000000       0.75000000       0.00000000 </v>
  </varray>
 </structure>
 <calculation>
  <scstep>
   <time name="total">   24.60   24.79</time>
   <energy>
    <i name="alphaZ">    700.15143826 </i>
    <i name="ewald"> -10051.35579736 </i>
    <i name="hartreedc">  -2169.82546023 </i>
    <i name="XCdc">    492.25747506 </i>
    <i name="pawpsdc">   9250.47132855 </i>
    <i name="pawaedc">  -9210.50234729 </i>
    <i name="eentropy">     -0.00055996 </i>
    <i name="bandstr">    451.46231722 </i>
    <i name="atom">  11664.50664672 </i>
    <i name="e_fr_energy">   1127.16504098 </i>
    <i name="e_wo_entrp">   1127.16560094 </i>
    <i name="e_0_energy">   1127.16532096 </i>
   </energy>
  </scstep>
  <scstep>
   <time name="total">   25.01   25.20</time>
   <energy>
    <i name="e_fr_energy">   -190.03523792 </i>
    <i name="e_wo_entrp">   -190.03433093 </i>
    <i name="e_0_energy">   -190.03478443 </i>
   </energy>
  </scstep>
  <scstep>
   <time name="total">   27.61   27.82</time>
   <energy>
    <i name="e_fr_energy">   -245.58695575 </i>
    <i name="e_wo_entrp">   -245.58588943 </i>
    <i name="e_0_energy">   -245.58642259 </i>
   </energy>
  </scstep>
  <scstep>
   <time name="total">   25.98   26.18</time>
   <energy>
    <i name="e_fr_energy">   -246.73355186 </i>
    <i name="e_wo_entrp">   -246.73277973 </i>
    <i name="e_0_energy">   -246.73316579 </i>
   </energy>
  </scstep>
  <scstep>
   <time name="total">   28.13   28.34</time>
   <energy>
    <i name="e_fr_energy">   -246.74966831 </i>
    <i name="e_wo_entrp">   -246.74888730 </i>
    <i name="e_0_energy">   -246.74927780 </i>
   </energy>
  </scstep>
  <scstep>
   <time name="total">   28.02   28.24</time>
   <energy>
    <i name="e_fr_energy">   -150.16456548 </i>
    <i name="e_wo_entrp">   -150.16377686 </i>
    <i name="e_0_energy">   -150.16417117 </i>
   </energy>
  </scstep>
  <scstep>
   <time name="total">   27.85   28.07</time>
   <energy>
    <i name="e_fr_energy">   -187.46714551 </i>
    <i name="e_wo_entrp">   -187.46629193 </i>
    <i name="e_0_energy">   -187.46671872 </i>
   </energy>
  </scstep>
  <scstep>
   <time name="total">   27.80   28.01</time>
   <energy>
    <i name="e_fr_energy">   -192.82439385 </i>
    <i name="e_wo_entrp">   -192.82337841 </i>
    <i name="e_0_energy">   -192.82388613 </i>
   </energy>
  </scstep>
  <scstep>
   <time name="total">   27.72   27.94</time>
   <energy>
    <i name="e_fr_energy">   -194.14901471 </i>
    <i name="e_wo_entrp">   -194.14778858 </i>
    <i name="e_0_energy">   -194.14840165 </i>
   </energy>
  </scstep>
  <scstep>
   <time name="total">   28.19   28.41</time>
   <energy>
    <i name="e_fr_energy">   -194.52108686 </i>
    <i name="e_wo_entrp">   -194.51982521 </i>
    <i name="e_0_energy">   -194.52045604 </i>
   </energy>
  </scstep>
  <scstep>
   <time name="total">   27.60   27.81</time>
   <energy>
    <i name="e_fr_energy">   -194.63047861 </i>
    <i name="e_wo_entrp">   -194.62934694 </i>
    <i name="e_0_energy">   -194.62991278 </i>
   </energy>
  </scstep>
  <scstep>
   <time name="total">   27.67   27.89</time>
   <energy>
    <i name="e_fr_energy">   -194.67926890 </i>
    <i name="e_wo_entrp">   -194.67815808 </i>
    <i name="e_0_energy">   -194.67871349 </i>
   </energy>
  </scstep>
  <scstep>
   <time name="total">   27.98   28.20</time>
   <energy>
    <i name="e_fr_energy">   -194.69465613 </i>
    <i name="e_wo_entrp">   -194.69360269 </i>
    <i name="e_0_energy">   -194.69412941 </i>
   </energy>
  </scstep>
  <scstep>
   <time name="total">   27.54   27.75</time>
   <energy>
    <i name="e_fr_energy">   -194.70164460 </i>
    <i name="e_wo_entrp">   -194.70061221 </i>
    <i name="e_0_energy">   -194.70112840 </i>
   </energy>
  </scstep>
  <scstep>
   <time name="total">   27.81   28.03</time>
   <energy>
    <i name="e_fr_energy">   -194.70399666 </i>
    <i name="e_wo_entrp">   -194.70298929 </i>
    <i name="e_0_energy">   -194.70349297 </i>
   </energy>
  </scstep>
  <scstep>
   <time name="total">   27.69   27.90</time>
   <energy>
    <i name="e_fr_energy">   -194.70505924 </i>
    <i name="e_wo_entrp">   -194.70405255 </i>
    <i name="e_0_energy">   -194.70455589 </i>
   </energy>
  </scstep>
  <scstep>
   <time name="total">   27.74   27.95</time>
   <energy>
    <i name="e_fr_energy">   -194.70548732 </i>
    <i name="e_wo_entrp">   -194.70447982 </i>
    <i name="e_0_energy">   -194.70498357 </i>
   </energy>
  </scstep>
  <scstep>
   <time name="total">   27.99   28.21</time>
   <energy>
    <i name="e_fr_energy">   -194.70565087 </i>
    <i name="e_wo_entrp">   -194.70464076 </i>
    <i name="e_0_energy">   -194.70514582 </i>
   </energy>
  </scstep>
  <scstep>
   <time name="total">   28.18   28.40</time>
   <energy>
    <i name="e_fr_energy">   -194.70570410 </i>
    <i name="e_wo_entrp">   -194.70469205 </i>
    <i name="e_0_energy">   -194.70519808 </i>
   </energy>
  </scstep>
  <scstep>
   <time name="total">   27.58   27.80</time>
   <energy>
    <i name="e_fr_energy">   -194.70572150 </i>
    <i name="e_wo_entrp">   -194.70470754 </i>
    <i name="e_0_energy">   -194.70521452 </i>
   </energy>
  </scstep>
  <scstep>
   <time name="total">   27.98   28.20</time>
   <energy>
    <i name="e_fr_energy">   -194.70572766 </i>
    <i name="e_wo_entrp">   -194.70471356 </i>
    <i name="e_0_energy">   -194.70522061 </i>
   </energy>
  </scstep>
  <scstep>
   <time name="total">   27.75   27.97</time>
   <energy>
    <i name="e_fr_energy">   -194.70572963 </i>
    <i name="e_wo_entrp">   -194.70471516 </i>
    <i name="e_0_energy">   -194.70522240 </i>
   </energy>
  </scstep>
  <scstep>
   <time name="total">   28.07   28.29</time>
   <energy>
    <i name="e_fr_energy">   -194.70573075 </i>
    <i name="e_wo_entrp">   -194.70471609 </i>
    <i name="e_0_energy">   -194.70522342 </i>
   </energy>
  </scstep>
  <scstep>
   <time name="total">   27.51   27.74</time>
   <energy>
    <i name="e_fr_energy">   -194.70573111 </i>
    <i name="e_wo_entrp">   -194.70471654 </i>
    <i name="e_0_energy">   -194.70522383 </i>
   </energy>
  </scstep>
  <scstep>
   <time name="total">   27.79   28.00</time>
   <energy>
    <i name="e_fr_energy">   -194.70573123 </i>
    <i name="e_wo_entrp">   -194.70471672 </i>
    <i name="e_0_energy">   -194.70522397 </i>
   </energy>
  </scstep>
  <scstep>
   <time name="total">   27.98   28.20</time>
   <energy>
    <i name="e_fr_energy">   -194.70573126 </i>
    <i name="e_wo_entrp">   -194.70471673 </i>
    <i name="e_0_energy">   -194.70522400 </i>
   </energy>
  </scstep>
  <scstep>
   <time name="total">   27.60   27.81</time>
   <energy>
    <i name="e_fr_energy">   -194.70573130 </i>
    <i name="e_wo_entrp">   -194.70471689 </i>
    <i name="e_0_energy">   -194.70522410 </i>
   </energy>
  </scstep>
  <scstep>
   <time name="total">   27.95   28.16</time>
   <energy>
    <i name="e_fr_energy">   -194.70573133 </i>
    <i name="e_wo_entrp">   -194.70471698 </i>
    <i name="e_0_energy">   -194.70522415 </i>
   </energy>
  </scstep>
  <scstep>
   <time name="total">   28.03   28.24</time>
   <energy>
    <i name="e_fr_energy">   -194.70573134 </i>
    <i name="e_wo_entrp">   -194.70471701 </i>
    <i name="e_0_energy">   -194.70522417 </i>
   </energy>
  </scstep>
  <scstep>
   <time name="total">   27.97   28.20</time>
   <energy>
    <i name="e_fr_energy">   -194.70573134 </i>
    <i name="e_wo_entrp">   -194.70471699 </i>
    <i name="e_0_energy">   -194.70522417 </i>
   </energy>
  </scstep>
  <scstep>
   <time name="total">   27.96   28.18</time>
   <energy>
    <i name="e_fr_energy">   -194.70573135 </i>
    <i name="e_wo_entrp">   -194.70471699 </i>
    <i name="e_0_energy">   -194.70522417 </i>
   </energy>
  </scstep>
  <scstep>
   <time name="total">   28.05   28.27</time>
   <energy>
    <i name="e_fr_energy">   -194.70573135 </i>
    <i name="e_wo_entrp">   -194.70471699 </i>
    <i name="e_0_energy">   -194.70522417 </i>
   </energy>
  </scstep>
  <scstep>
   <time name="total">   31.91   32.15</time>
   <energy>
    <i name="alphaZ">    700.15143826 </i>
    <i name="ewald"> -10051.35579736 </i>
    <i name="hartreedc">  -2024.65497741 </i>
    <i name="XCdc">    502.64341218 </i>
    <i name="pawpsdc">  14672.43240134 </i>
    <i name="pawaedc"> -14654.95422668 </i>
    <i name="eentropy">     -0.00101436 </i>
    <i name="bandstr">  -1003.47361403 </i>
    <i name="atom">  11664.50664672 </i>
    <i name="e_fr_energy">   -194.70573135 </i>
    <i name="e_wo_entrp">   -194.70471699 </i>
    <i name="e_0_energy">   -194.70522417 </i>
   </energy>
  </scstep>
  <structure>
   <crystal>
    <varray name="basis" >
     <v>       4.93358888       0.00000000      -3.00627758 </v>
     <v>      -1.55646879       4.68163477      -3.00627758 </v>
     <v>       0.00000000       0.00000000       5.77737000 </v>
    </varray>
    <i name="volume">    133.44142424 </i>
    <varray name="rec_basis" >
     <v>       0.20269220       0.06738759       0.00000000 </v>
     <v>       0.00000000       0.21360060       0.00000000 </v>
     <v>       0.10547170       0.14621333       0.17308914 </v>
    </varray>
   </crystal>
   <varray name="positions" >
    <v>       0.00000000       0.50000000       0.00000000 </v>
    <v>       0.50000000       0.50000000       0.50000000 </v>
    <v>       0.50000000       0.00000000       0.00000000 </v>
    <v>       0.00000000       0.00000000       0.50000000 </v>
    <v>       0.25000000       0.75000000       0.50000000 </v>
    <v>       0.24394000       0.74394000       0.98788000 </v>
    <v>       0.75000000       0.25000000       0.50000000 </v>
    <v>       0.75606000       0.25606000       0.01212000 </v>
    <v>       0.74394000       0.75606000       0.50000000 </v>
    <v>       0.25606000       0.24394000       0.50000000 </v>
    <v>       0.25000000       0.25000000       0.00000000 </v>
    <v>       0.75000000       0.75000000       0.00000000 </v>
   </varray>
  </structure>
  <varray name="forces" >
   <v>       0.00000000       0.00000000       0.00000000 </v>
   <v>       0.00000000       0.00000000       0.00000000 </v>
   <v>       0.00000000       0.00000000       0.00000000 </v>
   <v>       0.00000000       0.00000000       0.00000000 </v>
   <v>       0.00000000       0.00000000       0.00000000 </v>
   <v>       0.00000000       0.00000000       0.00000000 </v>
   <v>       0.00000000       0.00000000       0.00000000 </v>
   <v>       0.00000000       0.00000000       0.00000000 </v>
   <v>       0.00000000       0.00000000       0.00000000 </v>
   <v>       0.00000000       0.00000000       0.00000000 </v>
   <v>       0.00000000       0.00000000       0.00000000 </v>
   <v>       0.00000000       0.00000000       0.00000000 </v>
  </varray>
  <varray name="stress" >
   <v>       0.00000000       0.00000000       0.00000000 </v>
   <v>       0.00000000       0.00000000       0.00000000 </v>
   <v>       0.00000000       0.00000000       0.00000000 </v>
  </varray>
  <energy>
   <i name="e_fr_energy">   -194.70573135 </i>
   <i name="e_wo_entrp">   -194.70471699 </i>
   <i name="e_0_energy">   -194.70522417 </i>
  </energy>
  <time name="totalsc">  918.78  926.01</time>
  <eigenvalues>
   <array>
    <dimension dim="1">band</dimension>
    <dimension dim="2">kpoint</dimension>
    <dimension dim="3">spin</dimension>
    <field>eigene</field>
    <field>occ</field>
    <set>
     <set comment="spin 1">
      <set comment="kpoint 1">
       <r>  -50.2226    1.0000 </r>
       <r>  -50.0986    1.0000 </r>
       <r>  -50.0986    1.0000 </r>
       <r>  -50.0164    1.0000 </r>
       <r>  -49.9713    1.0000 </r>
       <r>  -49.9302    1.0000 </r>
       <r>  -24.1582    1.0000 </r>
       <r>  -24.1582    1.0000 </r>
       <r>  -24.1192    1.0000 </r>
       <r>  -24.0658    1.0000 </r>
       <r>  -24.0658    1.0000 </r>
       <r>  -24.0054    1.0000 </r>
       <r>  -23.9864    1.0000 </r>
       <r>  -23.6010    1.0000 </r>
       <r>  -23.6010    1.0000 </r>
       <r>  -23.5896    1.0000 </r>
       <r>  -23.2958    1.0000 </r>
       <r>  -23.2958    1.0000 </r>
       <r>  -23.1586    1.0000 </r>
       <r>  -23.1169    1.0000 </r>
       <r>  -23.1169    1.0000 </r>
       <r>  -23.0479    1.0000 </r>
       <r>  -22.9162    1.0000 </r>
       <r>  -22.9081    1.0000 </r>
       <r>   -1.6109    1.0000 </r>
       <r>    0.3816    1.0000 </r>
       <r>    3.0475    1.0000 </r>
       <r>    4.5193    1.0000 </r>
       <r>    4.5193    1.0000 </r>
       <r>    5.7368    1.0000 </r>
       <r>    6.1080    1.0000 </r>
       <r>    6.1080    1.0000 </r>
       <r>    6.7951    1.0000 </r>
       <r>    6.7951    1.0000 </r>
       <r>    6.8002    1.0000 </r>
       <r>    7.0544    1.0000 </r>
       <r>    7.3104    1.0000 </r>
       <r>    8.2640    1.0000 </r>
       <r>    8.2640    1.0000 </r>
       <r>    8.4150    1.0000 </r>
       <r>    8.8145    1.0000 </r>
       <r>    9.1852    1.0000 </r>
       <r>    9.5774    1.0000 </r>
       <r>    9.5774    1.0000 </r>
       <r>   10.3363    1.0000 </r>
       <r>   11.3619    1.0000 </r>
       <r>   11.8601    1.0000 </r>
       <r>   12.5168    1.0000 </r>
       <r>   12.5168    1.0000 </r>
       <r>   12.5389    1.0000 </r>
       <r>   12.5939    1.0000 </r>
       <r>   12.5939    1.0000 </r>
       <r>   13.5252    0.0000 </r>
       <r>   13.9116    0.0000 </r>
       <r>   14.3810    0.0000 </r>
       <r>   14.4896    0.0000 </r>
       <r>   14.6122    0.0000 </r>
       <r>   14.8677    0.0000 </r>
       <r>   14.9357    0.0000 </r>
       <r>   14.9357    0.0000 </r>
       <r>   15.3358    0.0000 </r>
       <r>   15.5541    0.0000 </r>
       <r>   15.9357    0.0000 </r>
       <r>   15.9359    0.0000 </r>
       <r>   16.6942    0.0000 </r>
       <r>   17.7457    0.0000 </r>
      </set>
      <set comment="kpoint 2">
       <r>  -50.2173    1.0000 </r>
       <r>  -50.1020    1.0000 </r>
       <r>  -50.0956    1.0000 </r>
       <r>  -50.0197    1.0000 </r>
       <r>  -49.9711    1.0000 </r>
       <r>  -49.9325    1.0000 </r>
       <r>  -24.1474    1.0000 </r>
       <r>  -24.1416    1.0000 </r>
       <r>  -24.0912    1.0000 </r>
       <r>  -24.0612    1.0000 </r>
       <r>  -24.0430    1.0000 </r>
       <r>  -23.9870    1.0000 </r>
       <r>  -23.9698    1.0000 </r>
       <r>  -23.6123    1.0000 </r>
       <r>  -23.6047    1.0000 </r>
       <r>  -23.5834    1.0000 </r>
       <r>  -23.3151    1.0000 </r>
       <r>  -23.3109    1.0000 </r>
       <r>  -23.1760    1.0000 </r>
       <r>  -23.1492    1.0000 </r>
       <r>  -23.1179    1.0000 </r>
       <r>  -23.0624    1.0000 </r>
       <r>  -22.9288    1.0000 </r>
       <r>  -22.9197    1.0000 </r>
       <r>   -1.4961    1.0000 </r>
       <r>    0.4308    1.0000 </r>
       <r>    3.0573    1.0000 </r>
       <r>    4.0695    1.0000 </r>
       <r>    4.3329    1.0000 </r>
       <r>    6.0513    1.0000 </r>
       <r>    6.1766    1.0000 </r>
       <r>    6.3411    1.0000 </r>
       <r>    6.3599    1.0000 </r>
       <r>    6.8194    1.0000 </r>
       <r>    6.9162    1.0000 </r>
       <r>    7.1585    1.0000 </r>
       <r>    7.5529    1.0000 </r>
       <r>    8.1629    1.0000 </r>
       <r>    8.4222    1.0000 </r>
       <r>    8.6507    1.0000 </r>
       <r>    8.9394    1.0000 </r>
       <r>    9.0722    1.0000 </r>
       <r>    9.5850    1.0000 </r>
       <r>    9.7040    1.0000 </r>
       <r>   10.3925    1.0000 </r>
       <r>   11.2695    1.0000 </r>
       <r>   11.8999    1.0000 </r>
       <r>   12.3002    1.0000 </r>
       <r>   12.4712    1.0000 </r>
       <r>   12.6102    1.0000 </r>
       <r>   12.6196    1.0000 </r>
       <r>   12.6608    1.0000 </r>
       <r>   13.2404    0.0000 </r>
       <r>   13.3399    0.0000 </r>
       <r>   13.6835    0.0000 </r>
       <r>   14.4945    0.0000 </r>
       <r>   14.6384    0.0000 </r>
       <r>   14.9181    0.0000 </r>
       <r>   15.0971    0.0000 </r>
       <r>   15.1035    0.0000 </r>
       <r>   15.1966    0.0000 </r>
       <r>   15.7930    0.0000 </r>
       <r>   15.8150    0.0000 </r>
       <r>   15.8712    0.0000 </r>
       <r>   16.6921    0.0000 </r>
       <r>   17.0951    0.0000 </r>
      </set>
      <set comment="kpoint 3">
       <r>  -50.2023    1.0000 </r>
       <r>  -50.1127    1.0000 </r>
       <r>  -50.0868    1.0000 </r>
       <r>  -50.0289    1.0000 </r>
       <r>  -49.9694    1.0000 </r>
       <r>  -49.9386    1.0000 </r>
       <r>  -24.1282    1.0000 </r>
       <r>  -24.0960    1.0000 </r>
       <r>  -24.0617    1.0000 </r>
       <r>  -24.0122    1.0000 </r>
       <r>  -23.9866    1.0000 </r>
       <r>  -23.9232    1.0000 </r>
       <r>  -23.9100    1.0000 </r>
       <r>  -23.6430    1.0000 </r>
       <r>  -23.6255    1.0000 </r>
       <r>  -23.5473    1.0000 </r>
       <r>  -23.3751    1.0000 </r>
       <r>  -23.3568    1.0000 </r>
       <r>  -23.2522    1.0000 </r>
       <r>  -23.2336    1.0000 </r>
       <r>  -23.1195    1.0000 </r>
       <r>  -23.0875    1.0000 </r>
       <r>  -22.9532    1.0000 </r>
       <r>  -22.9453    1.0000 </r>
       <r>   -1.1655    1.0000 </r>
       <r>    0.5030    1.0000 </r>
       <r>    3.0966    1.0000 </r>
       <r>    3.4494    1.0000 </r>
       <r>    3.9721    1.0000 </r>
       <r>    5.2521    1.0000 </r>
       <r>    6.2867    1.0000 </r>
       <r>    6.9164    1.0000 </r>
       <r>    6.9189    1.0000 </r>
       <r>    7.0399    1.0000 </r>
       <r>    7.0740    1.0000 </r>
       <r>    7.3848    1.0000 </r>
       <r>    7.7032    1.0000 </r>
       <r>    8.2032    1.0000 </r>
       <r>    8.7738    1.0000 </r>
       <r>    8.9237    1.0000 </r>
       <r>    9.0292    1.0000 </r>
       <r>    9.2436    1.0000 </r>
       <r>    9.4859    1.0000 </r>
       <r>   10.0431    1.0000 </r>
       <r>   10.5461    1.0000 </r>
       <r>   11.1385    1.0000 </r>
       <r>   11.7422    1.0000 </r>
       <r>   11.7589    1.0000 </r>
       <r>   11.8999    1.0000 </r>
       <r>   12.1932    1.0000 </r>
       <r>   12.4527    1.0000 </r>
       <r>   12.8513    0.0000 </r>
       <r>   12.8785    0.0000 </r>
       <r>   13.1968    0.0000 </r>
       <r>   13.4920    0.0000 </r>
       <r>   14.2375    0.0000 </r>
       <r>   14.5269    0.0000 </r>
       <r>   14.7062    0.0000 </r>
       <r>   14.7188    0.0000 </r>
       <r>   14.7478    0.0000 </r>
       <r>   15.2435    0.0000 </r>
       <r>   15.6069    0.0000 </r>
       <r>   15.6116    0.0000 </r>
       <r>   15.8473    0.0000 </r>
       <r>   16.6542    0.0000 </r>
       <r>   16.9513    0.0000 </r>
      </set>
      <set comment="kpoint 4">
       <r>  -50.1802    1.0000 </r>
       <r>  -50.1310    1.0000 </r>
       <r>  -50.0737    1.0000 </r>
       <r>  -50.0424    1.0000 </r>
       <r>  -49.9647    1.0000 </r>
       <r>  -49.9474    1.0000 </r>
       <r>  -24.1085    1.0000 </r>
       <r>  -24.0754    1.0000 </r>
       <r>  -24.0274    1.0000 </r>
       <r>  -23.9434    1.0000 </r>
       <r>  -23.9235    1.0000 </r>
       <r>  -23.8457    1.0000 </r>
       <r>  -23.7817    1.0000 </r>
       <r>  -23.6673    1.0000 </r>
       <r>  -23.6208    1.0000 </r>
       <r>  -23.4992    1.0000 </r>
       <r>  -23.4642    1.0000 </r>
       <r>  -23.4375    1.0000 </r>
       <r>  -23.4097    1.0000 </r>
       <r>  -23.3253    1.0000 </r>
       <r>  -23.1190    1.0000 </r>
       <r>  -23.1045    1.0000 </r>
       <r>  -22.9716    1.0000 </r>
       <r>  -22.9678    1.0000 </r>
       <r>   -0.6644    1.0000 </r>
       <r>    0.3684    1.0000 </r>
       <r>    3.1831    1.0000 </r>
       <r>    3.2313    1.0000 </r>
       <r>    3.6282    1.0000 </r>
       <r>    4.3281    1.0000 </r>
       <r>    6.5052    1.0000 </r>
       <r>    6.9118    1.0000 </r>
       <r>    7.1167    1.0000 </r>
       <r>    7.4358    1.0000 </r>
       <r>    7.7032    1.0000 </r>
       <r>    7.8287    1.0000 </r>
       <r>    8.0974    1.0000 </r>
       <r>    8.4675    1.0000 </r>
       <r>    8.8502    1.0000 </r>
       <r>    8.9519    1.0000 </r>
       <r>    9.0459    1.0000 </r>
       <r>    9.2264    1.0000 </r>
       <r>    9.7361    1.0000 </r>
       <r>   10.4130    1.0000 </r>
       <r>   10.5757    1.0000 </r>
       <r>   10.9583    1.0000 </r>
       <r>   11.2843    1.0000 </r>
       <r>   11.2897    1.0000 </r>
       <r>   11.4051    1.0000 </r>
       <r>   11.9342    1.0000 </r>
       <r>   11.9517    1.0000 </r>
       <r>   12.6277    1.0000 </r>
       <r>   13.2074    0.0000 </r>
       <r>   13.2889    0.0000 </r>
       <r>   13.4314    0.0000 </r>
       <r>   13.9369    0.0000 </r>
       <r>   14.0092    0.0000 </r>
       <r>   14.2778    0.0000 </r>
       <r>   14.2955    0.0000 </r>
       <r>   14.5767    0.0000 </r>
       <r>   14.7256    0.0000 </r>
       <r>   15.8045    0.0000 </r>
       <r>   15.9155    0.0000 </r>
       <r>   16.0086    0.0000 </r>
       <r>   16.1173    0.0000 </r>
       <r>   16.2241    0.0000 </r>
      </set>
      <set comment="kpoint 5">
       <r>  -50.1549    1.0000 </r>
       <r>  -50.1549    1.0000 </r>
       <r>  -50.0581    1.0000 </r>
       <r>  -50.0581    1.0000 </r>
       <r>  -49.9569    1.0000 </r>
       <r>  -49.9569    1.0000 </r>
       <r>  -24.0904    1.0000 </r>
       <r>  -24.0904    1.0000 </r>
       <r>  -23.9645    1.0000 </r>
       <r>  -23.9645    1.0000 </r>
       <r>  -23.8528    1.0000 </r>
       <r>  -23.8528    1.0000 </r>
       <r>  -23.6117    1.0000 </r>
       <r>  -23.6117    1.0000 </r>
       <r>  -23.5973    1.0000 </r>
       <r>  -23.5973    1.0000 </r>
       <r>  -23.5330    1.0000 </r>
       <r>  -23.5330    1.0000 </r>
       <r>  -23.4123    1.0000 </r>
       <r>  -23.4123    1.0000 </r>
       <r>  -23.1143    1.0000 </r>
       <r>  -23.1143    1.0000 </r>
       <r>  -22.9772    1.0000 </r>
       <r>  -22.9772    1.0000 </r>
       <r>   -0.0891    1.0000 </r>
       <r>   -0.0891    1.0000 </r>
       <r>    3.3624    1.0000 </r>
       <r>    3.3624    1.0000 </r>
       <r>    3.5810    1.0000 </r>
       <r>    3.5810    1.0000 </r>
       <r>    6.7069    1.0000 </r>
       <r>    6.7069    1.0000 </r>
       <r>    7.3430    1.0000 </r>
       <r>    7.3430    1.0000 </r>
       <r>    8.4016    1.0000 </r>
       <r>    8.4016    1.0000 </r>
       <r>    8.4554    1.0000 </r>
       <r>    8.4554    1.0000 </r>
       <r>    8.7066    1.0000 </r>
       <r>    8.7066    1.0000 </r>
       <r>    8.9340    1.0000 </r>
       <r>    8.9340    1.0000 </r>
       <r>   10.2000    1.0000 </r>
       <r>   10.2000    1.0000 </r>
       <r>   10.6289    1.0000 </r>
       <r>   10.6289    1.0000 </r>
       <r>   11.1486    1.0000 </r>
       <r>   11.1486    1.0000 </r>
       <r>   11.8266    1.0000 </r>
       <r>   11.8266    1.0000 </r>
       <r>   11.9904    1.0000 </r>
       <r>   11.9904    1.0000 </r>
       <r>   13.1845    0.0000 </r>
       <r>   13.1845    0.0000 </r>
       <r>   13.6374    0.0000 </r>
       <r>   13.6374    0.0000 </r>
       <r>   13.8307    0.0000 </r>
       <r>   13.8307    0.0000 </r>
       <r>   14.4035    0.0000 </r>
       <r>   14.4035    0.0000 </r>
       <r>   15.1154    0.0000 </r>
       <r>   15.1154    0.0000 </r>
       <r>   16.0741    0.0000 </r>
       <r>   16.0772    0.0000 </r>
       <r>   16.4203    0.0000 </r>
       <r>   16.4350    0.0000 </r>
      </set>
      <set comment="kpoint 6">
       <r>  -50.2098    1.0000 </r>
       <r>  -50.0997    1.0000 </r>
       <r>  -50.0988    1.0000 </r>
       <r>  -50.0233    1.0000 </r>
       <r>  -49.9701    1.0000 </r>
       <r>  -49.9369    1.0000 </r>
       <r>  -24.1292    1.0000 </r>
       <r>  -24.1158    1.0000 </r>
       <r>  -24.0424    1.0000 </r>
       <r>  -24.0373    1.0000 </r>
       <r>  -24.0305    1.0000 </r>
       <r>  -23.9552    1.0000 </r>
       <r>  -23.9449    1.0000 </r>
       <r>  -23.6374    1.0000 </r>
       <r>  -23.6104    1.0000 </r>
       <r>  -23.5735    1.0000 </r>
       <r>  -23.3652    1.0000 </r>
       <r>  -23.3297    1.0000 </r>
       <r>  -23.1902    1.0000 </r>
       <r>  -23.1677    1.0000 </r>
       <r>  -23.1454    1.0000 </r>
       <r>  -23.0806    1.0000 </r>
       <r>  -22.9470    1.0000 </r>
       <r>  -22.9406    1.0000 </r>
       <r>   -1.3180    1.0000 </r>
       <r>    0.5045    1.0000 </r>
       <r>    3.1187    1.0000 </r>
       <r>    3.5522    1.0000 </r>
       <r>    4.1248    1.0000 </r>
       <r>    6.1121    1.0000 </r>
       <r>    6.2612    1.0000 </r>
       <r>    6.2904    1.0000 </r>
       <r>    6.5830    1.0000 </r>
       <r>    6.8861    1.0000 </r>
       <r>    6.9481    1.0000 </r>
       <r>    7.3953    1.0000 </r>
       <r>    7.6101    1.0000 </r>
       <r>    8.3628    1.0000 </r>
       <r>    8.5715    1.0000 </r>
       <r>    8.9212    1.0000 </r>
       <r>    8.9359    1.0000 </r>
       <r>    8.9920    1.0000 </r>
       <r>    9.6492    1.0000 </r>
       <r>    9.7138    1.0000 </r>
       <r>   10.4060    1.0000 </r>
       <r>   11.2471    1.0000 </r>
       <r>   11.8872    1.0000 </r>
       <r>   12.1062    1.0000 </r>
       <r>   12.2513    1.0000 </r>
       <r>   12.2984    1.0000 </r>
       <r>   12.5746    1.0000 </r>
       <r>   12.6607    1.0000 </r>
       <r>   13.0298    0.0000 </r>
       <r>   13.0371    0.0000 </r>
       <r>   13.4402    0.0000 </r>
       <r>   14.4866    0.0000 </r>
       <r>   14.6262    0.0000 </r>
       <r>   14.7754    0.0000 </r>
       <r>   14.8679    0.0000 </r>
       <r>   14.9337    0.0000 </r>
       <r>   15.3187    0.0000 </r>
       <r>   15.7100    0.0000 </r>
       <r>   15.7572    0.0000 </r>
       <r>   15.9506    0.0000 </r>
       <r>   16.6890    0.0000 </r>
       <r>   16.9004    0.0000 </r>
      </set>
      <set comment="kpoint 7">
       <r>  -50.1933    1.0000 </r>
       <r>  -50.1113    1.0000 </r>
       <r>  -50.0907    1.0000 </r>
       <r>  -50.0328    1.0000 </r>
       <r>  -49.9667    1.0000 </r>
       <r>  -49.9443    1.0000 </r>
       <r>  -24.1026    1.0000 </r>
       <r>  -24.0695    1.0000 </r>
       <r>  -24.0454    1.0000 </r>
       <r>  -23.9762    1.0000 </r>
       <r>  -23.9421    1.0000 </r>
       <r>  -23.8927    1.0000 </r>
       <r>  -23.8645    1.0000 </r>
       <r>  -23.6781    1.0000 </r>
       <r>  -23.6242    1.0000 </r>
       <r>  -23.5393    1.0000 </r>
       <r>  -23.4501    1.0000 </r>
       <r>  -23.3797    1.0000 </r>
       <r>  -23.2750    1.0000 </r>
       <r>  -23.2417    1.0000 </r>
       <r>  -23.1568    1.0000 </r>
       <r>  -23.1103    1.0000 </r>
       <r>  -22.9664    1.0000 </r>
       <r>  -22.9641    1.0000 </r>
       <r>   -0.9401    1.0000 </r>
       <r>    0.5621    1.0000 </r>
       <r>    2.9605    1.0000 </r>
       <r>    3.1501    1.0000 </r>
       <r>    3.8916    1.0000 </r>
       <r>    5.3044    1.0000 </r>
       <r>    6.3654    1.0000 </r>
       <r>    6.6238    1.0000 </r>
       <r>    6.8207    1.0000 </r>
       <r>    6.9543    1.0000 </r>
       <r>    7.4696    1.0000 </r>
       <r>    7.8460    1.0000 </r>
       <r>    7.8835    1.0000 </r>
       <r>    8.4530    1.0000 </r>
       <r>    8.8587    1.0000 </r>
       <r>    8.8987    1.0000 </r>
       <r>    9.1863    1.0000 </r>
       <r>    9.3912    1.0000 </r>
       <r>    9.4970    1.0000 </r>
       <r>    9.9566    1.0000 </r>
       <r>   10.5340    1.0000 </r>
       <r>   11.1248    1.0000 </r>
       <r>   11.2143    1.0000 </r>
       <r>   11.5927    1.0000 </r>
       <r>   11.7694    1.0000 </r>
       <r>   12.1472    1.0000 </r>
       <r>   12.3918    1.0000 </r>
       <r>   12.6278    1.0000 </r>
       <r>   12.9706    0.0000 </r>
       <r>   13.2023    0.0000 </r>
       <r>   13.3701    0.0000 </r>
       <r>   14.0327    0.0000 </r>
       <r>   14.2878    0.0000 </r>
       <r>   14.4096    0.0000 </r>
       <r>   14.8014    0.0000 </r>
       <r>   14.9105    0.0000 </r>
       <r>   15.2373    0.0000 </r>
       <r>   15.5371    0.0000 </r>
       <r>   15.5856    0.0000 </r>
       <r>   15.7170    0.0000 </r>
       <r>   16.2637    0.0000 </r>
       <r>   16.8957    0.0000 </r>
      </set>
      <set comment="kpoint 8">
       <r>  -50.1710    1.0000 </r>
       <r>  -50.1314    1.0000 </r>
       <r>  -50.0778    1.0000 </r>
       <r>  -50.0464    1.0000 </r>
       <r>  -49.9601    1.0000 </r>
       <r>  -49.9532    1.0000 </r>
       <r>  -24.0812    1.0000 </r>
       <r>  -24.0671    1.0000 </r>
       <r>  -23.9958    1.0000 </r>
       <r>  -23.9458    1.0000 </r>
       <r>  -23.8715    1.0000 </r>
       <r>  -23.8079    1.0000 </r>
       <r>  -23.7424    1.0000 </r>
       <r>  -23.6859    1.0000 </r>
       <r>  -23.6041    1.0000 </r>
       <r>  -23.5682    1.0000 </r>
       <r>  -23.4709    1.0000 </r>
       <r>  -23.4594    1.0000 </r>
       <r>  -23.4370    1.0000 </r>
       <r>  -23.3296    1.0000 </r>
       <r>  -23.1578    1.0000 </r>
       <r>  -23.1281    1.0000 </r>
       <r>  -22.9833    1.0000 </r>
       <r>  -22.9713    1.0000 </r>
       <r>   -0.4210    1.0000 </r>
       <r>    0.3530    1.0000 </r>
       <r>    2.7002    1.0000 </r>
       <r>    3.1466    1.0000 </r>
       <r>    3.8051    1.0000 </r>
       <r>    4.5213    1.0000 </r>
       <r>    6.5144    1.0000 </r>
       <r>    6.7082    1.0000 </r>
       <r>    6.8596    1.0000 </r>
       <r>    7.2265    1.0000 </r>
       <r>    8.1267    1.0000 </r>
       <r>    8.2706    1.0000 </r>
       <r>    8.4072    1.0000 </r>
       <r>    8.5979    1.0000 </r>
       <r>    8.8652    1.0000 </r>
       <r>    8.9495    1.0000 </r>
       <r>    9.1122    1.0000 </r>
       <r>    9.1843    1.0000 </r>
       <r>    9.8221    1.0000 </r>
       <r>   10.2421    1.0000 </r>
       <r>   10.5324    1.0000 </r>
       <r>   10.5918    1.0000 </r>
       <r>   11.1150    1.0000 </r>
       <r>   11.4395    1.0000 </r>
       <r>   11.5612    1.0000 </r>
       <r>   11.8756    1.0000 </r>
       <r>   12.1779    1.0000 </r>
       <r>   12.2507    1.0000 </r>
       <r>   13.0562    0.0000 </r>
       <r>   13.2784    0.0000 </r>
       <r>   13.3937    0.0000 </r>
       <r>   13.7805    0.0000 </r>
       <r>   13.8499    0.0000 </r>
       <r>   14.2462    0.0000 </r>
       <r>   14.4675    0.0000 </r>
       <r>   14.7228    0.0000 </r>
       <r>   15.0140    0.0000 </r>
       <r>   15.2391    0.0000 </r>
       <r>   15.7929    0.0000 </r>
       <r>   15.8337    0.0000 </r>
       <r>   16.0817    0.0000 </r>
       <r>   16.1713    0.0000 </r>
      </set>
      <set comment="kpoint 9">
       <r>  -50.1563    1.0000 </r>
       <r>  -50.1467    1.0000 </r>
       <r>  -50.0624    1.0000 </r>
       <r>  -50.0618    1.0000 </r>
       <r>  -49.9616    1.0000 </r>
       <r>  -49.9512    1.0000 </r>
       <r>  -24.0896    1.0000 </r>
       <r>  -24.0630    1.0000 </r>
       <r>  -23.9839    1.0000 </r>
       <r>  -23.9403    1.0000 </r>
       <r>  -23.8517    1.0000 </r>
       <r>  -23.8218    1.0000 </r>
       <r>  -23.6771    1.0000 </r>
       <r>  -23.6370    1.0000 </r>
       <r>  -23.5906    1.0000 </r>
       <r>  -23.5696    1.0000 </r>
       <r>  -23.5321    1.0000 </r>
       <r>  -23.4893    1.0000 </r>
       <r>  -23.4215    1.0000 </r>
       <r>  -23.4038    1.0000 </r>
       <r>  -23.1523    1.0000 </r>
       <r>  -23.1369    1.0000 </r>
       <r>  -22.9849    1.0000 </r>
       <r>  -22.9669    1.0000 </r>
       <r>   -0.1590    1.0000 </r>
       <r>    0.1214    1.0000 </r>
       <r>    2.7340    1.0000 </r>
       <r>    3.0606    1.0000 </r>
       <r>    4.0559    1.0000 </r>
       <r>    4.1104    1.0000 </r>
       <r>    6.2950    1.0000 </r>
       <r>    6.9406    1.0000 </r>
       <r>    7.0324    1.0000 </r>
       <r>    7.2458    1.0000 </r>
       <r>    8.0792    1.0000 </r>
       <r>    8.3414    1.0000 </r>
       <r>    8.5675    1.0000 </r>
       <r>    8.7455    1.0000 </r>
       <r>    8.8126    1.0000 </r>
       <r>    8.8807    1.0000 </r>
       <r>    9.0531    1.0000 </r>
       <r>    9.1673    1.0000 </r>
       <r>   10.1223    1.0000 </r>
       <r>   10.2955    1.0000 </r>
       <r>   10.4608    1.0000 </r>
       <r>   10.6643    1.0000 </r>
       <r>   11.0963    1.0000 </r>
       <r>   11.3622    1.0000 </r>
       <r>   11.6420    1.0000 </r>
       <r>   11.7650    1.0000 </r>
       <r>   12.0122    1.0000 </r>
       <r>   12.2308    1.0000 </r>
       <r>   12.9828    0.0000 </r>
       <r>   13.2363    0.0000 </r>
       <r>   13.5552    0.0000 </r>
       <r>   13.5851    0.0000 </r>
       <r>   13.8579    0.0000 </r>
       <r>   13.9923    0.0000 </r>
       <r>   14.4761    0.0000 </r>
       <r>   14.5080    0.0000 </r>
       <r>   14.7516    0.0000 </r>
       <r>   15.5203    0.0000 </r>
       <r>   15.8899    0.0000 </r>
       <r>   16.0140    0.0000 </r>
       <r>   16.2365    0.0000 </r>
       <r>   16.3347    0.0000 </r>
      </set>
      <set comment="kpoint 10">
       <r>  -50.1813    1.0000 </r>
       <r>  -50.1248    1.0000 </r>
       <r>  -50.0773    1.0000 </r>
       <r>  -50.0462    1.0000 </r>
       <r>  -49.9677    1.0000 </r>
       <r>  -49.9423    1.0000 </r>
       <r>  -24.1179    1.0000 </r>
       <r>  -24.0526    1.0000 </r>
       <r>  -24.0391    1.0000 </r>
       <r>  -23.9439    1.0000 </r>
       <r>  -23.9322    1.0000 </r>
       <r>  -23.8627    1.0000 </r>
       <r>  -23.7916    1.0000 </r>
       <r>  -23.6790    1.0000 </r>
       <r>  -23.6125    1.0000 </r>
       <r>  -23.5073    1.0000 </r>
       <r>  -23.4650    1.0000 </r>
       <r>  -23.3812    1.0000 </r>
       <r>  -23.3706    1.0000 </r>
       <r>  -23.3327    1.0000 </r>
       <r>  -23.1420    1.0000 </r>
       <r>  -23.1382    1.0000 </r>
       <r>  -22.9716    1.0000 </r>
       <r>  -22.9509    1.0000 </r>
       <r>   -0.7268    1.0000 </r>
       <r>    0.4791    1.0000 </r>
       <r>    2.8003    1.0000 </r>
       <r>    3.0448    1.0000 </r>
       <r>    4.1469    1.0000 </r>
       <r>    4.6884    1.0000 </r>
       <r>    6.1118    1.0000 </r>
       <r>    6.9461    1.0000 </r>
       <r>    6.9897    1.0000 </r>
       <r>    7.2036    1.0000 </r>
       <r>    7.3230    1.0000 </r>
       <r>    7.9425    1.0000 </r>
       <r>    8.2061    1.0000 </r>
       <r>    8.5870    1.0000 </r>
       <r>    8.8031    1.0000 </r>
       <r>    8.8501    1.0000 </r>
       <r>    9.3580    1.0000 </r>
       <r>    9.4701    1.0000 </r>
       <r>    9.7370    1.0000 </r>
       <r>   10.3150    1.0000 </r>
       <r>   10.7598    1.0000 </r>
       <r>   10.9315    1.0000 </r>
       <r>   11.1641    1.0000 </r>
       <r>   11.4009    1.0000 </r>
       <r>   11.5190    1.0000 </r>
       <r>   11.8861    1.0000 </r>
       <r>   12.2300    1.0000 </r>
       <r>   12.7668    0.0347 </r>
       <r>   13.0358    0.0000 </r>
       <r>   13.1732    0.0000 </r>
       <r>   13.2772    0.0000 </r>
       <r>   13.8783    0.0000 </r>
       <r>   14.2983    0.0000 </r>
       <r>   14.3425    0.0000 </r>
       <r>   14.4802    0.0000 </r>
       <r>   14.6571    0.0000 </r>
       <r>   14.7297    0.0000 </r>
       <r>   15.5310    0.0000 </r>
       <r>   15.9207    0.0000 </r>
       <r>   16.0477    0.0000 </r>
       <r>   16.3050    0.0000 </r>
       <r>   16.3674    0.0000 </r>
      </set>
      <set comment="kpoint 11">
       <r>  -50.2019    1.0000 </r>
       <r>  -50.1085    1.0000 </r>
       <r>  -50.0902    1.0000 </r>
       <r>  -50.0323    1.0000 </r>
       <r>  -49.9706    1.0000 </r>
       <r>  -49.9354    1.0000 </r>
       <r>  -24.1468    1.0000 </r>
       <r>  -24.0915    1.0000 </r>
       <r>  -24.0419    1.0000 </r>
       <r>  -24.0186    1.0000 </r>
       <r>  -23.9971    1.0000 </r>
       <r>  -23.9423    1.0000 </r>
       <r>  -23.9018    1.0000 </r>
       <r>  -23.6345    1.0000 </r>
       <r>  -23.6076    1.0000 </r>
       <r>  -23.5638    1.0000 </r>
       <r>  -23.3801    1.0000 </r>
       <r>  -23.3134    1.0000 </r>
       <r>  -23.2465    1.0000 </r>
       <r>  -23.2340    1.0000 </r>
       <r>  -23.1414    1.0000 </r>
       <r>  -23.1163    1.0000 </r>
       <r>  -22.9486    1.0000 </r>
       <r>  -22.9294    1.0000 </r>
       <r>   -1.1827    1.0000 </r>
       <r>    0.5277    1.0000 </r>
       <r>    2.8741    1.0000 </r>
       <r>    3.3806    1.0000 </r>
       <r>    4.3938    1.0000 </r>
       <r>    5.5184    1.0000 </r>
       <r>    6.0027    1.0000 </r>
       <r>    6.5399    1.0000 </r>
       <r>    6.6725    1.0000 </r>
       <r>    6.7648    1.0000 </r>
       <r>    7.2383    1.0000 </r>
       <r>    7.6531    1.0000 </r>
       <r>    7.7645    1.0000 </r>
       <r>    8.3139    1.0000 </r>
       <r>    8.5513    1.0000 </r>
       <r>    8.9699    1.0000 </r>
       <r>    9.2040    1.0000 </r>
       <r>    9.3943    1.0000 </r>
       <r>    9.6416    1.0000 </r>
       <r>   10.0511    1.0000 </r>
       <r>   10.6893    1.0000 </r>
       <r>   10.7792    1.0000 </r>
       <r>   11.8542    1.0000 </r>
       <r>   11.9141    1.0000 </r>
       <r>   12.0513    1.0000 </r>
       <r>   12.2364    1.0000 </r>
       <r>   12.5350    1.0000 </r>
       <r>   12.6732    1.0000 </r>
       <r>   12.8767    0.0000 </r>
       <r>   13.0506    0.0000 </r>
       <r>   13.5031    0.0000 </r>
       <r>   14.3415    0.0000 </r>
       <r>   14.6234    0.0000 </r>
       <r>   14.6912    0.0000 </r>
       <r>   14.8798    0.0000 </r>
       <r>   14.9364    0.0000 </r>
       <r>   15.2312    0.0000 </r>
       <r>   15.5213    0.0000 </r>
       <r>   15.8153    0.0000 </r>
       <r>   15.9130    0.0000 </r>
       <r>   16.2018    0.0000 </r>
       <r>   16.8629    0.0000 </r>
      </set>
      <set comment="kpoint 12">
       <r>  -50.2146    1.0000 </r>
       <r>  -50.0989    1.0000 </r>
       <r>  -50.0988    1.0000 </r>
       <r>  -50.0229    1.0000 </r>
       <r>  -49.9713    1.0000 </r>
       <r>  -49.9319    1.0000 </r>
       <r>  -24.1594    1.0000 </r>
       <r>  -24.1274    1.0000 </r>
       <r>  -24.0810    1.0000 </r>
       <r>  -24.0502    1.0000 </r>
       <r>  -24.0399    1.0000 </r>
       <r>  -23.9869    1.0000 </r>
       <r>  -23.9546    1.0000 </r>
       <r>  -23.6017    1.0000 </r>
       <r>  -23.5979    1.0000 </r>
       <r>  -23.5970    1.0000 </r>
       <r>  -23.3292    1.0000 </r>
       <r>  -23.2961    1.0000 </r>
       <r>  -23.1901    1.0000 </r>
       <r>  -23.1530    1.0000 </r>
       <r>  -23.1372    1.0000 </r>
       <r>  -23.0810    1.0000 </r>
       <r>  -22.9288    1.0000 </r>
       <r>  -22.9154    1.0000 </r>
       <r>   -1.4499    1.0000 </r>
       <r>    0.4505    1.0000 </r>
       <r>    2.9671    1.0000 </r>
       <r>    3.8723    1.0000 </r>
       <r>    4.5508    1.0000 </r>
       <r>    5.9955    1.0000 </r>
       <r>    6.2244    1.0000 </r>
       <r>    6.2931    1.0000 </r>
       <r>    6.3150    1.0000 </r>
       <r>    6.4829    1.0000 </r>
       <r>    7.0229    1.0000 </r>
       <r>    7.2982    1.0000 </r>
       <r>    7.9053    1.0000 </r>
       <r>    7.9543    1.0000 </r>
       <r>    8.3485    1.0000 </r>
       <r>    8.7840    1.0000 </r>
       <r>    9.0991    1.0000 </r>
       <r>    9.1804    1.0000 </r>
       <r>    9.6396    1.0000 </r>
       <r>    9.7721    1.0000 </r>
       <r>   10.4995    1.0000 </r>
       <r>   11.0601    1.0000 </r>
       <r>   12.0618    1.0000 </r>
       <r>   12.2595    1.0000 </r>
       <r>   12.4080    1.0000 </r>
       <r>   12.5483    1.0000 </r>
       <r>   12.6092    1.0000 </r>
       <r>   12.6114    1.0000 </r>
       <r>   12.9168    0.0000 </r>
       <r>   13.2901    0.0000 </r>
       <r>   14.1041    0.0000 </r>
       <r>   14.2285    0.0000 </r>
       <r>   14.5869    0.0000 </r>
       <r>   14.9523    0.0000 </r>
       <r>   15.0569    0.0000 </r>
       <r>   15.2157    0.0000 </r>
       <r>   15.2807    0.0000 </r>
       <r>   15.6969    0.0000 </r>
       <r>   15.8689    0.0000 </r>
       <r>   15.9261    0.0000 </r>
       <r>   16.4602    0.0000 </r>
       <r>   17.1717    0.0000 </r>
      </set>
      <set comment="kpoint 13">
       <r>  -50.1766    1.0000 </r>
       <r>  -50.1085    1.0000 </r>
       <r>  -50.0991    1.0000 </r>
       <r>  -50.0426    1.0000 </r>
       <r>  -49.9613    1.0000 </r>
       <r>  -49.9516    1.0000 </r>
       <r>  -24.0516    1.0000 </r>
       <r>  -24.0479    1.0000 </r>
       <r>  -24.0278    1.0000 </r>
       <r>  -23.9361    1.0000 </r>
       <r>  -23.8649    1.0000 </r>
       <r>  -23.8131    1.0000 </r>
       <r>  -23.7859    1.0000 </r>
       <r>  -23.7239    1.0000 </r>
       <r>  -23.6287    1.0000 </r>
       <r>  -23.5747    1.0000 </r>
       <r>  -23.4852    1.0000 </r>
       <r>  -23.4258    1.0000 </r>
       <r>  -23.3253    1.0000 </r>
       <r>  -23.2783    1.0000 </r>
       <r>  -23.2272    1.0000 </r>
       <r>  -23.1549    1.0000 </r>
       <r>  -22.9877    1.0000 </r>
       <r>  -22.9683    1.0000 </r>
       <r>   -0.5408    1.0000 </r>
       <r>    0.6122    1.0000 </r>
       <r>    2.3327    1.0000 </r>
       <r>    3.0520    1.0000 </r>
       <r>    4.0071    1.0000 </r>
       <r>    5.5392    1.0000 </r>
       <r>    5.6752    1.0000 </r>
       <r>    6.5353    1.0000 </r>
       <r>    6.8557    1.0000 </r>
       <r>    6.9798    1.0000 </r>
       <r>    8.1103    1.0000 </r>
       <r>    8.2108    1.0000 </r>
       <r>    8.4909    1.0000 </r>
       <r>    8.5469    1.0000 </r>
       <r>    8.8026    1.0000 </r>
       <r>    9.1784    1.0000 </r>
       <r>    9.2871    1.0000 </r>
       <r>    9.5732    1.0000 </r>
       <r>    9.6201    1.0000 </r>
       <r>    9.7793    1.0000 </r>
       <r>   10.4802    1.0000 </r>
       <r>   10.6879    1.0000 </r>
       <r>   11.2193    1.0000 </r>
       <r>   11.2591    1.0000 </r>
       <r>   11.7695    1.0000 </r>
       <r>   12.0325    1.0000 </r>
       <r>   12.1373    1.0000 </r>
       <r>   12.7303    0.7788 </r>
       <r>   12.8585    0.0000 </r>
       <r>   13.0400    0.0000 </r>
       <r>   13.6261    0.0000 </r>
       <r>   13.6724    0.0000 </r>
       <r>   13.8476    0.0000 </r>
       <r>   14.4935    0.0000 </r>
       <r>   14.7709    0.0000 </r>
       <r>   14.8004    0.0000 </r>
       <r>   15.1943    0.0000 </r>
       <r>   15.2715    0.0000 </r>
       <r>   15.2847    0.0000 </r>
       <r>   15.5223    0.0000 </r>
       <r>   15.9863    0.0000 </r>
       <r>   16.1963    0.0000 </r>
      </set>
      <set comment="kpoint 14">
       <r>  -50.1553    1.0000 </r>
       <r>  -50.1264    1.0000 </r>
       <r>  -50.0895    1.0000 </r>
       <r>  -50.0562    1.0000 </r>
       <r>  -49.9593    1.0000 </r>
       <r>  -49.9535    1.0000 </r>
       <r>  -24.0751    1.0000 </r>
       <r>  -24.0168    1.0000 </r>
       <r>  -23.9671    1.0000 </r>
       <r>  -23.9050    1.0000 </r>
       <r>  -23.8053    1.0000 </r>
       <r>  -23.7507    1.0000 </r>
       <r>  -23.7289    1.0000 </r>
       <r>  -23.6833    1.0000 </r>
       <r>  -23.6650    1.0000 </r>
       <r>  -23.5978    1.0000 </r>
       <r>  -23.4977    1.0000 </r>
       <r>  -23.4578    1.0000 </r>
       <r>  -23.4230    1.0000 </r>
       <r>  -23.3527    1.0000 </r>
       <r>  -23.2524    1.0000 </r>
       <r>  -23.1842    1.0000 </r>
       <r>  -22.9993    1.0000 </r>
       <r>  -22.9642    1.0000 </r>
       <r>   -0.0394    1.0000 </r>
       <r>    0.4186    1.0000 </r>
       <r>    1.9927    1.0000 </r>
       <r>    2.8871    1.0000 </r>
       <r>    4.2617    1.0000 </r>
       <r>    4.9486    1.0000 </r>
       <r>    5.9146    1.0000 </r>
       <r>    6.4046    1.0000 </r>
       <r>    7.0160    1.0000 </r>
       <r>    7.0725    1.0000 </r>
       <r>    8.3646    1.0000 </r>
       <r>    8.4262    1.0000 </r>
       <r>    8.6685    1.0000 </r>
       <r>    8.7751    1.0000 </r>
       <r>    8.8752    1.0000 </r>
       <r>    9.1790    1.0000 </r>
       <r>    9.2806    1.0000 </r>
       <r>    9.4266    1.0000 </r>
       <r>    9.8768    1.0000 </r>
       <r>   10.1565    1.0000 </r>
       <r>   10.2613    1.0000 </r>
       <r>   10.5801    1.0000 </r>
       <r>   11.1698    1.0000 </r>
       <r>   11.5371    1.0000 </r>
       <r>   11.5712    1.0000 </r>
       <r>   11.8309    1.0000 </r>
       <r>   11.9760    1.0000 </r>
       <r>   12.3151    1.0000 </r>
       <r>   13.0406    0.0000 </r>
       <r>   13.2546    0.0000 </r>
       <r>   13.3721    0.0000 </r>
       <r>   13.5937    0.0000 </r>
       <r>   13.6683    0.0000 </r>
[...]
       <r>    9.6533    1.0000 </r>
       <r>   10.0571    1.0000 </r>
       <r>   10.6732    1.0000 </r>
       <r>   10.8258    1.0000 </r>
       <r>   11.0163    1.0000 </r>
       <r>   11.4283    1.0000 </r>
       <r>   11.7646    1.0000 </r>
       <r>   12.0924    1.0000 </r>
       <r>   12.3257    1.0000 </r>
       <r>   12.4281    1.0000 </r>
       <r>   12.9405    0.0000 </r>
       <r>   13.0258    0.0000 </r>
       <r>   13.3941    0.0000 </r>
       <r>   13.8043    0.0000 </r>
       <r>   14.0827    0.0000 </r>
       <r>   14.4738    0.0000 </r>
       <r>   14.6631    0.0000 </r>
       <r>   14.7934    0.0000 </r>
       <r>   14.9260    0.0000 </r>
       <r>   15.4684    0.0000 </r>
       <r>   15.6413    0.0000 </r>
       <r>   15.6889    0.0000 </r>
       <r>   16.1367    0.0000 </r>
       <r>   16.1999    0.0000 </r>
      </set>
      <set comment="kpoint 165">
       <r>  -50.1704    1.0000 </r>
       <r>  -50.1037    1.0000 </r>
       <r>  -50.0994    1.0000 </r>
       <r>  -50.0582    1.0000 </r>
       <r>  -49.9669    1.0000 </r>
       <r>  -49.9412    1.0000 </r>
       <r>  -24.1341    1.0000 </r>
       <r>  -24.0003    1.0000 </r>
       <r>  -23.9799    1.0000 </r>
       <r>  -23.9649    1.0000 </r>
       <r>  -23.8333    1.0000 </r>
       <r>  -23.8297    1.0000 </r>
       <r>  -23.7944    1.0000 </r>
       <r>  -23.6753    1.0000 </r>
       <r>  -23.5869    1.0000 </r>
       <r>  -23.5619    1.0000 </r>
       <r>  -23.5204    1.0000 </r>
       <r>  -23.3556    1.0000 </r>
       <r>  -23.3451    1.0000 </r>
       <r>  -23.3245    1.0000 </r>
       <r>  -23.2467    1.0000 </r>
       <r>  -23.2405    1.0000 </r>
       <r>  -22.9730    1.0000 </r>
       <r>  -22.9422    1.0000 </r>
       <r>   -0.5043    1.0000 </r>
       <r>    0.6922    1.0000 </r>
       <r>    2.2956    1.0000 </r>
       <r>    2.5024    1.0000 </r>
       <r>    4.5137    1.0000 </r>
       <r>    5.6213    1.0000 </r>
       <r>    6.0301    1.0000 </r>
       <r>    6.0415    1.0000 </r>
       <r>    6.6501    1.0000 </r>
       <r>    7.1837    1.0000 </r>
       <r>    7.5001    1.0000 </r>
       <r>    8.0352    1.0000 </r>
       <r>    8.6694    1.0000 </r>
       <r>    8.7453    1.0000 </r>
       <r>    8.8799    1.0000 </r>
       <r>    8.8938    1.0000 </r>
       <r>    9.7376    1.0000 </r>
       <r>    9.8436    1.0000 </r>
       <r>    9.8476    1.0000 </r>
       <r>    9.9480    1.0000 </r>
       <r>   10.7145    1.0000 </r>
       <r>   10.7515    1.0000 </r>
       <r>   10.8760    1.0000 </r>
       <r>   11.5040    1.0000 </r>
       <r>   11.7692    1.0000 </r>
       <r>   12.2695    1.0000 </r>
       <r>   12.3369    1.0000 </r>
       <r>   12.5867    1.0000 </r>
       <r>   12.6935    0.9996 </r>
       <r>   12.7110    0.9834 </r>
       <r>   13.3089    0.0000 </r>
       <r>   13.8087    0.0000 </r>
       <r>   14.2079    0.0000 </r>
       <r>   14.3342    0.0000 </r>
       <r>   14.4489    0.0000 </r>
       <r>   14.6799    0.0000 </r>
       <r>   15.1796    0.0000 </r>
       <r>   15.2125    0.0000 </r>
       <r>   15.3436    0.0000 </r>
       <r>   15.9695    0.0000 </r>
       <r>   16.0238    0.0000 </r>
       <r>   16.3432    0.0000 </r>
      </set>
     </set>
    </set>
   </array>
  </eigenvalues>
  <separator name="orbital magnetization" >
   <v name="MAGDIPOLOUT">      0.00000000      0.00000000      0.00000000</v>
  </separator>
  <dos>
   <i name="efermi">     12.74113004 </i>
   <total>
    <array>
     <dimension dim="1">gridpoints</dimension>
     <dimension dim="2">spin</dimension>
     <field>energy</field>
     <field>total</field>
     <field>integrated</field>
     <set>
      <set comment="spin 1">
       <r>   -53.6261     0.0000     0.0000 </r>
       <r>   -53.3765     0.0000     0.0000 </r>
       <r>   -53.1269     0.0000     0.0000 </r>
       <r>   -52.8773     0.0000     0.0000 </r>
       <r>   -52.6277     0.0000     0.0000 </r>
       <r>   -52.3781     0.0000     0.0000 </r>
       <r>   -52.1286     0.0000     0.0000 </r>
       <r>   -51.8790     0.0000     0.0000 </r>
       <r>   -51.6294     0.0000     0.0000 </r>
       <r>   -51.3798     0.0000     0.0000 </r>
       <r>   -51.1302     0.0000     0.0000 </r>
       <r>   -50.8806     0.0000     0.0000 </r>
       <r>   -50.6310     0.0000     0.0000 </r>
       <r>   -50.3814     0.0000     0.0000 </r>
       <r>   -50.1318     9.8561     2.4600 </r>
       <r>   -49.8822    19.1563    12.0000 </r>
       <r>   -49.6327     0.0000    12.0000 </r>
       <r>   -49.3831     0.0000    12.0000 </r>
       <r>   -49.1335     0.0000    12.0000 </r>
       <r>   -48.8839     0.0000    12.0000 </r>
       <r>   -48.6343     0.0000    12.0000 </r>
       <r>   -48.3847     0.0000    12.0000 </r>
       <r>   -48.1351     0.0000    12.0000 </r>
       <r>   -47.8855     0.0000    12.0000 </r>
       <r>   -47.6359     0.0000    12.0000 </r>
       <r>   -47.3863     0.0000    12.0000 </r>
       <r>   -47.1368     0.0000    12.0000 </r>
       <r>   -46.8872     0.0000    12.0000 </r>
       <r>   -46.6376     0.0000    12.0000 </r>
       <r>   -46.3880     0.0000    12.0000 </r>
       <r>   -46.1384     0.0000    12.0000 </r>
       <r>   -45.8888     0.0000    12.0000 </r>
       <r>   -45.6392     0.0000    12.0000 </r>
       <r>   -45.3896     0.0000    12.0000 </r>
       <r>   -45.1400     0.0000    12.0000 </r>
       <r>   -44.8904     0.0000    12.0000 </r>
       <r>   -44.6409     0.0000    12.0000 </r>
       <r>   -44.3913     0.0000    12.0000 </r>
       <r>   -44.1417     0.0000    12.0000 </r>
       <r>   -43.8921     0.0000    12.0000 </r>
       <r>   -43.6425     0.0000    12.0000 </r>
       <r>   -43.3929     0.0000    12.0000 </r>
       <r>   -43.1433     0.0000    12.0000 </r>
       <r>   -42.8937     0.0000    12.0000 </r>
       <r>   -42.6441     0.0000    12.0000 </r>
       <r>   -42.3945     0.0000    12.0000 </r>
       <r>   -42.1450     0.0000    12.0000 </r>
       <r>   -41.8954     0.0000    12.0000 </r>
       <r>   -41.6458     0.0000    12.0000 </r>
       <r>   -41.3962     0.0000    12.0000 </r>
       <r>   -41.1466     0.0000    12.0000 </r>
       <r>   -40.8970     0.0000    12.0000 </r>
       <r>   -40.6474     0.0000    12.0000 </r>
       <r>   -40.3978     0.0000    12.0000 </r>
       <r>   -40.1482     0.0000    12.0000 </r>
       <r>   -39.8986     0.0000    12.0000 </r>
       <r>   -39.6491     0.0000    12.0000 </r>
       <r>   -39.3995     0.0000    12.0000 </r>
       <r>   -39.1499     0.0000    12.0000 </r>
       <r>   -38.9003     0.0000    12.0000 </r>
       <r>   -38.6507     0.0000    12.0000 </r>
       <r>   -38.4011     0.0000    12.0000 </r>
       <r>   -38.1515     0.0000    12.0000 </r>
       <r>   -37.9019     0.0000    12.0000 </r>
       <r>   -37.6523     0.0000    12.0000 </r>
       <r>   -37.4027     0.0000    12.0000 </r>
       <r>   -37.1532     0.0000    12.0000 </r>
       <r>   -36.9036     0.0000    12.0000 </r>
       <r>   -36.6540     0.0000    12.0000 </r>
       <r>   -36.4044     0.0000    12.0000 </r>
       <r>   -36.1548     0.0000    12.0000 </r>
       <r>   -35.9052     0.0000    12.0000 </r>
       <r>   -35.6556     0.0000    12.0000 </r>
       <r>   -35.4060     0.0000    12.0000 </r>
       <r>   -35.1564     0.0000    12.0000 </r>
       <r>   -34.9068     0.0000    12.0000 </r>
       <r>   -34.6573     0.0000    12.0000 </r>
       <r>   -34.4077     0.0000    12.0000 </r>
       <r>   -34.1581     0.0000    12.0000 </r>
       <r>   -33.9085     0.0000    12.0000 </r>
       <r>   -33.6589     0.0000    12.0000 </r>
       <r>   -33.4093     0.0000    12.0000 </r>
       <r>   -33.1597     0.0000    12.0000 </r>
       <r>   -32.9101     0.0000    12.0000 </r>
       <r>   -32.6605     0.0000    12.0000 </r>
       <r>   -32.4109     0.0000    12.0000 </r>
       <r>   -32.1614     0.0000    12.0000 </r>
       <r>   -31.9118     0.0000    12.0000 </r>
       <r>   -31.6622     0.0000    12.0000 </r>
       <r>   -31.4126     0.0000    12.0000 </r>
       <r>   -31.1630     0.0000    12.0000 </r>
       <r>   -30.9134     0.0000    12.0000 </r>
       <r>   -30.6638     0.0000    12.0000 </r>
       <r>   -30.4142     0.0000    12.0000 </r>
       <r>   -30.1646     0.0000    12.0000 </r>
       <r>   -29.9150     0.0000    12.0000 </r>
       <r>   -29.6655     0.0000    12.0000 </r>
       <r>   -29.4159     0.0000    12.0000 </r>
       <r>   -29.1663     0.0000    12.0000 </r>
       <r>   -28.9167     0.0000    12.0000 </r>
       <r>   -28.6671     0.0000    12.0000 </r>
       <r>   -28.4175     0.0000    12.0000 </r>
       <r>   -28.1679     0.0000    12.0000 </r>
       <r>   -27.9183     0.0000    12.0000 </r>
       <r>   -27.6687     0.0000    12.0000 </r>
       <r>   -27.4191     0.0000    12.0000 </r>
       <r>   -27.1696     0.0000    12.0000 </r>
       <r>   -26.9200     0.0000    12.0000 </r>
       <r>   -26.6704     0.0000    12.0000 </r>
       <r>   -26.4208     0.0000    12.0000 </r>
       <r>   -26.1712     0.0000    12.0000 </r>
       <r>   -25.9216     0.0000    12.0000 </r>
       <r>   -25.6720     0.0000    12.0000 </r>
       <r>   -25.4224     0.0000    12.0000 </r>
       <r>   -25.1728     0.0000    12.0000 </r>
       <r>   -24.9232     0.0000    12.0000 </r>
       <r>   -24.6737     0.0000    12.0000 </r>
       <r>   -24.4241     0.0000    12.0000 </r>
       <r>   -24.1745     0.0853    12.0213 </r>
       <r>   -23.9249    24.1886    19.4470 </r>
       <r>   -23.6753    18.4035    27.1315 </r>
       <r>   -23.4257    19.8679    35.6463 </r>
       <r>   -23.1761    13.9069    41.4085 </r>
       <r>   -22.9265    15.4739    47.8100 </r>
       <r>   -22.6769     0.0000    48.0000 </r>
       <r>   -22.4273     0.0000    48.0000 </r>
       <r>   -22.1778     0.0000    48.0000 </r>
       <r>   -21.9282     0.0000    48.0000 </r>
       <r>   -21.6786     0.0000    48.0000 </r>
       <r>   -21.4290     0.0000    48.0000 </r>
       <r>   -21.1794     0.0000    48.0000 </r>
       <r>   -20.9298     0.0000    48.0000 </r>
       <r>   -20.6802     0.0000    48.0000 </r>
       <r>   -20.4306     0.0000    48.0000 </r>
       <r>   -20.1810     0.0000    48.0000 </r>
       <r>   -19.9314     0.0000    48.0000 </r>
       <r>   -19.6819     0.0000    48.0000 </r>
       <r>   -19.4323     0.0000    48.0000 </r>
       <r>   -19.1827     0.0000    48.0000 </r>
       <r>   -18.9331     0.0000    48.0000 </r>
       <r>   -18.6835     0.0000    48.0000 </r>
       <r>   -18.4339     0.0000    48.0000 </r>
       <r>   -18.1843     0.0000    48.0000 </r>
       <r>   -17.9347     0.0000    48.0000 </r>
       <r>   -17.6851     0.0000    48.0000 </r>
       <r>   -17.4355     0.0000    48.0000 </r>
       <r>   -17.1860     0.0000    48.0000 </r>
       <r>   -16.9364     0.0000    48.0000 </r>
       <r>   -16.6868     0.0000    48.0000 </r>
       <r>   -16.4372     0.0000    48.0000 </r>
       <r>   -16.1876     0.0000    48.0000 </r>
       <r>   -15.9380     0.0000    48.0000 </r>
       <r>   -15.6884     0.0000    48.0000 </r>
       <r>   -15.4388     0.0000    48.0000 </r>
       <r>   -15.1892     0.0000    48.0000 </r>
       <r>   -14.9396     0.0000    48.0000 </r>
       <r>   -14.6901     0.0000    48.0000 </r>
       <r>   -14.4405     0.0000    48.0000 </r>
       <r>   -14.1909     0.0000    48.0000 </r>
       <r>   -13.9413     0.0000    48.0000 </r>
       <r>   -13.6917     0.0000    48.0000 </r>
       <r>   -13.4421     0.0000    48.0000 </r>
       <r>   -13.1925     0.0000    48.0000 </r>
       <r>   -12.9429     0.0000    48.0000 </r>
       <r>   -12.6933     0.0000    48.0000 </r>
       <r>   -12.4437     0.0000    48.0000 </r>
       <r>   -12.1942     0.0000    48.0000 </r>
       <r>   -11.9446     0.0000    48.0000 </r>
       <r>   -11.6950     0.0000    48.0000 </r>
       <r>   -11.4454     0.0000    48.0000 </r>
       <r>   -11.1958     0.0000    48.0000 </r>
       <r>   -10.9462     0.0000    48.0000 </r>
       <r>   -10.6966     0.0000    48.0000 </r>
       <r>   -10.4470     0.0000    48.0000 </r>
       <r>   -10.1974     0.0000    48.0000 </r>
       <r>    -9.9478     0.0000    48.0000 </r>
       <r>    -9.6983     0.0000    48.0000 </r>
       <r>    -9.4487     0.0000    48.0000 </r>
       <r>    -9.1991     0.0000    48.0000 </r>
       <r>    -8.9495     0.0000    48.0000 </r>
       <r>    -8.6999     0.0000    48.0000 </r>
       <r>    -8.4503     0.0000    48.0000 </r>
       <r>    -8.2007     0.0000    48.0000 </r>
       <r>    -7.9511     0.0000    48.0000 </r>
       <r>    -7.7015     0.0000    48.0000 </r>
       <r>    -7.4519     0.0000    48.0000 </r>
       <r>    -7.2024     0.0000    48.0000 </r>
       <r>    -6.9528     0.0000    48.0000 </r>
       <r>    -6.7032     0.0000    48.0000 </r>
       <r>    -6.4536     0.0000    48.0000 </r>
       <r>    -6.2040     0.0000    48.0000 </r>
       <r>    -5.9544     0.0000    48.0000 </r>
       <r>    -5.7048     0.0000    48.0000 </r>
       <r>    -5.4552     0.0000    48.0000 </r>
       <r>    -5.2056     0.0000    48.0000 </r>
       <r>    -4.9560     0.0000    48.0000 </r>
       <r>    -4.7065     0.0000    48.0000 </r>
       <r>    -4.4569     0.0000    48.0000 </r>
       <r>    -4.2073     0.0000    48.0000 </r>
       <r>    -3.9577     0.0000    48.0000 </r>
       <r>    -3.7081     0.0000    48.0000 </r>
       <r>    -3.4585     0.0000    48.0000 </r>
       <r>    -3.2089     0.0000    48.0000 </r>
       <r>    -2.9593     0.0000    48.0000 </r>
       <r>    -2.7097     0.0000    48.0000 </r>
       <r>    -2.4601     0.0000    48.0000 </r>
       <r>    -2.2106     0.0000    48.0000 </r>
       <r>    -1.9610     0.0000    48.0000 </r>
       <r>    -1.7114     0.0000    48.0000 </r>
       <r>    -1.4618     0.1785    48.0445 </r>
       <r>    -1.2122     0.3963    48.1579 </r>
       <r>    -0.9626     0.3272    48.2865 </r>
       <r>    -0.7130     0.6358    48.5511 </r>
       <r>    -0.4634     0.8788    48.8409 </r>
       <r>    -0.2138     0.7507    49.2117 </r>
       <r>     0.0358     1.1084    49.6482 </r>
       <r>     0.2853     1.2505    50.1767 </r>
       <r>     0.5349     2.9940    51.1570 </r>
       <r>     0.7845     1.4629    51.9381 </r>
       <r>     1.0341     0.0974    52.0000 </r>
       <r>     1.2837     0.0934    52.0233 </r>
       <r>     1.5333     0.3000    52.1131 </r>
       <r>     1.7829     0.4753    52.2679 </r>
       <r>     2.0325     0.5736    52.4730 </r>
       <r>     2.2821     0.9420    52.8011 </r>
       <r>     2.5317     1.2675    53.2156 </r>
       <r>     2.7812     1.5505    53.7551 </r>
       <r>     3.0308     1.6925    54.4572 </r>
       <r>     3.2804     1.6890    55.2098 </r>
       <r>     3.5300     1.6066    55.7725 </r>
       <r>     3.7796     0.9264    56.2694 </r>
       <r>     4.0292     1.3183    56.7839 </r>
       <r>     4.2788     1.3982    57.3525 </r>
       <r>     4.5284     1.3028    57.8842 </r>
       <r>     4.7780     1.4521    58.4701 </r>
       <r>     5.0276     1.5752    59.0077 </r>
       <r>     5.2771     1.2578    59.5084 </r>
       <r>     5.5267     1.6202    60.1266 </r>
       <r>     5.7763     1.7762    60.7697 </r>
       <r>     6.0259     2.0737    61.4724 </r>
       <r>     6.2755     1.3066    62.0726 </r>
       <r>     6.5251     2.2121    63.0764 </r>
       <r>     6.7747     3.3305    64.2722 </r>
       <r>     7.0243     3.7527    65.6623 </r>
       <r>     7.2739     4.3750    67.1267 </r>
       <r>     7.5235     3.1557    68.5550 </r>
       <r>     7.7730     2.3135    69.6087 </r>
       <r>     8.0226     2.8156    70.6021 </r>
       <r>     8.2722     4.0882    71.9614 </r>
       <r>     8.5218     5.1732    73.9613 </r>
       <r>     8.7714     6.3009    76.2289 </r>
       <r>     9.0210     6.2009    78.8775 </r>
       <r>     9.2706     5.3185    80.9212 </r>
       <r>     9.5202     4.5478    82.7392 </r>
       <r>     9.7698     4.7141    84.6627 </r>
       <r>    10.0194     3.9577    86.3524 </r>
       <r>    10.2689     3.8967    87.9135 </r>
       <r>    10.5185     3.9736    89.4432 </r>
       <r>    10.7681     3.9457    91.2175 </r>
       <r>    11.0177     2.9474    92.3606 </r>
       <r>    11.2673     4.5039    93.8498 </r>
       <r>    11.5169     4.9622    95.7941 </r>
       <r>    11.7665     3.7765    97.4669 </r>
       <r>    12.0161     4.6177    99.2671 </r>
       <r>    12.2657     4.8511   101.1483 </r>
       <r>    12.5153     3.8692   102.8650 </r>
       <r>    12.7648     3.1070   104.1019 </r>
       <r>    13.0144     5.0818   105.7892 </r>
       <r>    13.2640     4.6613   107.7398 </r>
       <r>    13.5136     4.5099   109.7228 </r>
       <r>    13.7632     4.6499   111.5529 </r>
       <r>    14.0128     3.8728   113.1159 </r>
       <r>    14.2624     4.1284   114.7075 </r>
       <r>    14.5120     5.3433   116.8545 </r>
       <r>    14.7616     5.8138   119.0066 </r>
       <r>    15.0112     3.8170   120.4318 </r>
       <r>    15.2607     4.9033   122.2065 </r>
       <r>    15.5103     3.9695   123.7199 </r>
       <r>    15.7599     4.0843   125.4847 </r>
       <r>    16.0095     4.7383   127.2729 </r>
       <r>    16.2591     5.2510   129.3245 </r>
       <r>    16.5087     2.6060   130.5046 </r>
       <r>    16.7583     1.6977   131.1599 </r>
       <r>    17.0079     0.8984   131.5228 </r>
       <r>    17.2575     0.6263   131.7431 </r>
       <r>    17.5071     0.4086   131.9041 </r>
       <r>    17.7566     0.2609   131.9922 </r>
       <r>    18.0062     0.0278   132.0000 </r>
       <r>    18.2558     0.0000   132.0000 </r>
       <r>    18.5054     0.0000   132.0000 </r>
       <r>    18.7550     0.0000   132.0000 </r>
       <r>    19.0046     0.0000   132.0000 </r>
       <r>    19.2542     0.0000   132.0000 </r>
       <r>    19.5038     0.0000   132.0000 </r>
       <r>    19.7534     0.0000   132.0000 </r>
       <r>    20.0030     0.0000   132.0000 </r>
       <r>    20.2525     0.0000   132.0000 </r>
       <r>    20.5021     0.0000   132.0000 </r>
       <r>    20.7517     0.0000   132.0000 </r>
       <r>    21.0013     0.0000   132.0000 </r>
       <r>    21.2509     0.0000   132.0000 </r>
      </set>
     </set>
    </array>
   </total>
  </dos>
 </calculation>
 <structure name="finalpos" >
  <crystal>
   <varray name="basis" >
    <v>       4.93358888       0.00000000      -3.00627758 </v>
    <v>      -1.55646879       4.68163477      -3.00627758 </v>
    <v>       0.00000000       0.00000000       5.77737000 </v>
   </varray>
   <i name="volume">    133.44142424 </i>
   <varray name="rec_basis" >
    <v>       0.20269220       0.06738759       0.00000000 </v>
    <v>       0.00000000       0.21360060       0.00000000 </v>
    <v>       0.10547170       0.14621333       0.17308914 </v>
   </varray>
  </crystal>
  <varray name="positions" >
   <v>       0.00000000       0.50000000       0.00000000 </v>
   <v>       0.50000000       0.50000000       0.50000000 </v>
   <v>       0.50000000       0.00000000       0.00000000 </v>
   <v>       0.00000000       0.00000000       0.50000000 </v>
   <v>       0.25000000       0.75000000       0.50000000 </v>
   <v>       0.24394000       0.74394000       0.98788000 </v>
   <v>       0.75000000       0.25000000       0.50000000 </v>
   <v>       0.75606000       0.25606000       0.01212000 </v>
   <v>       0.74394000       0.75606000       0.50000000 </v>
   <v>       0.25606000       0.24394000       0.50000000 </v>
   <v>       0.25000000       0.25000000       0.00000000 </v>
   <v>       0.75000000       0.75000000       0.00000000 </v>
  </varray>
 </structure>
</modeling>
