 vasp.6.2.0 18Jan21 (build Jan 05 2022 15:41:44) complex                        
  
 executed on             LinuxIFC date 2025.05.07  14:21:02
 running on   24 total cores
 distrk:  each k-point on   12 cores,    2 groups
 distr:  one band on NCORE=   2 cores,    6 groups


--------------------------------------------------------------------------------------------------------


 INCAR:
   SYSTEM = routine with relax: pwdword
   ICHARG = 2
   NPAR = 6
   KPAR = 2
   NCORE = 2
   ADDGRID = T
   PREC = Acc
   ENCUT = 600
   METAGGA = R2SCAN
   LASPH = .TRUE.
   LMIXTAU = .FALSE.
   ALGO = A
   EDIFF = 1E-9
   NELM = 100
   NELMIN = 6
   IALGO = 38
   LREAL = F
   NSW = 0
   ISIF = -1
   ISMEAR = 0
   SIGMA = 0.02
   SYMPREC = 1E-4

 POTCAR:    PAW_PBE B 06Sep2000                   
 POTCAR:    PAW_PBE Mo_sv 02Feb2006               
 POTCAR:    PAW_PBE Si 05Jan2001                  
 -----------------------------------------------------------------------------
|                                                                             |
|           W    W    AA    RRRRR   N    N  II  N    N   GGGG   !!!           |
|           W    W   A  A   R    R  NN   N  II  NN   N  G    G  !!!           |
|           W    W  A    A  R    R  N N  N  II  N N  N  G       !!!           |
|           W WW W  AAAAAA  RRRRR   N  N N  II  N  N N  G  GGG   !            |
|           WW  WW  A    A  R   R   N   NN  II  N   NN  G    G                |
|           W    W  A    A  R    R  N    N  II  N    N   GGGG   !!!           |
|                                                                             |
|     For optimal performance we recommend to set                             |
|       NCORE = 2 up to number-of-cores-per-socket                            |
|     NCORE specifies how many cores store one orbital (NPAR=cpu/NCORE).      |
|     This setting can greatly improve the performance of VASP for DFT.       |
|     The default, NCORE=1 might be grossly inefficient on modern             |
|     multi-core architectures or massively parallel machines. Do your        |
|     own testing! More info at https://www.vasp.at/wiki/index.php/NCORE      |
|     Unfortunately you need to use the default for GW and RPA                |
|     calculations (for HF NCORE is supported but not extensively tested      |
|     yet).                                                                   |
|                                                                             |
 -----------------------------------------------------------------------------

 POTCAR:    PAW_PBE B 06Sep2000                   
   VRHFIN =B: s2p1                                                                                  
   LEXCH  = PE                                                                                      
   EATOM  =    71.1703 eV,    5.2309 Ry                                                             
                                                                                                    
   TITEL  = PAW_PBE B 06Sep2000                                                                     
   LULTRA =        F    use ultrasoft PP ?                                                          
   IUNSCR =        1    unscreen: 0-lin 1-nonlin 2-no                                               
   RPACOR =    1.200    partial core radius                                                         
   POMASS =   10.811; ZVAL   =    3.000    mass and valenz                                          
   RCORE  =    1.700    outmost cutoff radius                                                       
   RWIGS  =    1.710; RWIGS  =    0.905    wigner-seitz radius (au A)                               
   ENMAX  =  318.614; ENMIN  =  238.960 eV                                                          
   ICORE  =        2    local potential                                                             
   LCOR   =        T    correct aug charges                                                         
   LPAW   =        T    paw PP                                                                      
   EAUG   =  535.514                                                                                
   DEXC   =    0.000                                                                                
   RMAX   =    1.732    core radius for proj-oper                                                   
   RAUG   =    1.300    factor for augmentation sphere                                              
   RDEP   =    1.757    radius for radial grids                                                     
   RDEPT  =    1.436    core radius for aug-charge                                                  
                                                                                                    
   Atomic configuration                                                                             
    4 entries                                                                                       
     n  l   j            E        occ.                                                              
     1  0  0.50      -180.5896   2.0000                                                             
     2  0  0.50        -9.4431   2.0000                                                             
     2  1  0.50        -3.6068   1.0000                                                             
     3  2  1.50        -4.0817   0.0000                                                             
   Description                                                                                      
     l       E           TYP  RCUT    TYP  RCUT                                                     
     0     -9.4430752     23  1.500                                                                 
     0      0.8675899     23  1.500                                                                 
     1     -3.6067955     23  1.700                                                                 
     1      6.1086146     23  1.700                                                                 
     2     -4.0817478      7  1.700                                                                 
  local pseudopotential read in
  partial core-charges read in
  partial kinetic energy density read in
  atomic valenz-charges read in
  non local Contribution for L=           0  read in
    real space projection operators read in
  non local Contribution for L=           0  read in
    real space projection operators read in
  non local Contribution for L=           1  read in
    real space projection operators read in
  non local Contribution for L=           1  read in
    real space projection operators read in
    PAW grid and wavefunctions read in
 
   number of l-projection  operators is LMAX  =           4
   number of lm-projection operators is LMMAX =           8
 
 POTCAR:    PAW_PBE Mo_sv 02Feb2006               
   VRHFIN =Mo: 4p5s4d                                                                               
   LEXCH  = PE                                                                                      
   EATOM  =  1862.2866 eV,  136.8742 Ry                                                             
                                                                                                    
   TITEL  = PAW_PBE Mo_sv 02Feb2006                                                                 
   LULTRA =        F    use ultrasoft PP ?                                                          
   IUNSCR =        1    unscreen: 0-lin 1-nonlin 2-no                                               
   RPACOR =    2.200    partial core radius                                                         
   POMASS =   95.940; ZVAL   =   14.000    mass and valenz                                          
   RCORE  =    2.500    outmost cutoff radius                                                       
   RWIGS  =    2.750; RWIGS  =    1.455    wigner-seitz radius (au A)                               
   ENMAX  =  242.676; ENMIN  =  182.007 eV                                                          
   ICORE  =        3    local potential                                                             
   LCOR   =        T    correct aug charges                                                         
   LPAW   =        T    paw PP                                                                      
   EAUG   =  446.014                                                                                
   DEXC   =    0.000                                                                                
   RMAX   =    2.563    core radius for proj-oper                                                   
   RAUG   =    1.300    factor for augmentation sphere                                              
   RDEP   =    2.641    radius for radial grids                                                     
   RDEPT  =    2.031    core radius for aug-charge                                                  
                                                                                                    
   Atomic configuration                                                                             
   11 entries                                                                                       
     n  l   j            E        occ.                                                              
     1  0  0.50    -19819.0341   2.0000                                                             
     2  0  0.50     -2799.0127   2.0000                                                             
     2  1  1.50     -2502.0276   6.0000                                                             
     3  0  0.50      -476.4449   2.0000                                                             
     3  1  1.50      -379.1496   6.0000                                                             
     3  2  2.50      -220.9367  10.0000                                                             
     4  0  0.50       -64.3378   2.0000                                                             
     5  0  0.50        -4.0862   1.0000                                                             
     4  1  1.50       -38.4773   6.0000                                                             
     4  2  2.50        -3.7535   5.0000                                                             
     4  3  2.50        -1.3606   0.0000                                                             
   Description                                                                                      
     l       E           TYP  RCUT    TYP  RCUT                                                     
     0    -64.3377829     23  2.100                                                                 
     0     -4.0861640     23  2.400                                                                 
     1    -38.4772993     23  2.100                                                                 
     1     13.6058260     23  2.100                                                                 
     2     -3.7534941     23  2.400                                                                 
     2     -5.1140767     23  2.400                                                                 
     3     -4.0817478     23  2.500                                                                 
  local pseudopotential read in
  partial core-charges read in
  partial kinetic energy density read in
  atomic valenz-charges read in
  non local Contribution for L=           0  read in
    real space projection operators read in
  non local Contribution for L=           0  read in
    real space projection operators read in
  non local Contribution for L=           1  read in
    real space projection operators read in
  non local Contribution for L=           1  read in
    real space projection operators read in
  non local Contribution for L=           2  read in
    real space projection operators read in
  non local Contribution for L=           2  read in
    real space projection operators read in
    PAW grid and wavefunctions read in
 
   number of l-projection  operators is LMAX  =           6
   number of lm-projection operators is LMMAX =          18
 
 POTCAR:    PAW_PBE Si 05Jan2001                  
   VRHFIN =Si: s2p2                                                                                 
   LEXCH  = PE                                                                                      
   EATOM  =   103.0669 eV,    7.5752 Ry                                                             
                                                                                                    
   TITEL  = PAW_PBE Si 05Jan2001                                                                    
   LULTRA =        F    use ultrasoft PP ?                                                          
   IUNSCR =        1    unscreen: 0-lin 1-nonlin 2-no                                               
   RPACOR =    1.500    partial core radius                                                         
   POMASS =   28.085; ZVAL   =    4.000    mass and valenz                                          
   RCORE  =    1.900    outmost cutoff radius                                                       
   RWIGS  =    2.480; RWIGS  =    1.312    wigner-seitz radius (au A)                               
   ENMAX  =  245.345; ENMIN  =  184.009 eV                                                          
   ICORE  =        2    local potential                                                             
   LCOR   =        T    correct aug charges                                                         
   LPAW   =        T    paw PP                                                                      
   EAUG   =  322.069                                                                                
   DEXC   =    0.000                                                                                
   RMAX   =    1.950    core radius for proj-oper                                                   
   RAUG   =    1.300    factor for augmentation sphere                                              
   RDEP   =    1.993    radius for radial grids                                                     
   RDEPT  =    1.837    core radius for aug-charge                                                  
                                                                                                    
   Atomic configuration                                                                             
    6 entries                                                                                       
     n  l   j            E        occ.                                                              
     1  0  0.50     -1785.8828   2.0000                                                             
     2  0  0.50      -139.4969   2.0000                                                             
     2  1  1.50       -95.5546   6.0000                                                             
     3  0  0.50       -10.8127   2.0000                                                             
     3  1  0.50        -4.0811   2.0000                                                             
     3  2  1.50        -4.0817   0.0000                                                             
   Description                                                                                      
     l       E           TYP  RCUT    TYP  RCUT                                                     
     0    -10.8127223     23  1.900                                                                 
     0     -7.6451159     23  1.900                                                                 
     1     -4.0811372     23  1.900                                                                 
     1      2.4879257     23  1.900                                                                 
     2     -4.0817478      7  1.900                                                                 
  local pseudopotential read in
  partial core-charges read in
  partial kinetic energy density read in
  atomic valenz-charges read in
  non local Contribution for L=           0  read in
    real space projection operators read in
  non local Contribution for L=           0  read in
    real space projection operators read in
  non local Contribution for L=           1  read in
    real space projection operators read in
  non local Contribution for L=           1  read in
    real space projection operators read in
    PAW grid and wavefunctions read in
 
   number of l-projection  operators is LMAX  =           4
   number of lm-projection operators is LMMAX =           8
 
  PAW_PBE B 06Sep2000                   :
 energy of atom  1       EATOM=  -71.1703
 kinetic energy error for atom=    0.0007 (will be added to EATOM!!)
  PAW_PBE Mo_sv 02Feb2006               :
 energy of atom  2       EATOM=-1862.2866
 kinetic energy error for atom=    0.0041 (will be added to EATOM!!)
  PAW_PBE Si 05Jan2001                  :
 energy of atom  3       EATOM= -103.0669
 kinetic energy error for atom=    0.0003 (will be added to EATOM!!)
 
 
 POSCAR: EA3
  positions in direct lattice
  No initial velocities read in

 METAGGA = R2SCA    LMAXTAU =  6    LMIXTAU =  F

 exchange correlation table for  LEXCH =        8
   RHO(1)=    0.500       N(1)  =     2000
   RHO(2)=  100.500       N(2)  =     4000
 


--------------------------------------------------------------------------------------------------------


 ion  position               nearest neighbor table
   1  0.696  0.196  0.892-  12 0.30   8 1.66   6 2.56
   2  0.304  0.804  0.108-  11 0.30   8 1.66   6 2.56
   3  0.196  0.304  0.500-   9 0.30   6 1.66   8 2.56
   4  0.804  0.696  0.500-  10 0.30   6 1.66   8 2.56
   5  0.250  0.250  0.000-  11 2.84  12 2.84   9 2.84   9 2.84  11 2.84  12 2.84  10 2.84  10 2.84

   6  0.000  0.500  0.500-   3 1.66   4 1.66   9 1.95  10 1.95  11 2.27  12 2.27   1 2.56   2 2.56

   7  0.750  0.750  0.000-  11 2.84  12 2.84  10 2.84  10 2.84  11 2.84  12 2.84   9 2.84   9 2.84

   8  0.500  0.000  0.500-   1 1.66   2 1.66  11 1.95  12 1.95   9 2.27  10 2.27   3 2.56   4 2.56

   9  0.231  0.269  0.500-   3 0.30   6 1.95   8 2.27   5 2.84   5 2.84   7 2.84   7 2.84  11 2.99
                            12 2.99  11 2.99  12 2.99
  10  0.769  0.731  0.500-   4 0.30   6 1.95   8 2.27   7 2.84   7 2.84   5 2.84   5 2.84  11 2.99
                            12 2.99  11 2.99  12 2.99
  11  0.269  0.769  0.037-   2 0.30   8 1.95   6 2.27   5 2.84   7 2.84   5 2.84   7 2.84  10 2.99
                             9 2.99   9 2.99  10 2.99
  12  0.731  0.231  0.963-   1 0.30   8 1.95   6 2.27   7 2.84   5 2.84   7 2.84   5 2.84  10 2.99
                             9 2.99   9 2.99  10 2.99
 
 -----------------------------------------------------------------------------
|                                                                             |
|           W    W    AA    RRRRR   N    N  II  N    N   GGGG   !!!           |
|           W    W   A  A   R    R  NN   N  II  NN   N  G    G  !!!           |
|           W    W  A    A  R    R  N N  N  II  N N  N  G       !!!           |
|           W WW W  AAAAAA  RRRRR   N  N N  II  N  N N  G  GGG   !            |
|           WW  WW  A    A  R   R   N   NN  II  N   NN  G    G                |
|           W    W  A    A  R    R  N    N  II  N    N   GGGG   !!!           |
|                                                                             |
|     The distance between some ions is very small. Please check the          |
|     nearest-neighbor list in the OUTCAR file.                               |
|     I HOPE YOU KNOW WHAT YOU ARE DOING!                                     |
|                                                                             |
 -----------------------------------------------------------------------------

  LATTYP: Found a body centered tetragonal cell.
 ALAT       =     5.9677319584
 C/A-ratio  =     1.2729098378
  
  Lattice vectors:
  
 A1 = (   5.0770568620,   0.0000000000,  -2.5409600406)
 A2 = (  -1.9375264260,   4.6928134129,  -2.5409600406)
 A3 = (   0.0000000000,   0.0000000000,   5.6774100000)


Analysis of symmetry for initial positions (statically):
=====================================================================
 Subroutine PRICEL returns:
 Original cell was already a primitive cell.
 

 Routine SETGRP: Setting up the symmetry group for a 
 body centered tetragonal supercell.


 Subroutine GETGRP returns: Found 16 space group operations
 (whereof  8 operations were pure point group operations)
 out of a pool of 16 trial point group operations.


The static configuration has the point symmetry C_4h.
 The point group associated with its full space group is D_4h.


Analysis of symmetry for dynamics (positions and initial velocities):
=====================================================================
 Subroutine PRICEL returns:
 Original cell was already a primitive cell.
 

 Routine SETGRP: Setting up the symmetry group for a 
 body centered tetragonal supercell.


 Subroutine GETGRP returns: Found 16 space group operations
 (whereof  8 operations were pure point group operations)
 out of a pool of 16 trial point group operations.


The dynamic configuration has the point symmetry C_4h.
 The point group associated with its full space group is D_4h.


 Subroutine INISYM returns: Found 16 space group operations
 (whereof  8 operations are pure point group operations),
 and found     1 'primitive' translations


----------------------------------------------------------------------------------------

                                     Primitive cell                                     

  volume of cell :     135.2682

  direct lattice vectors                    reciprocal lattice vectors
     5.077056862  0.000000000 -2.540960041     0.196964507  0.081320927  0.000000000
    -1.937526426  4.692813413 -2.540960041     0.000000000  0.213091788  0.000000000
     0.000000000  0.000000000  5.677410000     0.088152686  0.131766236  0.176136654

  length of vectors
     5.677410000  5.677410000  5.677410000     0.213091788  0.213091788  0.236975437

  position of ions in fractional coordinates (direct lattice)
     0.696100000  0.196100000  0.892210000
     0.303900000  0.803900000  0.107790000
     0.196100000  0.303900000  0.500000000
     0.803900000  0.696100000  0.500000000
     0.250000000  0.250000000  1.000000000
     1.000000000  0.500000000  0.500000000
     0.750000000  0.750000000  1.000000000
     0.500000000  0.000000000  0.500000000
     0.231260000  0.268740000  0.500000000
     0.768740000  0.731260000  0.500000000
     0.268740000  0.768740000  0.037480000
     0.731260000  0.231260000  0.962520000

  ion indices of the primitive-cell ions
   primitive index   ion index
                 1           1
                 2           2
                 3           3
                 4           4
                 5           5
                 6           6
                 7           7
                 8           8
                 9           9
                10          10
                11          11
                12          12

----------------------------------------------------------------------------------------

 
 
 KPOINTS: EA                                      

Automatic generation of k-mesh.
 Grid dimensions read from file:
 generate k-points for:    8    8    8

 Generating k-lattice:

  Cartesian coordinates                     Fractional coordinates (reciprocal lattice)
     0.024620563  0.010165116  0.000000000     0.125000000 -0.000000000  0.000000000
     0.000000000  0.026636473  0.000000000     0.000000000  0.125000000  0.000000000
     0.011019086  0.016470779  0.022017082    -0.000000000 -0.000000000  0.125000000

  Length of vectors
     0.026636473  0.026636473  0.029621930

  Shift w.r.t. Gamma in fractional coordinates (k-lattice)
     0.000000000  0.000000000  0.000000000

 
 Subroutine IBZKPT returns following result:
 ===========================================
 
 Found     59 irreducible k-points:
 
 Following reciprocal coordinates:
            Coordinates               Weight
  0.000000  0.000000  0.000000      1.000000
  0.125000  0.000000  0.000000      8.000000
  0.250000  0.000000  0.000000      8.000000
  0.375000  0.000000  0.000000      8.000000
  0.500000  0.000000  0.000000      4.000000
  0.125000  0.125000  0.000000      8.000000
  0.250000  0.125000  0.000000     16.000000
  0.375000  0.125000  0.000000     16.000000
  0.500000  0.125000  0.000000     16.000000
 -0.375000  0.125000  0.000000     16.000000
 -0.250000  0.125000  0.000000     16.000000
 -0.125000  0.125000  0.000000      4.000000
  0.250000  0.250000  0.000000      8.000000
  0.375000  0.250000  0.000000     16.000000
  0.500000  0.250000  0.000000     16.000000
 -0.375000  0.250000  0.000000     16.000000
 -0.250000  0.250000  0.000000      4.000000
  0.375000  0.375000  0.000000      8.000000
  0.500000  0.375000  0.000000     16.000000
 -0.375000  0.375000  0.000000      4.000000
  0.500000  0.500000  0.000000      2.000000
  0.125000  0.125000  0.125000      8.000000
  0.250000  0.125000  0.125000     16.000000
  0.375000  0.125000  0.125000      8.000000
 -0.125000  0.125000  0.125000      4.000000
  0.250000  0.250000  0.125000      8.000000
  0.375000  0.250000  0.125000     16.000000
  0.500000  0.250000  0.125000      8.000000
 -0.250000  0.250000  0.125000      8.000000
 -0.125000  0.250000  0.125000      8.000000
  0.375000  0.375000  0.125000      4.000000
 -0.375000  0.375000  0.125000      8.000000
 -0.250000  0.375000  0.125000     16.000000
 -0.125000  0.375000  0.125000      8.000000
  0.500000  0.500000  0.125000      4.000000
 -0.375000  0.500000  0.125000     16.000000
 -0.250000  0.500000  0.125000     16.000000
 -0.125000  0.500000  0.125000      8.000000
 -0.375000 -0.375000  0.125000      8.000000
 -0.250000 -0.375000  0.125000     16.000000
 -0.125000 -0.375000  0.125000      8.000000
 -0.250000 -0.250000  0.125000      8.000000
 -0.125000 -0.250000  0.125000      8.000000
 -0.125000 -0.125000  0.125000      2.000000
  0.250000  0.250000  0.250000      2.000000
 -0.250000  0.250000  0.250000      4.000000
 -0.375000  0.375000  0.250000      8.000000
 -0.250000  0.375000  0.250000      8.000000
  0.500000  0.500000  0.250000      4.000000
 -0.375000  0.500000  0.250000     16.000000
 -0.250000  0.500000  0.250000      8.000000
 -0.375000 -0.375000  0.250000      8.000000
 -0.250000 -0.375000  0.250000      8.000000
 -0.250000 -0.250000  0.250000      2.000000
 -0.375000  0.375000  0.375000      4.000000
  0.500000  0.500000  0.375000      4.000000
 -0.375000  0.500000  0.375000      8.000000
 -0.375000 -0.375000  0.375000      2.000000
  0.500000  0.500000  0.500000      1.000000
 
 Following cartesian coordinates:
            Coordinates               Weight
  0.000000  0.000000  0.000000      1.000000
  0.024621  0.010165  0.000000      8.000000
  0.049241  0.020330  0.000000      8.000000
  0.073862  0.030495  0.000000      8.000000
  0.098482  0.040660  0.000000      4.000000
  0.024621  0.036802  0.000000      8.000000
  0.049241  0.046967  0.000000     16.000000
  0.073862  0.057132  0.000000     16.000000
  0.098482  0.067297  0.000000     16.000000
 -0.073862 -0.003859  0.000000     16.000000
 -0.049241  0.006306  0.000000     16.000000
 -0.024621  0.016471  0.000000      4.000000
  0.049241  0.073603  0.000000      8.000000
  0.073862  0.083768  0.000000     16.000000
  0.098482  0.093933  0.000000     16.000000
 -0.073862  0.022778  0.000000     16.000000
 -0.049241  0.032943  0.000000      4.000000
  0.073862  0.110405  0.000000      8.000000
  0.098482  0.120570  0.000000     16.000000
 -0.073862  0.049414  0.000000      4.000000
  0.098482  0.147206  0.000000      2.000000
  0.035640  0.053272  0.022017      8.000000
  0.060260  0.063437  0.022017     16.000000
  0.084881  0.073603  0.022017      8.000000
 -0.013601  0.032942  0.022017      4.000000
  0.060260  0.090074  0.022017      8.000000
  0.084881  0.100239  0.022017     16.000000
  0.109501  0.110404  0.022017      8.000000
 -0.038222  0.049413  0.022017      8.000000
 -0.013601  0.059579  0.022017      8.000000
  0.084881  0.126876  0.022017      4.000000
 -0.062843  0.065885  0.022017      8.000000
 -0.038222  0.076050  0.022017     16.000000
 -0.013601  0.086215  0.022017      8.000000
  0.109501  0.163677  0.022017      4.000000
 -0.062843  0.092521  0.022017     16.000000
 -0.038222  0.102686  0.022017     16.000000
 -0.013601  0.112852  0.022017      8.000000
 -0.062843 -0.093934  0.022017      8.000000
 -0.038222 -0.083769  0.022017     16.000000
 -0.013601 -0.073604  0.022017      8.000000
 -0.038222 -0.057132  0.022017      8.000000
 -0.013601 -0.046967  0.022017      8.000000
 -0.013601 -0.020331  0.022017      2.000000
  0.071279  0.106545  0.044034      2.000000
 -0.027203  0.065884  0.044034      4.000000
 -0.051824  0.082356  0.044034      8.000000
 -0.027203  0.092521  0.044034      8.000000
  0.120520  0.180148  0.044034      4.000000
 -0.051824  0.108992  0.044034     16.000000
 -0.027203  0.119157  0.044034      8.000000
 -0.051824 -0.077463  0.044034      8.000000
 -0.027203 -0.067298  0.044034      8.000000
 -0.027203 -0.040662  0.044034      2.000000
 -0.040804  0.098826  0.066051      4.000000
  0.131540  0.196619  0.066051      4.000000
 -0.040804  0.125463  0.066051      8.000000
 -0.040804 -0.060992  0.066051      2.000000
  0.142559  0.213089  0.088068      1.000000
 


--------------------------------------------------------------------------------------------------------




 Dimension of arrays:
   k-points           NKPTS =     59   k-points in BZ     NKDIM =     59   number of bands    NBANDS=     54
   number of dos      NEDOS =    301   number of ions     NIONS =     12
   non local maximal  LDIM  =      6   non local SUM 2l+1 LMDIM =     18
   total plane-waves  NPLWV = 110592
   max r-space proj   IRMAX =      1   max aug-charges    IRDMAX= 286197
   dimension x,y,z NGX =    48 NGY =   48 NGZ =   48
   dimension x,y,z NGXF=    96 NGYF=   96 NGZF=   96
   support grid    NGXF=   192 NGYF=  192 NGZF=  192
   ions per type =               4   4   4
   NGX,Y,Z   is equivalent  to a cutoff of  14.06, 14.06, 14.06 a.u.
   NGXF,Y,Z  is equivalent  to a cutoff of  28.11, 28.11, 28.11 a.u.

 SYSTEM =  routine with relax: pwdword             
 POSCAR =  EA3                                     

 Startparameter for this run:
   NWRITE =      2    write-flag & timer
   PREC   = acc       normal or accurate (medium, high low for compatibility)
   ISTART =      0    job   : 0-new  1-cont  2-samecut
   ICHARG =      2    charge: 1-file 2-atom 10-const
   ISPIN  =      1    spin polarized calculation?
   LNONCOLLINEAR =      F non collinear calculations
   LSORBIT =      F    spin-orbit coupling
   INIWAV =      1    electr: 0-lowe 1-rand  2-diag
   LASPH  =      T    aspherical Exc in radial PAW
   METAGGA=      F    non-selfconsistent MetaGGA calc.

 Electronic Relaxation 1
   ENCUT  =  600.0 eV  44.10 Ry    6.64 a.u.  11.34 11.34 11.34*2*pi/ulx,y,z
   ENINI  =  600.0     initial cutoff
   ENAUG  =  535.5 eV  augmentation charge cutoff
   NELM   =    100;   NELMIN=  6; NELMDL= -5     # of ELM steps 
   EDIFF  = 0.1E-08   stopping-criterion for ELM
   LREAL  =      F    real-space projection
   NLSPLINE    = F    spline interpolate recip. space projectors
   LCOMPAT=      F    compatible to vasp.4.4
   GGA_COMPAT  = T    GGA compatible to vasp.4.4-vasp.4.6
   LMAXPAW     = -100 max onsite density
   LMAXMIX     =    2 max onsite mixed and CHGCAR
   VOSKOWN=      0    Vosko Wilk Nusair interpolation
   ROPT   =    0.00000   0.00000   0.00000
 Ionic relaxation
   EDIFFG = 0.1E-07   stopping-criterion for IOM
   NSW    =      0    number of steps for IOM
   NBLOCK =      1;   KBLOCK =      1    inner block; outer block 
   IBRION =     -1    ionic relax: 0-MD 1-quasi-New 2-CG
   NFREE  =      0    steps in history (QN), initial steepest desc. (CG)
   ISIF   =     -1    stress and relaxation
   IWAVPR =     10    prediction:  0-non 1-charg 2-wave 3-comb
   ISYM   =      2    0-nonsym 1-usesym 2-fastsym
   LCORR  =      T    Harris-Foulkes like correction to forces

   POTIM  = 0.5000    time-step for ionic-motion
   TEIN   =    0.0    initial temperature
   TEBEG  =    0.0;   TEEND  =   0.0 temperature during run
   SMASS  =  -3.00    Nose mass-parameter (am)
   estimated Nose-frequenzy (Omega)   =  0.10E-29 period in steps = 0.13E+47 mass=  -0.737E-27a.u.
   SCALEE = 1.0000    scale energy and forces
   NPACO  =    256;   APACO  = 16.0  distance and # of slots for P.C.
   PSTRESS=    0.0 pullay stress

  Mass of Ions in am
   POMASS =  10.81 95.94 28.09
  Ionic Valenz
   ZVAL   =   3.00 14.00  4.00
  Atomic Wigner-Seitz radii
   RWIGS  =  -1.00 -1.00 -1.00
  virtual crystal weights 
   VCA    =   1.00  1.00  1.00
   NELECT =      84.0000    total number of electrons
   NUPDOWN=      -1.0000    fix difference up-down

 DOS related values:
   EMIN   =  10.00;   EMAX   =-10.00  energy-range for DOS
   EFERMI =   0.00
   ISMEAR =     0;   SIGMA  =   0.02  broadening in eV -4-tet -1-fermi 0-gaus

 Electronic relaxation 2 (details)
   IALGO  =     58    algorithm
   LDIAG  =      T    sub-space diagonalisation (order eigenvalues)
   LSUBROT=      F    optimize rotation matrix (better conditioning)
   TURBO    =      0    0=normal 1=particle mesh
   IRESTART =      0    0=no restart 2=restart with 2 vectors
   NREBOOT  =      0    no. of reboots
   NMIN     =      0    reboot dimension
   EREF     =   0.00    reference energy to select bands
   IMIX   =      4    mixing-type and parameters
     AMIX     =   0.40;   BMIX     =  1.00
     AMIX_MAG =   1.60;   BMIX_MAG =  1.00
     AMIN     =   0.10
     WC   =   100.;   INIMIX=   1;  MIXPRE=   1;  MAXMIX= -45

 Intra band minimization:
   WEIMIN = 0.0000     energy-eigenvalue tresh-hold
   EBREAK =  0.46E-11  absolut break condition
   DEPER  =   0.30     relativ break condition  

   TIME   =   0.40     timestep for ELM

  volume/ion in A,a.u.               =      11.27        76.07
  Fermi-wavevector in a.u.,A,eV,Ry     =   1.396699  2.639378 26.541801  1.950767
  Thomas-Fermi vector in A             =   2.520027
 
 Write flags
   LWAVE        =      T    write WAVECAR
   LDOWNSAMPLE  =      F    k-point downsampling of WAVECAR
   LCHARG       =      T    write CHGCAR
   LVTOT        =      F    write LOCPOT, total local potential
   LVHAR        =      F    write LOCPOT, Hartree potential only
   LELF         =      F    write electronic localiz. function (ELF)
   LORBIT       =      0    0 simple, 1 ext, 2 COOP (PROOUT), +10 PAW based schemes


 Dipole corrections
   LMONO  =      F    monopole corrections only (constant potential shift)
   LDIPOL =      F    correct potential (dipole corrections)
   IDIPOL =      0    1-x, 2-y, 3-z, 4-all directions 
   EPSILON=  1.0000000 bulk dielectric constant

 Exchange correlation treatment:
   GGA     =    --    GGA type
   LEXCH   =     8    internal setting for exchange type
   VOSKOWN=      0    Vosko Wilk Nusair interpolation
   LHFCALC =     F    Hartree Fock is set to
   LHFONE  =     F    Hartree Fock one center treatment
   AEXX    =    0.0000 exact exchange contribution

 Linear response parameters
   LEPSILON=     F    determine dielectric tensor
   LRPA    =     F    only Hartree local field effects (RPA)
   LNABLA  =     F    use nabla operator in PAW spheres
   LVEL    =     F    velocity operator in full k-point grid
   LINTERFAST=   F  fast interpolation
   KINTER  =     0    interpolate to denser k-point grid
   CSHIFT  =0.1000    complex shift for real part using Kramers Kronig
   OMEGAMAX=  -1.0    maximum frequency
   DEG_THRESHOLD= 0.2000000E-02 threshold for treating states as degnerate
   RTIME   =   -0.100 relaxation time in fs
  (WPLASMAI=    0.000 imaginary part of plasma frequency in eV, 0.658/RTIME)
   DFIELD  = 0.0000000 0.0000000 0.0000000 field for delta impulse in time
 
 Orbital magnetization related:
   ORBITALMAG=     F  switch on orbital magnetization
   LCHIMAG   =     F  perturbation theory with respect to B field
   DQ        =  0.001000  dq finite difference perturbation B field
   LLRAUG    =     F  two centre corrections for induced B field



--------------------------------------------------------------------------------------------------------


 Static calculation
 charge density and potential will be updated during run
 non-spin polarized calculation
 Conjugate gradient for all bands (Freysoldt, et al. PRB 79, 241103 (2009))
 preconditioned conjugated gradient                                        
 perform sub-space diagonalisation
    before iterative eigenvector-optimisation
 modified Broyden-mixing scheme, WC =      100.0
 initial mixing is a Kerker type mixing with AMIX =  0.4000 and BMIX =      1.0000
 Hartree-type preconditioning will be used
 using additional bands           12
 reciprocal scheme for non local part
 use partial core corrections
 no Harris-corrections to forces 
 use gradient corrections 
 use of overlap-Matrix (Vanderbilt PP)
 Gauss-broadening in eV      SIGMA  =   0.02


--------------------------------------------------------------------------------------------------------


  energy-cutoff  :      600.00
  volume of cell :      135.27
      direct lattice vectors                 reciprocal lattice vectors
     5.077056862  0.000000000 -2.540960041     0.196964507  0.081320927  0.000000000
    -1.937526426  4.692813413 -2.540960041     0.000000000  0.213091788  0.000000000
     0.000000000  0.000000000  5.677410000     0.088152686  0.131766236  0.176136654

  length of vectors
     5.677410000  5.677410000  5.677410000     0.213091788  0.213091788  0.236975437


 
 k-points in units of 2pi/SCALE and weight: EA                                      
   0.00000000  0.00000000  0.00000000       0.002
   0.02462056  0.01016512  0.00000000       0.016
   0.04924113  0.02033023  0.00000000       0.016
   0.07386169  0.03049535  0.00000000       0.016
   0.09848225  0.04066046  0.00000000       0.008
   0.02462056  0.03680159  0.00000000       0.016
   0.04924113  0.04696671  0.00000000       0.031
   0.07386169  0.05713182  0.00000000       0.031
   0.09848225  0.06729694  0.00000000       0.031
  -0.07386169 -0.00385887  0.00000000       0.031
  -0.04924113  0.00630624  0.00000000       0.031
  -0.02462056  0.01647136  0.00000000       0.008
   0.04924113  0.07360318  0.00000000       0.016
   0.07386169  0.08376829  0.00000000       0.031
   0.09848225  0.09393341  0.00000000       0.031
  -0.07386169  0.02277760  0.00000000       0.031
  -0.04924113  0.03294272  0.00000000       0.008
   0.07386169  0.11040477  0.00000000       0.016
   0.09848225  0.12056988  0.00000000       0.031
  -0.07386169  0.04941407  0.00000000       0.008
   0.09848225  0.14720636  0.00000000       0.004
   0.03563965  0.05327237  0.02201708       0.016
   0.06026021  0.06343748  0.02201708       0.031
   0.08488078  0.07360260  0.02201708       0.016
  -0.01360148  0.03294214  0.02201708       0.008
   0.06026021  0.09007396  0.02201708       0.016
   0.08488078  0.10023907  0.02201708       0.031
   0.10950134  0.11040419  0.02201708       0.016
  -0.03822204  0.04941349  0.02201708       0.016
  -0.01360148  0.05957861  0.02201708       0.016
   0.08488078  0.12687555  0.02201708       0.008
  -0.06284260  0.06588485  0.02201708       0.016
  -0.03822204  0.07604997  0.02201708       0.031
  -0.01360148  0.08621508  0.02201708       0.016
   0.10950134  0.16367714  0.02201708       0.008
  -0.06284260  0.09252133  0.02201708       0.031
  -0.03822204  0.10268644  0.02201708       0.031
  -0.01360148  0.11285156  0.02201708       0.016
  -0.06284260 -0.09393399  0.02201708       0.016
  -0.03822204 -0.08376887  0.02201708       0.031
  -0.01360148 -0.07360376  0.02201708       0.016
  -0.03822204 -0.05713240  0.02201708       0.016
  -0.01360148 -0.04696728  0.02201708       0.016
  -0.01360148 -0.02033081  0.02201708       0.004
   0.07127930  0.10654474  0.04403416       0.004
  -0.02720296  0.06588427  0.04403416       0.008
  -0.05182352  0.08235563  0.04403416       0.016
  -0.02720296  0.09252075  0.04403416       0.016
   0.12052042  0.18014792  0.04403416       0.008
  -0.05182352  0.10899211  0.04403416       0.031
  -0.02720296  0.11915722  0.04403416       0.016
  -0.05182352 -0.07746321  0.04403416       0.016
  -0.02720296 -0.06729809  0.04403416       0.016
  -0.02720296 -0.04066162  0.04403416       0.004
  -0.04080443  0.09882641  0.06605125       0.008
   0.13153951  0.19661870  0.06605125       0.008
  -0.04080443  0.12546288  0.06605125       0.016
  -0.04080443 -0.06099243  0.06605125       0.004
   0.14255860  0.21308948  0.08806833       0.002
 
 k-points in reciprocal lattice and weights: EA                                      
   0.00000000  0.00000000  0.00000000       0.002
   0.12500000  0.00000000  0.00000000       0.016
   0.25000000  0.00000000  0.00000000       0.016
   0.37500000  0.00000000  0.00000000       0.016
   0.50000000  0.00000000  0.00000000       0.008
   0.12500000  0.12500000  0.00000000       0.016
   0.25000000  0.12500000  0.00000000       0.031
   0.37500000  0.12500000  0.00000000       0.031
   0.50000000  0.12500000  0.00000000       0.031
  -0.37500000  0.12500000  0.00000000       0.031
  -0.25000000  0.12500000  0.00000000       0.031
  -0.12500000  0.12500000  0.00000000       0.008
   0.25000000  0.25000000  0.00000000       0.016
   0.37500000  0.25000000  0.00000000       0.031
   0.50000000  0.25000000  0.00000000       0.031
  -0.37500000  0.25000000  0.00000000       0.031
  -0.25000000  0.25000000  0.00000000       0.008
   0.37500000  0.37500000  0.00000000       0.016
   0.50000000  0.37500000  0.00000000       0.031
  -0.37500000  0.37500000  0.00000000       0.008
   0.50000000  0.50000000  0.00000000       0.004
   0.12500000  0.12500000  0.12500000       0.016
   0.25000000  0.12500000  0.12500000       0.031
   0.37500000  0.12500000  0.12500000       0.016
  -0.12500000  0.12500000  0.12500000       0.008
   0.25000000  0.25000000  0.12500000       0.016
   0.37500000  0.25000000  0.12500000       0.031
   0.50000000  0.25000000  0.12500000       0.016
  -0.25000000  0.25000000  0.12500000       0.016
  -0.12500000  0.25000000  0.12500000       0.016
   0.37500000  0.37500000  0.12500000       0.008
  -0.37500000  0.37500000  0.12500000       0.016
  -0.25000000  0.37500000  0.12500000       0.031
  -0.12500000  0.37500000  0.12500000       0.016
   0.50000000  0.50000000  0.12500000       0.008
  -0.37500000  0.50000000  0.12500000       0.031
  -0.25000000  0.50000000  0.12500000       0.031
  -0.12500000  0.50000000  0.12500000       0.016
  -0.37500000 -0.37500000  0.12500000       0.016
  -0.25000000 -0.37500000  0.12500000       0.031
  -0.12500000 -0.37500000  0.12500000       0.016
  -0.25000000 -0.25000000  0.12500000       0.016
  -0.12500000 -0.25000000  0.12500000       0.016
  -0.12500000 -0.12500000  0.12500000       0.004
   0.25000000  0.25000000  0.25000000       0.004
  -0.25000000  0.25000000  0.25000000       0.008
  -0.37500000  0.37500000  0.25000000       0.016
  -0.25000000  0.37500000  0.25000000       0.016
   0.50000000  0.50000000  0.25000000       0.008
  -0.37500000  0.50000000  0.25000000       0.031
  -0.25000000  0.50000000  0.25000000       0.016
  -0.37500000 -0.37500000  0.25000000       0.016
  -0.25000000 -0.37500000  0.25000000       0.016
  -0.25000000 -0.25000000  0.25000000       0.004
  -0.37500000  0.37500000  0.37500000       0.008
   0.50000000  0.50000000  0.37500000       0.008
  -0.37500000  0.50000000  0.37500000       0.016
  -0.37500000 -0.37500000  0.37500000       0.004
   0.50000000  0.50000000  0.50000000       0.002
 
 position of ions in fractional coordinates (direct lattice) 
   0.69610000  0.19610000  0.89221000
   0.30390000  0.80390000  0.10779000
   0.19610000  0.30390000  0.50000000
   0.80390000  0.69610000  0.50000000
   0.25000000  0.25000000  0.00000000
   0.00000000  0.50000000  0.50000000
   0.75000000  0.75000000  0.00000000
   0.50000000  0.00000000  0.50000000
   0.23126000  0.26874000  0.50000000
   0.76874000  0.73126000  0.50000000
   0.26874000  0.76874000  0.03748000
   0.73126000  0.23126000  0.96252000
 
 position of ions in cartesian coordinates  (Angst):
   3.15419035  0.92026071  2.79839743
  -0.01465991  3.77255270 -2.20290751
   0.40679657  1.42614600  1.56822498
   2.73273387  3.26666742 -0.97273506
   0.78488261  1.17320335 -1.27048002
  -0.96876321  2.34640671  1.56822498
   2.35464783  3.51961006 -3.81144006
   2.53852843  0.00000000  1.56822498
   0.65342932  1.26114668  1.56822498
   2.48610112  3.43166674 -0.97273506
  -0.12504580  3.60755338 -2.42340590
   3.26457624  1.08526003  3.01889581
 


--------------------------------------------------------------------------------------------------------


 k-point   1 :   0.0000 0.0000 0.0000  plane waves:    4547
 k-point   2 :   0.1250 0.0000 0.0000  plane waves:    4516
 k-point   3 :   0.2500 0.0000 0.0000  plane waves:    4507
 k-point   4 :   0.3750 0.0000 0.0000  plane waves:    4517
 k-point   5 :   0.5000 0.0000 0.0000  plane waves:    4530
 k-point   6 :   0.1250 0.1250 0.0000  plane waves:    4513
 k-point   7 :   0.2500 0.1250 0.0000  plane waves:    4509
 k-point   8 :   0.3750 0.1250 0.0000  plane waves:    4514
 k-point   9 :   0.5000 0.1250 0.0000  plane waves:    4521
 k-point  10 :  -0.3750 0.1250 0.0000  plane waves:    4524
 k-point  11 :  -0.2500 0.1250 0.0000  plane waves:    4515
 k-point  12 :  -0.1250 0.1250 0.0000  plane waves:    4535
 k-point  13 :   0.2500 0.2500 0.0000  plane waves:    4532
 k-point  14 :   0.3750 0.2500 0.0000  plane waves:    4515
 k-point  15 :   0.5000 0.2500 0.0000  plane waves:    4519
 k-point  16 :  -0.3750 0.2500 0.0000  plane waves:    4521
 k-point  17 :  -0.2500 0.2500 0.0000  plane waves:    4523
 k-point  18 :   0.3750 0.3750 0.0000  plane waves:    4513
 k-point  19 :   0.5000 0.3750 0.0000  plane waves:    4516
 k-point  20 :  -0.3750 0.3750 0.0000  plane waves:    4499
 k-point  21 :   0.5000 0.5000 0.0000  plane waves:    4512
 k-point  22 :   0.1250 0.1250 0.1250  plane waves:    4527
 k-point  23 :   0.2500 0.1250 0.1250  plane waves:    4526
 k-point  24 :   0.3750 0.1250 0.1250  plane waves:    4526
 k-point  25 :  -0.1250 0.1250 0.1250  plane waves:    4512
 k-point  26 :   0.2500 0.2500 0.1250  plane waves:    4514
 k-point  27 :   0.3750 0.2500 0.1250  plane waves:    4518
 k-point  28 :   0.5000 0.2500 0.1250  plane waves:    4525
 k-point  29 :  -0.2500 0.2500 0.1250  plane waves:    4517
 k-point  30 :  -0.1250 0.2500 0.1250  plane waves:    4511
 k-point  31 :   0.3750 0.3750 0.1250  plane waves:    4518
 k-point  32 :  -0.3750 0.3750 0.1250  plane waves:    4524
 k-point  33 :  -0.2500 0.3750 0.1250  plane waves:    4517
 k-point  34 :  -0.1250 0.3750 0.1250  plane waves:    4518
 k-point  35 :   0.5000 0.5000 0.1250  plane waves:    4538
 k-point  36 :  -0.3750 0.5000 0.1250  plane waves:    4523
 k-point  37 :  -0.2500 0.5000 0.1250  plane waves:    4509
 k-point  38 :  -0.1250 0.5000 0.1250  plane waves:    4515
 k-point  39 :  -0.3750-0.3750 0.1250  plane waves:    4508
 k-point  40 :  -0.2500-0.3750 0.1250  plane waves:    4510
 k-point  41 :  -0.1250-0.3750 0.1250  plane waves:    4505
 k-point  42 :  -0.2500-0.2500 0.1250  plane waves:    4498
 k-point  43 :  -0.1250-0.2500 0.1250  plane waves:    4513
 k-point  44 :  -0.1250-0.1250 0.1250  plane waves:    4527
 k-point  45 :   0.2500 0.2500 0.2500  plane waves:    4516
 k-point  46 :  -0.2500 0.2500 0.2500  plane waves:    4514
 k-point  47 :  -0.3750 0.3750 0.2500  plane waves:    4514
 k-point  48 :  -0.2500 0.3750 0.2500  plane waves:    4508
 k-point  49 :   0.5000 0.5000 0.2500  plane waves:    4496
 k-point  50 :  -0.3750 0.5000 0.2500  plane waves:    4511
 k-point  51 :  -0.2500 0.5000 0.2500  plane waves:    4507
 k-point  52 :  -0.3750-0.3750 0.2500  plane waves:    4509
 k-point  53 :  -0.2500-0.3750 0.2500  plane waves:    4501
 k-point  54 :  -0.2500-0.2500 0.2500  plane waves:    4503
 k-point  55 :  -0.3750 0.3750 0.3750  plane waves:    4512
 k-point  56 :   0.5000 0.5000 0.3750  plane waves:    4494
 k-point  57 :  -0.3750 0.5000 0.3750  plane waves:    4492
 k-point  58 :  -0.3750-0.3750 0.3750  plane waves:    4479
 k-point  59 :   0.5000 0.5000 0.5000  plane waves:    4496

 maximum and minimum number of plane-waves per node :      2278     2230

 maximum number of plane-waves:      4547
 maximum index in each direction: 
   IXMAX=   11   IYMAX=   11   IZMAX=   11
   IXMIN=  -11   IYMIN=  -11   IZMIN=  -11


 parallel 3D FFT for wavefunctions:
    minimum data exchange during FFTs selected (reduces bandwidth)
 parallel 3D FFT for charge:
    minimum data exchange during FFTs selected (reduces bandwidth)


 total amount of memory used by VASP MPI-rank0   170466. kBytes
=======================================================================

   base      :      30000. kBytes
   nonl-proj :      58550. kBytes
   fftplans  :      12484. kBytes
   grid      :       9393. kBytes
   one-center:         93. kBytes
   wavefun   :      59946. kBytes
 
     INWAV:  cpu time    0.0001: real time    0.0001
 Broyden mixing: mesh for mixing (old mesh)
   NGX = 23   NGY = 23   NGZ = 23
  (NGX  = 96   NGY  = 96   NGZ  = 96)
  gives a total of  12167 points

 initial charge density was supplied:
 charge density of overlapping atoms calculated
 number of electron      84.0000000 magnetization 
 keeping initial charge density in first step


--------------------------------------------------------------------------------------------------------


 Maximum index for augmentation-charges        23229 (set IRDMAX)


--------------------------------------------------------------------------------------------------------


 First call to EWALD:  gamma=   0.345
 Maximum number of real-space cells 3x 3x 3
 Maximum number of reciprocal cells 3x 3x 3

    FEWALD:  cpu time    0.0015: real time    0.0015


--------------------------------------- Iteration      1(   1)  ---------------------------------------


    POTLOK:  cpu time    0.1081: real time    0.1092
    SETDIJ:  cpu time    0.6068: real time    0.6107
    TRIAL :  cpu time    7.0586: real time    7.1240
    CORREC:  cpu time    0.0011: real time    0.0011
    --------------------------------------------
      LOOP:  cpu time    7.7966: real time    7.8762

 eigenvalue-minimisations  :  6396
 total energy-change (2. order) : 0.2278110E+04  (-0.5930427E+04)
 number of electron      84.0000000 magnetization 
 augmentation part       84.0000000 magnetization 

 Free energy of the ion-electron system (eV)
  ---------------------------------------------------
  alpha Z        PSCENC =       404.83673589
  Ewald energy   TEWEN  =     -4822.92631279
  -Hartree energ DENC   =     -1838.74281060
  -exchange      EXHF   =         0.00000000
  -V(xc)+E(xc)   XCENC  =       329.95625568
  PAW double counting   =      6444.67582193    -6389.50304870
  entropy T*S    EENTRO =        -0.00095163
  eigenvalues    EBANDS =         3.73994831
  atomic energy  EATOM  =      8146.07472429
  ---------------------------------------------------
  free energy    TOTEN  =      2278.11036236 eV

  energy without entropy =     2278.11131399  energy(sigma->0) =     2278.11083818


--------------------------------------------------------------------------------------------------------




--------------------------------------- Iteration      1(   2)  ---------------------------------------


    TRIAL :  cpu time    7.6344: real time    7.7072
    CORREC:  cpu time    0.0009: real time    0.0009
    --------------------------------------------
      LOOP:  cpu time    7.6374: real time    7.7110

 eigenvalue-minimisations  :  7458
 total energy-change (2. order) :-0.1178516E+04  (-0.1156767E+04)
 number of electron      84.0000000 magnetization 
 augmentation part       84.0000000 magnetization 

 Free energy of the ion-electron system (eV)
  ---------------------------------------------------
  alpha Z        PSCENC =       404.83673589
  Ewald energy   TEWEN  =     -4822.92631279
  -Hartree energ DENC   =     -1838.74281060
  -exchange      EXHF   =         0.00000000
  -V(xc)+E(xc)   XCENC  =       329.95625568
  PAW double counting   =      6444.67582193    -6389.50304870
  entropy T*S    EENTRO =        -0.00109799
  eigenvalues    EBANDS =     -1174.77636248
  atomic energy  EATOM  =      8146.07472429
  ---------------------------------------------------
  free energy    TOTEN  =      1099.59390522 eV

  energy without entropy =     1099.59500321  energy(sigma->0) =     1099.59445421


--------------------------------------------------------------------------------------------------------




--------------------------------------- Iteration      1(   3)  ---------------------------------------


    TRIAL :  cpu time    8.1780: real time    8.2813
    CORREC:  cpu time    0.0010: real time    0.0010
    --------------------------------------------
      LOOP:  cpu time    8.1801: real time    8.2851

 eigenvalue-minimisations  :  8352
 total energy-change (2. order) :-0.7267240E+02  (-0.7138799E+02)
 number of electron      84.0000000 magnetization 
 augmentation part       84.0000000 magnetization 

 Free energy of the ion-electron system (eV)
  ---------------------------------------------------
  alpha Z        PSCENC =       404.83673589
  Ewald energy   TEWEN  =     -4822.92631279
  -Hartree energ DENC   =     -1838.74281060
  -exchange      EXHF   =         0.00000000
  -V(xc)+E(xc)   XCENC  =       329.95625568
  PAW double counting   =      6444.67582193    -6389.50304870
  entropy T*S    EENTRO =        -0.00129353
  eigenvalues    EBANDS =     -1247.44857142
  atomic energy  EATOM  =      8146.07472429
  ---------------------------------------------------
  free energy    TOTEN  =      1026.92150074 eV

  energy without entropy =     1026.92279426  energy(sigma->0) =     1026.92214750


--------------------------------------------------------------------------------------------------------




--------------------------------------- Iteration      1(   4)  ---------------------------------------


    TRIAL :  cpu time    8.1785: real time    8.2553
    CORREC:  cpu time    0.0009: real time    0.0009
    --------------------------------------------
      LOOP:  cpu time    8.1818: real time    8.2591

 eigenvalue-minimisations  :  8148
 total energy-change (2. order) :-0.1557511E+01  (-0.1540288E+01)
 number of electron      84.0000000 magnetization 
 augmentation part       84.0000000 magnetization 

 Free energy of the ion-electron system (eV)
  ---------------------------------------------------
  alpha Z        PSCENC =       404.83673589
  Ewald energy   TEWEN  =     -4822.92631279
  -Hartree energ DENC   =     -1838.74281060
  -exchange      EXHF   =         0.00000000
  -V(xc)+E(xc)   XCENC  =       329.95625568
  PAW double counting   =      6444.67582193    -6389.50304870
  entropy T*S    EENTRO =        -0.00215234
  eigenvalues    EBANDS =     -1249.00522317
  atomic energy  EATOM  =      8146.07472429
  ---------------------------------------------------
  free energy    TOTEN  =      1025.36399018 eV

  energy without entropy =     1025.36614251  energy(sigma->0) =     1025.36506635


--------------------------------------------------------------------------------------------------------




--------------------------------------- Iteration      1(   5)  ---------------------------------------


    TRIAL :  cpu time    8.8167: real time    8.8932
    CORREC:  cpu time    0.0010: real time    0.0010
    CHARGE:  cpu time    0.8740: real time    0.8808
    --------------------------------------------
      LOOP:  cpu time    9.6940: real time    9.7779

 eigenvalue-minimisations  :  8556
 total energy-change (2. order) :-0.3578814E-01  (-0.3570078E-01)
 number of electron      83.9999995 magnetization 
 augmentation part       11.3123004 magnetization 

 Free energy of the ion-electron system (eV)
  ---------------------------------------------------
  alpha Z        PSCENC =       404.83673589
  Ewald energy   TEWEN  =     -4822.92631279
  -Hartree energ DENC   =     -1838.74281060
  -exchange      EXHF   =         0.00000000
  -V(xc)+E(xc)   XCENC  =       329.95625568
  PAW double counting   =      6444.67582193    -6389.50304870
  entropy T*S    EENTRO =        -0.00209929
  eigenvalues    EBANDS =     -1249.04106437
  atomic energy  EATOM  =      8146.07472429
  ---------------------------------------------------
  free energy    TOTEN  =      1025.32820203 eV

  energy without entropy =     1025.33030132  energy(sigma->0) =     1025.32925168


--------------------------------------------------------------------------------------------------------




--------------------------------------- Iteration      1(   6)  ---------------------------------------


    POTLOK:  cpu time    0.1018: real time    0.1025
    SETDIJ:  cpu time    0.6105: real time    0.6143
    TRIAL :  cpu time    5.8052: real time    5.8559
    CORREC:  cpu time    2.8572: real time    2.8793
    CHARGE:  cpu time    0.8722: real time    0.8791
    --------------------------------------------
      LOOP:  cpu time   10.2486: real time   10.3345

 eigenvalue-minimisations  :     0
 total energy-change (2. order) : 0.7168981E+03  (-0.3346538E+03)
 number of electron      84.0000010 magnetization 
 augmentation part       12.2611209 magnetization 

 Free energy of the ion-electron system (eV)
  ---------------------------------------------------
  alpha Z        PSCENC =       404.83673589
  Ewald energy   TEWEN  =     -4822.92631279
  -Hartree energ DENC   =     -2390.45368108
  -exchange      EXHF   =         0.00000000
  -V(xc)+E(xc)   XCENC  =       370.05559513
  PAW double counting   =  87916040.68694711-87916046.83562690
  entropy T*S    EENTRO =        -0.00193316
  eigenvalues    EBANDS =        40.79003973
  atomic energy  EATOM  =      8146.07472429
  ---------------------------------------------------
  free energy    TOTEN  =      1742.22632208 eV

  energy without entropy =     1742.22825525  energy(sigma->0) =     1742.22728866


--------------------------------------------------------------------------------------------------------




--------------------------------------- Iteration      1(   7)  ---------------------------------------


    POTLOK:  cpu time    0.0897: real time    0.0903
    SETDIJ:  cpu time    0.6123: real time    0.6160
    TRIAL :  cpu time    5.9614: real time    6.0128
    CORREC:  cpu time    2.8869: real time    2.9082
    CHARGE:  cpu time    0.7972: real time    0.8025
    --------------------------------------------
      LOOP:  cpu time   10.3484: real time   10.4445

 eigenvalue-minimisations  :     0
 total energy-change (2. order) :-0.3180188E+03  (-0.5836688E+02)
 number of electron      84.0000008 magnetization 
 augmentation part       11.3557128 magnetization 

 Free energy of the ion-electron system (eV)
  ---------------------------------------------------
  alpha Z        PSCENC =       404.83673589
  Ewald energy   TEWEN  =     -4822.92631279
  -Hartree energ DENC   =     -1888.61819622
  -exchange      EXHF   =         0.00000000
  -V(xc)+E(xc)   XCENC  =       350.01898931
  PAW double counting   =  29226310.14870632-29226305.14626670
  entropy T*S    EENTRO =        -0.00128428
  eigenvalues    EBANDS =      -770.17888134
  atomic energy  EATOM  =      8146.07472429
  ---------------------------------------------------
  free energy    TOTEN  =      1424.20756559 eV

  energy without entropy =     1424.20884987  energy(sigma->0) =     1424.20820773


--------------------------------------------------------------------------------------------------------




--------------------------------------- Iteration      1(   8)  ---------------------------------------


    POTLOK:  cpu time    0.0955: real time    0.0961
    SETDIJ:  cpu time    0.6132: real time    0.6173
    TRIAL :  cpu time    5.9205: real time    5.9700
    CORREC:  cpu time    2.8585: real time    2.8795
    CHARGE:  cpu time    0.8753: real time    0.8814
    --------------------------------------------
      LOOP:  cpu time   10.3721: real time   10.4538

 eigenvalue-minimisations  :     0
 total energy-change (2. order) :-0.5770932E+02  (-0.2074968E+02)
 number of electron      84.0000001 magnetization 
 augmentation part       10.8209282 magnetization 

 Free energy of the ion-electron system (eV)
  ---------------------------------------------------
  alpha Z        PSCENC =       404.83673589
  Ewald energy   TEWEN  =     -4822.92631279
  -Hartree energ DENC   =     -1874.93197375
  -exchange      EXHF   =         0.00000000
  -V(xc)+E(xc)   XCENC  =       347.26128244
  PAW double counting   =  17907751.98455704-17907736.42766605
  entropy T*S    EENTRO =        -0.00073893
  eigenvalues    EBANDS =      -849.37181774
  atomic energy  EATOM  =      8146.07472429
  ---------------------------------------------------
  free energy    TOTEN  =      1366.49824504 eV

  energy without entropy =     1366.49898397  energy(sigma->0) =     1366.49861450


--------------------------------------------------------------------------------------------------------




--------------------------------------- Iteration      1(   9)  ---------------------------------------


    POTLOK:  cpu time    0.0886: real time    0.0892
    SETDIJ:  cpu time    0.6107: real time    0.6143
    TRIAL :  cpu time    5.9686: real time    6.0179
    CORREC:  cpu time    2.8049: real time    2.8260
    CHARGE:  cpu time    0.8082: real time    0.8141
    --------------------------------------------
      LOOP:  cpu time   10.2848: real time   10.3666

 eigenvalue-minimisations  :     0
 total energy-change (2. order) :-0.2084060E+02  (-0.1610166E+02)
 number of electron      84.0000000 magnetization 
 augmentation part       10.9377766 magnetization 

 Free energy of the ion-electron system (eV)
  ---------------------------------------------------
  alpha Z        PSCENC =       404.83673589
  Ewald energy   TEWEN  =     -4822.92631279
  -Hartree energ DENC   =     -1902.45184679
  -exchange      EXHF   =         0.00000000
  -V(xc)+E(xc)   XCENC  =       347.38319108
  PAW double counting   =  16904797.04085663-16904776.78721717
  entropy T*S    EENTRO =        -0.00109598
  eigenvalues    EBANDS =      -847.51174786
  atomic energy  EATOM  =      8146.07472429
  ---------------------------------------------------
  free energy    TOTEN  =      1345.65764434 eV

  energy without entropy =     1345.65874032  energy(sigma->0) =     1345.65819233


--------------------------------------------------------------------------------------------------------




--------------------------------------- Iteration      1(  10)  ---------------------------------------


    POTLOK:  cpu time    0.0943: real time    0.0949
    SETDIJ:  cpu time    0.6033: real time    0.6067
    TRIAL :  cpu time    5.8567: real time    5.9043
    CORREC:  cpu time    2.7296: real time    2.7497
    CHARGE:  cpu time    0.8061: real time    0.8115
    --------------------------------------------
      LOOP:  cpu time   10.0986: real time   10.1766

 eigenvalue-minimisations  :     0
 total energy-change (2. order) :-0.1608860E+02  (-0.5686387E+01)
 number of electron      84.0000000 magnetization 
 augmentation part       11.2131257 magnetization 

 Free energy of the ion-electron system (eV)
  ---------------------------------------------------
  alpha Z        PSCENC =       404.83673589
  Ewald energy   TEWEN  =     -4822.92631279
  -Hartree energ DENC   =     -1970.46718863
  -exchange      EXHF   =         0.00000000
  -V(xc)+E(xc)   XCENC  =       351.40826286
  PAW double counting   =  18505701.18390947-18505672.26036142
  entropy T*S    EENTRO =        -0.00051282
  eigenvalues    EBANDS =      -808.27963180
  atomic energy  EATOM  =      8146.07472429
  ---------------------------------------------------
  free energy    TOTEN  =      1329.56904188 eV

  energy without entropy =     1329.56955469  energy(sigma->0) =     1329.56929829


--------------------------------------------------------------------------------------------------------




--------------------------------------- Iteration      1(  11)  ---------------------------------------


    POTLOK:  cpu time    0.0927: real time    0.0932
    SETDIJ:  cpu time    0.6160: real time    0.6202
    TRIAL :  cpu time    5.5675: real time    5.6151
    CORREC:  cpu time    2.7134: real time    2.7346
    CHARGE:  cpu time    0.8081: real time    0.8139
    --------------------------------------------
      LOOP:  cpu time    9.8016: real time    9.8819

 eigenvalue-minimisations  :     0
 total energy-change (2. order) :-0.5639652E+01  (-0.3051173E+01)
 number of electron      83.9999996 magnetization 
 augmentation part       11.2905002 magnetization 

 Free energy of the ion-electron system (eV)
  ---------------------------------------------------
  alpha Z        PSCENC =       404.83673589
  Ewald energy   TEWEN  =     -4822.92631279
  -Hartree energ DENC   =     -2005.26385347
  -exchange      EXHF   =         0.00000000
  -V(xc)+E(xc)   XCENC  =       353.69528564
  PAW double counting   =  20122608.85977127-20122574.96521319
  entropy T*S    EENTRO =        -0.00082158
  eigenvalues    EBANDS =      -786.38123509
  atomic energy  EATOM  =      8146.07472429
  ---------------------------------------------------
  free energy    TOTEN  =      1323.92938973 eV

  energy without entropy =     1323.93021131  energy(sigma->0) =     1323.92980052


--------------------------------------------------------------------------------------------------------




--------------------------------------- Iteration      1(  12)  ---------------------------------------


    POTLOK:  cpu time    0.0945: real time    0.0951
    SETDIJ:  cpu time    0.5971: real time    0.6009
    TRIAL :  cpu time    5.8927: real time    5.9397
    CORREC:  cpu time    2.7458: real time    2.7669
    CHARGE:  cpu time    0.8057: real time    0.8116
    --------------------------------------------
      LOOP:  cpu time   10.1447: real time   10.2238

 eigenvalue-minimisations  :     0
 total energy-change (2. order) :-0.3051757E+01  (-0.1320000E+01)
 number of electron      83.9999992 magnetization 
 augmentation part       11.2403932 magnetization 

 Free energy of the ion-electron system (eV)
  ---------------------------------------------------
  alpha Z        PSCENC =       404.83673589
  Ewald energy   TEWEN  =     -4822.92631279
  -Hartree energ DENC   =     -1995.14444205
  -exchange      EXHF   =         0.00000000
  -V(xc)+E(xc)   XCENC  =       353.02531684
  PAW double counting   =  21912147.33726673-21912113.52745847
  entropy T*S    EENTRO =        -0.00135492
  eigenvalues    EBANDS =      -798.79737584
  atomic energy  EATOM  =      8146.07472429
  ---------------------------------------------------
  free energy    TOTEN  =      1320.87763300 eV

  energy without entropy =     1320.87898793  energy(sigma->0) =     1320.87831047


--------------------------------------------------------------------------------------------------------




--------------------------------------- Iteration      1(  13)  ---------------------------------------


    POTLOK:  cpu time    0.0932: real time    0.0938
    SETDIJ:  cpu time    0.6153: real time    0.6190
    TRIAL :  cpu time    5.5683: real time    5.6155
    CORREC:  cpu time    2.7214: real time    2.7435
    CHARGE:  cpu time    0.8384: real time    0.8448
    --------------------------------------------
      LOOP:  cpu time    9.8396: real time    9.9746

 eigenvalue-minimisations  :     0
 total energy-change (2. order) :-0.1320902E+01  (-0.5929864E+00)
 number of electron      83.9999987 magnetization 
 augmentation part       11.2224828 magnetization 

 Free energy of the ion-electron system (eV)
  ---------------------------------------------------
  alpha Z        PSCENC =       404.83673589
  Ewald energy   TEWEN  =     -4822.92631279
  -Hartree energ DENC   =     -1969.96946193
  -exchange      EXHF   =         0.00000000
  -V(xc)+E(xc)   XCENC  =       351.58440290
  PAW double counting   =  23120720.45204466-23120688.35062287
  entropy T*S    EENTRO =        -0.00072436
  eigenvalues    EBANDS =      -822.14342407
  atomic energy  EATOM  =      8146.07472429
  ---------------------------------------------------
  free energy    TOTEN  =      1319.55673114 eV

  energy without entropy =     1319.55745550  energy(sigma->0) =     1319.55709332


--------------------------------------------------------------------------------------------------------




--------------------------------------- Iteration      1(  14)  ---------------------------------------


    POTLOK:  cpu time    0.0888: real time    0.0893
    SETDIJ:  cpu time    0.6081: real time    0.6115
    TRIAL :  cpu time    5.8485: real time    5.8968
    CORREC:  cpu time    2.7414: real time    2.7621
    CHARGE:  cpu time    0.8258: real time    0.8318
    --------------------------------------------
      LOOP:  cpu time   10.1134: real time   10.2036

 eigenvalue-minimisations  :     0
 total energy-change (2. order) :-0.5917082E+00  (-0.4365179E+00)
 number of electron      83.9999980 magnetization 
 augmentation part       11.2134780 magnetization 

 Free energy of the ion-electron system (eV)
  ---------------------------------------------------
  alpha Z        PSCENC =       404.83673589
  Ewald energy   TEWEN  =     -4822.92631279
  -Hartree energ DENC   =     -1956.87567815
  -exchange      EXHF   =         0.00000000
  -V(xc)+E(xc)   XCENC  =       351.03374131
  PAW double counting   =  23637411.16591226-23637379.96469421
  entropy T*S    EENTRO =        -0.00104502
  eigenvalues    EBANDS =      -834.37868125
  atomic energy  EATOM  =      8146.07472429
  ---------------------------------------------------
  free energy    TOTEN  =      1318.96502298 eV

  energy without entropy =     1318.96606801  energy(sigma->0) =     1318.96554550


--------------------------------------------------------------------------------------------------------




--------------------------------------- Iteration      1(  15)  ---------------------------------------


    POTLOK:  cpu time    0.0943: real time    0.0949
    SETDIJ:  cpu time    0.6108: real time    0.6145
    TRIAL :  cpu time    5.4532: real time    5.5007
    CORREC:  cpu time    2.7337: real time    2.7554
    CHARGE:  cpu time    0.7996: real time    0.8054
    --------------------------------------------
      LOOP:  cpu time    9.6960: real time    9.7759

 eigenvalue-minimisations  :     0
 total energy-change (2. order) :-0.4264182E+00  (-0.2079196E+00)
 number of electron      83.9999976 magnetization 
 augmentation part       11.2061718 magnetization 

 Free energy of the ion-electron system (eV)
  ---------------------------------------------------
  alpha Z        PSCENC =       404.83673589
  Ewald energy   TEWEN  =     -4822.92631279
  -Hartree energ DENC   =     -1960.65517586
  -exchange      EXHF   =         0.00000000
  -V(xc)+E(xc)   XCENC  =       351.27623695
  PAW double counting   =  23751992.93109817-23751962.18642485
  entropy T*S    EENTRO =        -0.00055681
  eigenvalues    EBANDS =      -830.81123198
  atomic energy  EATOM  =      8146.07472429
  ---------------------------------------------------
  free energy    TOTEN  =      1318.53860478 eV

  energy without entropy =     1318.53916160  energy(sigma->0) =     1318.53888319


--------------------------------------------------------------------------------------------------------




--------------------------------------- Iteration      1(  16)  ---------------------------------------


    POTLOK:  cpu time    0.0922: real time    0.0927
    SETDIJ:  cpu time    0.6131: real time    0.6165
    TRIAL :  cpu time    5.8730: real time    5.9210
    CORREC:  cpu time    2.7489: real time    2.7691
    CHARGE:  cpu time    0.8028: real time    0.8086
    --------------------------------------------
      LOOP:  cpu time   10.1387: real time   10.2173

 eigenvalue-minimisations  :     0
 total energy-change (2. order) :-0.2081425E+00  (-0.1293395E+00)
 number of electron      83.9999974 magnetization 
 augmentation part       11.2102116 magnetization 

 Free energy of the ion-electron system (eV)
  ---------------------------------------------------
  alpha Z        PSCENC =       404.83673589
  Ewald energy   TEWEN  =     -4822.92631279
  -Hartree energ DENC   =     -1968.13093515
  -exchange      EXHF   =         0.00000000
  -V(xc)+E(xc)   XCENC  =       351.56935225
  PAW double counting   =  23665251.51173419-23665220.73620525
  entropy T*S    EENTRO =        -0.00114042
  eigenvalues    EBANDS =      -823.86807428
  atomic energy  EATOM  =      8146.07472429
  ---------------------------------------------------
  free energy    TOTEN  =      1318.33046233 eV

  energy without entropy =     1318.33160275  energy(sigma->0) =     1318.33103254


--------------------------------------------------------------------------------------------------------




--------------------------------------- Iteration      1(  17)  ---------------------------------------


    POTLOK:  cpu time    0.0916: real time    0.0921
    SETDIJ:  cpu time    0.6127: real time    0.6165
    TRIAL :  cpu time    5.3854: real time    5.4299
    CORREC:  cpu time    2.7153: real time    2.7360
    CHARGE:  cpu time    0.7995: real time    0.8060
    --------------------------------------------
      LOOP:  cpu time    9.6089: real time    9.6855

 eigenvalue-minimisations  :     0
 total energy-change (2. order) :-0.1282239E+00  (-0.6581849E-01)
 number of electron      83.9999972 magnetization 
 augmentation part       11.1970702 magnetization 

 Free energy of the ion-electron system (eV)
  ---------------------------------------------------
  alpha Z        PSCENC =       404.83673589
  Ewald energy   TEWEN  =     -4822.92631279
  -Hartree energ DENC   =     -1971.09583292
  -exchange      EXHF   =         0.00000000
  -V(xc)+E(xc)   XCENC  =       351.72920574
  PAW double counting   =  23533603.47291372-23533572.19884577
  entropy T*S    EENTRO =        -0.00156506
  eigenvalues    EBANDS =      -821.68920935
  atomic energy  EATOM  =      8146.07472429
  ---------------------------------------------------
  free energy    TOTEN  =      1318.20223839 eV

  energy without entropy =     1318.20380344  energy(sigma->0) =     1318.20302092


--------------------------------------------------------------------------------------------------------




--------------------------------------- Iteration      1(  18)  ---------------------------------------


    POTLOK:  cpu time    0.0920: real time    0.0926
    SETDIJ:  cpu time    0.6109: real time    0.6145
    TRIAL :  cpu time    5.5105: real time    5.5567
    CORREC:  cpu time    2.7193: real time    2.7396
    CHARGE:  cpu time    0.8078: real time    0.8137
    --------------------------------------------
      LOOP:  cpu time    9.7444: real time    9.8221

 eigenvalue-minimisations  :     0
 total energy-change (2. order) :-0.6547890E-01  (-0.3705490E-01)
 number of electron      83.9999972 magnetization 
 augmentation part       11.1876609 magnetization 

 Free energy of the ion-electron system (eV)
  ---------------------------------------------------
  alpha Z        PSCENC =       404.83673589
  Ewald energy   TEWEN  =     -4822.92631279
  -Hartree energ DENC   =     -1967.19990338
  -exchange      EXHF   =         0.00000000
  -V(xc)+E(xc)   XCENC  =       351.57530868
  PAW double counting   =  23528476.06004287-23528444.67691611
  entropy T*S    EENTRO =        -0.00192757
  eigenvalues    EBANDS =      -825.60535489
  atomic energy  EATOM  =      8146.07472429
  ---------------------------------------------------
  free energy    TOTEN  =      1318.13675949 eV

  energy without entropy =     1318.13868705  energy(sigma->0) =     1318.13772327


--------------------------------------------------------------------------------------------------------




--------------------------------------- Iteration      1(  19)  ---------------------------------------


    POTLOK:  cpu time    0.0949: real time    0.0954
    SETDIJ:  cpu time    0.6114: real time    0.6151
    TRIAL :  cpu time    5.4209: real time    5.4674
    CORREC:  cpu time    2.7006: real time    2.7213
    CHARGE:  cpu time    0.8122: real time    0.8177
    --------------------------------------------
      LOOP:  cpu time    9.6443: real time    9.7217

 eigenvalue-minimisations  :     0
 total energy-change (2. order) :-0.3704697E-01  (-0.2403061E-01)
 number of electron      83.9999972 magnetization 
 augmentation part       11.2039390 magnetization 

 Free energy of the ion-electron system (eV)
  ---------------------------------------------------
  alpha Z        PSCENC =       404.83673589
  Ewald energy   TEWEN  =     -4822.92631279
  -Hartree energ DENC   =     -1964.93721875
  -exchange      EXHF   =         0.00000000
  -V(xc)+E(xc)   XCENC  =       351.44836461
  PAW double counting   =  23511801.76964763-23511770.49061803
  entropy T*S    EENTRO =        -0.00220527
  eigenvalues    EBANDS =      -827.67368275
  atomic energy  EATOM  =      8146.07472429
  ---------------------------------------------------
  free energy    TOTEN  =      1318.09971252 eV

  energy without entropy =     1318.10191779  energy(sigma->0) =     1318.10081515


--------------------------------------------------------------------------------------------------------




--------------------------------------- Iteration      1(  20)  ---------------------------------------


    POTLOK:  cpu time    0.0927: real time    0.0934
    SETDIJ:  cpu time    0.6146: real time    0.6184
    TRIAL :  cpu time    5.8609: real time    5.9087
    CORREC:  cpu time    2.7458: real time    2.7668
    CHARGE:  cpu time    0.8111: real time    0.8168
    --------------------------------------------
      LOOP:  cpu time   10.1299: real time   10.2100

 eigenvalue-minimisations  :     0
 total energy-change (2. order) :-0.2404388E-01  (-0.1404757E-01)
 number of electron      83.9999972 magnetization 
 augmentation part       11.2170554 magnetization 

 Free energy of the ion-electron system (eV)
  ---------------------------------------------------
  alpha Z        PSCENC =       404.83673589
  Ewald energy   TEWEN  =     -4822.92631279
  -Hartree energ DENC   =     -1967.04007403
  -exchange      EXHF   =         0.00000000
  -V(xc)+E(xc)   XCENC  =       351.54800965
  PAW double counting   =  23417154.90724665-23417123.52151287
  entropy T*S    EENTRO =        -0.00235043
  eigenvalues    EBANDS =      -825.80094288
  atomic energy  EATOM  =      8146.07472429
  ---------------------------------------------------
  free energy    TOTEN  =      1318.07566864 eV

  energy without entropy =     1318.07801907  energy(sigma->0) =     1318.07684386


--------------------------------------------------------------------------------------------------------




[...]
     19      -0.5780      2.00000
     20       0.3368      2.00000
     21       0.7873      2.00000
     22       0.8263      2.00000
     23       0.8543      2.00000
     24       1.2225      2.00000
     25       1.4587      2.00000
     26       1.8098      2.00000
     27       1.9732      2.00000
     28       2.2871      2.00000
     29       3.9514      2.00000
     30       4.5373      2.00000
     31       6.0951      2.00000
     32       6.1240      2.00000
     33       6.9873      2.00000
     34       7.3077      2.00000
     35       7.6170      2.00000
     36       8.6624      2.00000
     37       8.8557      2.00000
     38       8.9081      2.00000
     39       9.0767      2.00000
     40       9.6318      2.00000
     41       9.6377      2.00000
     42      10.2148      0.00000
     43      10.3709      0.00000
     44      10.5497      0.00000
     45      10.8072      0.00000
     46      11.1845      0.00000
     47      11.4334      0.00000
     48      11.8203      0.00000
     49      12.0667      0.00000
     50      12.3232      0.00000
     51      12.8568      0.00000
     52      12.9222      0.00000
     53      13.0251      0.00000
     54      13.8108      0.00000

 k-point    52 :      -0.3750   -0.3750    0.2500
  band No.  band energies     occupation 
      1     -53.0746      2.00000
      2     -53.0734      2.00000
      3     -52.7237      2.00000
      4     -52.7229      2.00000
      5     -27.8321      2.00000
      6     -27.8305      2.00000
      7     -26.5987      2.00000
      8     -26.5972      2.00000
      9     -26.1973      2.00000
     10     -26.1780      2.00000
     11     -26.1732      2.00000
     12     -26.1669      2.00000
     13     -26.1525      2.00000
     14     -26.1488      2.00000
     15     -26.1007      2.00000
     16     -26.0731      2.00000
     17      -1.1354      2.00000
     18      -0.7213      2.00000
     19      -0.5902      2.00000
     20       0.3825      2.00000
     21       0.8469      2.00000
     22       0.8529      2.00000
     23       1.0204      2.00000
     24       1.2786      2.00000
     25       1.3923      2.00000
     26       1.7007      2.00000
     27       2.0490      2.00000
     28       2.6446      2.00000
     29       3.6207      2.00000
     30       4.3790      2.00000
     31       6.0431      2.00000
     32       6.2397      2.00000
     33       6.8718      2.00000
     34       7.2491      2.00000
     35       7.4917      2.00000
     36       8.6220      2.00000
     37       8.7645      2.00000
     38       9.0270      2.00000
     39       9.1536      2.00000
     40       9.6389      2.00000
     41       9.9638      2.00000
     42      10.1386      0.88682
     43      10.2307      0.00000
     44      10.7629      0.00000
     45      10.8085      0.00000
     46      11.2045      0.00000
     47      11.4701      0.00000
     48      11.8245      0.00000
     49      11.9846      0.00000
     50      12.6009      0.00000
     51      12.6961      0.00000
     52      13.1108      0.00000
     53      13.1299      0.00000
     54      13.4675      0.00000

 k-point    53 :      -0.2500   -0.3750    0.2500
  band No.  band energies     occupation 
      1     -53.0747      2.00000
      2     -53.0732      2.00000
      3     -52.7235      2.00000
      4     -52.7231      2.00000
      5     -27.8321      2.00000
      6     -27.8305      2.00000
      7     -26.5982      2.00000
      8     -26.5972      2.00000
      9     -26.1881      2.00000
     10     -26.1791      2.00000
     11     -26.1740      2.00000
     12     -26.1670      2.00000
     13     -26.1588      2.00000
     14     -26.1532      2.00000
     15     -26.0907      2.00000
     16     -26.0800      2.00000
     17      -1.1129      2.00000
     18      -0.7626      2.00000
     19      -0.6109      2.00000
     20       0.2504      2.00000
     21       0.7824      2.00000
     22       0.7988      2.00000
     23       1.1525      2.00000
     24       1.3127      2.00000
     25       1.5519      2.00000
     26       1.7227      2.00000
     27       2.1024      2.00000
     28       2.8461      2.00000
     29       3.6752      2.00000
     30       4.0755      2.00000
     31       6.1308      2.00000
     32       6.1322      2.00000
     33       6.8791      2.00000
     34       7.2966      2.00000
     35       7.3648      2.00000
     36       8.0893      2.00000
     37       8.8279      2.00000
     38       9.1706      2.00000
     39       9.2017      2.00000
     40       9.3856      2.00000
     41      10.0803      1.99993
     42      10.1395      0.83933
     43      10.2563      0.00000
     44      11.0223      0.00000
     45      11.1049      0.00000
     46      11.3204      0.00000
     47      11.4338      0.00000
     48      11.5872      0.00000
     49      12.2774      0.00000
     50      12.2973      0.00000
     51      12.9705      0.00000
     52      13.0270      0.00000
     53      13.1073      0.00000
     54      13.4734      0.00000

 k-point    54 :      -0.2500   -0.2500    0.2500
  band No.  band energies     occupation 
      1     -53.0750      2.00000
      2     -53.0730      2.00000
      3     -52.7236      2.00000
      4     -52.7230      2.00000
      5     -27.8321      2.00000
      6     -27.8305      2.00000
      7     -26.5977      2.00000
      8     -26.5968      2.00000
      9     -26.1772      2.00000
     10     -26.1758      2.00000
     11     -26.1756      2.00000
     12     -26.1663      2.00000
     13     -26.1661      2.00000
     14     -26.1638      2.00000
     15     -26.0884      2.00000
     16     -26.0786      2.00000
     17      -1.0726      2.00000
     18      -0.8477      2.00000
     19      -0.6120      2.00000
     20       0.1278      2.00000
     21       0.7187      2.00000
     22       0.7191      2.00000
     23       1.3556      2.00000
     24       1.3559      2.00000
     25       1.6623      2.00000
     26       1.7510      2.00000
     27       2.2165      2.00000
     28       3.3637      2.00000
     29       3.5621      2.00000
     30       3.5624      2.00000
     31       6.1412      2.00000
     32       6.1423      2.00000
     33       6.9323      2.00000
     34       7.2952      2.00000
     35       7.2955      2.00000
     36       7.5347      2.00000
     37       8.8517      2.00000
     38       9.0969      2.00000
     39       9.1632      2.00000
     40       9.5158      2.00000
     41      10.1325      1.22630
     42      10.1326      1.22285
     43      10.2202      0.00000
     44      11.1256      0.00000
     45      11.1567      0.00000
     46      11.4290      0.00000
     47      11.4292      0.00000
     48      11.5654      0.00000
     49      12.6604      0.00000
     50      12.6604      0.00000
     51      12.7748      0.00000
     52      12.8946      0.00000
     53      13.1723      0.00000
     54      13.6452      0.00000

 k-point    55 :      -0.3750    0.3750    0.3750
  band No.  band energies     occupation 
      1     -53.0746      2.00000
      2     -53.0733      2.00000
      3     -52.7240      2.00000
      4     -52.7226      2.00000
      5     -27.8321      2.00000
      6     -27.8304      2.00000
      7     -26.6001      2.00000
      8     -26.5957      2.00000
      9     -26.2076      2.00000
     10     -26.1754      2.00000
     11     -26.1720      2.00000
     12     -26.1688      2.00000
     13     -26.1478      2.00000
     14     -26.1430      2.00000
     15     -26.1096      2.00000
     16     -26.0665      2.00000
     17      -1.1014      2.00000
     18      -0.6233      2.00000
     19      -0.5870      2.00000
     20       0.5514      2.00000
     21       0.7173      2.00000
     22       0.8711      2.00000
     23       0.8797      2.00000
     24       1.1971      2.00000
     25       1.3166      2.00000
     26       1.8284      2.00000
     27       2.0335      2.00000
     28       2.1581      2.00000
     29       3.8978      2.00000
     30       4.5652      2.00000
     31       6.1363      2.00000
     32       6.1944      2.00000
     33       6.9051      2.00000
     34       7.2733      2.00000
     35       7.6516      2.00000
     36       8.7064      2.00000
     37       8.9218      2.00000
     38       9.0850      2.00000
     39       9.3352      2.00000
     40       9.4780      2.00000
     41       9.6307      2.00000
     42      10.1475      0.44166
     43      10.3704      0.00000
     44      10.5220      0.00000
     45      10.6850      0.00000
     46      11.0933      0.00000
     47      11.3887      0.00000
     48      11.6951      0.00000
     49      12.2705      0.00000
     50      12.6609      0.00000
     51      12.6823      0.00000
     52      12.8526      0.00000
     53      12.9852      0.00000
     54      14.1571      0.00000

 k-point    56 :       0.5000    0.5000    0.3750
  band No.  band energies     occupation 
      1     -53.0745      2.00000
      2     -53.0733      2.00000
      3     -52.7240      2.00000
      4     -52.7227      2.00000
      5     -27.8321      2.00000
      6     -27.8306      2.00000
      7     -26.5993      2.00000
      8     -26.5975      2.00000
      9     -26.2006      2.00000
     10     -26.1743      2.00000
     11     -26.1723      2.00000
     12     -26.1672      2.00000
     13     -26.1503      2.00000
     14     -26.1471      2.00000
     15     -26.1106      2.00000
     16     -26.0669      2.00000
     17      -1.2014      2.00000
     18      -0.7051      2.00000
     19      -0.5945      2.00000
     20       0.5949      2.00000
     21       0.8932      2.00000
     22       0.9261      2.00000
     23       0.9845      2.00000
     24       1.1452      2.00000
     25       1.2724      2.00000
     26       1.7096      2.00000
     27       2.0465      2.00000
     28       2.5837      2.00000
     29       3.5651      2.00000
     30       4.4074      2.00000
     31       6.0620      2.00000
     32       6.2931      2.00000
     33       6.8328      2.00000
     34       7.2465      2.00000
     35       7.4906      2.00000
     36       8.6536      2.00000
     37       8.9497      2.00000
     38       9.1455      2.00000
     39       9.4700      2.00000
     40       9.6126      2.00000
     41       9.8585      2.00000
     42      10.0582      2.00000
     43      10.3163      0.00000
     44      10.5374      0.00000
     45      10.6864      0.00000
     46      11.0853      0.00000
     47      11.4961      0.00000
     48      11.6259      0.00000
     49      12.1898      0.00000
     50      12.7193      0.00000
     51      12.8830      0.00000
     52      13.1683      0.00000
     53      13.3411      0.00000
     54      13.6589      0.00000

 k-point    57 :      -0.3750    0.5000    0.3750
  band No.  band energies     occupation 
      1     -53.0745      2.00000
      2     -53.0734      2.00000
      3     -52.7239      2.00000
      4     -52.7228      2.00000
      5     -27.8322      2.00000
      6     -27.8305      2.00000
      7     -26.5993      2.00000
      8     -26.5979      2.00000
      9     -26.1929      2.00000
     10     -26.1742      2.00000
     11     -26.1727      2.00000
     12     -26.1675      2.00000
     13     -26.1567      2.00000
     14     -26.1480      2.00000
     15     -26.1086      2.00000
     16     -26.0684      2.00000
     17      -1.2381      2.00000
     18      -0.7127      2.00000
     19      -0.6301      2.00000
     20       0.5767      2.00000
     21       0.8852      2.00000
     22       0.9117      2.00000
     23       1.1011      2.00000
     24       1.1734      2.00000
     25       1.2611      2.00000
     26       1.7387      2.00000
     27       2.0574      2.00000
     28       2.7615      2.00000
     29       3.6067      2.00000
     30       4.1107      2.00000
     31       6.1658      2.00000
     32       6.1932      2.00000
     33       6.7905      2.00000
     34       7.2747      2.00000
     35       7.3713      2.00000
     36       8.7833      2.00000
     37       8.8541      2.00000
     38       9.0920      2.00000
     39       9.2774      2.00000
     40       9.7362      2.00000
     41      10.0260      2.00000
     42      10.0455      2.00000
     43      10.3286      0.00000
     44      10.6785      0.00000
     45      10.7647      0.00000
     46      11.0745      0.00000
     47      11.5866      0.00000
     48      11.6624      0.00000
     49      12.0081      0.00000
     50      12.6301      0.00000
     51      12.8197      0.00000
     52      13.0549      0.00000
     53      13.2734      0.00000
     54      13.8396      0.00000

 k-point    58 :      -0.3750   -0.3750    0.3750
  band No.  band energies     occupation 
      1     -53.0746      2.00000
      2     -53.0733      2.00000
      3     -52.7237      2.00000
      4     -52.7229      2.00000
      5     -27.8322      2.00000
      6     -27.8306      2.00000
      7     -26.5989      2.00000
      8     -26.5981      2.00000
      9     -26.1813      2.00000
     10     -26.1739      2.00000
     11     -26.1737      2.00000
     12     -26.1668      2.00000
     13     -26.1666      2.00000
     14     -26.1519      2.00000
     15     -26.1017      2.00000
     16     -26.0731      2.00000
     17      -1.2411      2.00000
     18      -0.7660      2.00000
     19      -0.6386      2.00000
     20       0.4493      2.00000
     21       0.8471      2.00000
     22       0.8475      2.00000
     23       1.2894      2.00000
     24       1.2896      2.00000
     25       1.3438      2.00000
     26       1.6777      2.00000
     27       2.0993      2.00000
     28       3.4377      2.00000
     29       3.4901      2.00000
     30       3.4903      2.00000
     31       6.1851      2.00000
     32       6.1863      2.00000
     33       6.7674      2.00000
     34       7.2739      2.00000
     35       7.2742      2.00000
     36       8.5889      2.00000
     37       8.7552      2.00000
     38       9.0288      2.00000
     39       9.2818      2.00000
     40       9.6295      2.00000
     41      10.0635      2.00000
     42      10.2330      0.00000
     43      10.2331      0.00000
     44      10.9422      0.00000
     45      10.9424      0.00000
     46      11.2788      0.00000
     47      11.4564      0.00000
     48      11.7368      0.00000
     49      12.1157      0.00000
     50      12.7395      0.00000
     51      12.7397      0.00000
     52      13.1808      0.00000
     53      13.2794      0.00000
     54      13.5652      0.00000

 k-point    59 :       0.5000    0.5000    0.5000
  band No.  band energies     occupation 
      1     -53.0745      2.00000
      2     -53.0733      2.00000
      3     -52.7239      2.00000
      4     -52.7227      2.00000
      5     -27.8322      2.00000
      6     -27.8306      2.00000
      7     -26.5994      2.00000
      8     -26.5986      2.00000
      9     -26.1823      2.00000
     10     -26.1728      2.00000
     11     -26.1726      2.00000
     12     -26.1673      2.00000
     13     -26.1671      2.00000
     14     -26.1470      2.00000
     15     -26.1120      2.00000
     16     -26.0667      2.00000
     17      -1.3092      2.00000
     18      -0.7393      2.00000
     19      -0.6494      2.00000
     20       0.7712      2.00000
     21       0.9056      2.00000
     22       0.9061      2.00000
     23       1.0000      2.00000
     24       1.2591      2.00000
     25       1.2593      2.00000
     26       1.6839      2.00000
     27       2.0652      2.00000
     28       3.4317      2.00000
     29       3.4568      2.00000
     30       3.4571      2.00000
     31       6.2052      2.00000
     32       6.2064      2.00000
     33       6.7556      2.00000
     34       7.2730      2.00000
     35       7.2734      2.00000
     36       8.7385      2.00000
     37       8.8599      2.00000
     38       9.3879      2.00000
     39       9.3919      2.00000
     40       9.6832      2.00000
     41       9.9682      2.00000
     42      10.2799      0.00000
     43      10.2800      0.00000
     44      10.7402      0.00000
     45      10.7404      0.00000
     46      10.9148      0.00000
     47      11.6052      0.00000
     48      11.6212      0.00000
     49      11.9775      0.00000
     50      12.7838      0.00000
     51      12.7838      0.00000
     52      13.2702      0.00000
     53      13.5195      0.00000
     54      14.9938      0.00000


--------------------------------------------------------------------------------------------------------


 soft charge-density along one line, spin component           1
         0         1         2         3         4         5         6         7         8         9
 total charge-density along one line
 
 pseudopotential strength for first ion, spin component:           1
 10.051  15.505   0.371   0.495   0.248   0.578   0.773   0.387
 15.505  23.924   0.562   0.751   0.376   0.875   1.170   0.586
  0.371   0.562  -3.529  -0.048  -0.026  -6.367  -0.097  -0.052
  0.495   0.751  -0.048  -3.559  -0.032  -0.097  -6.427  -0.065
  0.248   0.376  -0.026  -0.032  -3.508  -0.052  -0.065  -6.324
  0.578   0.875  -6.367  -0.097  -0.052 -11.258  -0.189  -0.102
  0.773   1.170  -0.097  -6.427  -0.065  -0.189 -11.374  -0.126
  0.387   0.586  -0.052  -0.065  -6.324  -0.102  -0.126 -11.174
 total augmentation occupancy for first ion, spin component:           1
 27.857 -16.122   1.452   1.941   0.972  -0.863  -1.153  -0.577
-16.122   9.367  -0.422  -0.564  -0.282   0.104   0.139   0.070
  1.452  -0.422  11.685   4.406   2.608 -10.953  -3.411  -2.035
  1.941  -0.564   4.406  14.547   2.947  -3.411 -13.180  -2.282
  0.972  -0.282   2.608   2.947   9.531  -2.035  -2.282  -9.273
 -0.863   0.104 -10.953  -3.411  -2.035  10.558   2.627   1.580
 -1.153   0.139  -3.411 -13.180  -2.282   2.627  12.281   1.758
 -0.577   0.070  -2.035  -2.282  -9.273   1.580   1.758   9.254


------------------------ aborting loop because EDIFF is reached ----------------------------------------




--------------------------------------------------------------------------------------------------------



  FREE ENERGIE OF THE ION-ELECTRON SYSTEM (eV)
  ---------------------------------------------------
  free  energy   TOTEN  =      1318.03613286 eV

  energy  without entropy=     1318.03857954  energy(sigma->0) =     1318.03735620
 


--------------------------------------------------------------------------------------------------------


    POTLOK:  cpu time    0.7788: real time    0.7844


--------------------------------------------------------------------------------------------------------


 writing wavefunctions
     LOOP+:  cpu time  825.2809: real time  832.6315
    4ORBIT:  cpu time    0.0000: real time    0.0000

 total amount of memory used by VASP MPI-rank0   170466. kBytes
=======================================================================

   base      :      30000. kBytes
   nonl-proj :      58550. kBytes
   fftplans  :      12484. kBytes
   grid      :       9393. kBytes
   one-center:         93. kBytes
   wavefun   :      59946. kBytes
 
  
  
 General timing and accounting informations for this job:
 ========================================================
  
                  Total CPU time used (sec):      828.476
                            User time (sec):      824.926
                          System time (sec):        3.549
                         Elapsed time (sec):      836.827
  
                   Maximum memory used (kb):      388536.
                   Average memory used (kb):          N/A
  
                          Minor page faults:      1126807
                          Major page faults:           74
                 Voluntary context switches:         1172
