 vasp.6.2.0 18Jan21 (build Jan 05 2022 15:41:44) complex                        
  
 executed on             LinuxIFC date 2025.05.07  19:29:25
 running on   24 total cores
 distrk:  each k-point on   12 cores,    2 groups
 distr:  one band on NCORE=   2 cores,    6 groups


--------------------------------------------------------------------------------------------------------


 INCAR:
   SYSTEM = routine with relax: pwdword
   ICHARG = 2
   NPAR = 6
   KPAR = 2
   NCORE = 2
   ADDGRID = T
   PREC = Acc
   ENCUT = 600
   METAGGA = R2SCAN
   LASPH = .TRUE.
   LMIXTAU = .FALSE.
   ALGO = A
   EDIFF = 1E-9
   NELM = 100
   NELMIN = 6
   IALGO = 38
   LREAL = F
   NSW = 0
   ISIF = -1
   ISMEAR = 0
   SIGMA = 0.02
   SYMPREC = 1E-4

 POTCAR:    PAW_PBE B 06Sep2000                   
 POTCAR:    PAW_PBE Mo_sv 02Feb2006               
 POTCAR:    PAW_PBE Si 05Jan2001                  
 -----------------------------------------------------------------------------
|                                                                             |
|           W    W    AA    RRRRR   N    N  II  N    N   GGGG   !!!           |
|           W    W   A  A   R    R  NN   N  II  NN   N  G    G  !!!           |
|           W    W  A    A  R    R  N N  N  II  N N  N  G       !!!           |
|           W WW W  AAAAAA  RRRRR   N  N N  II  N  N N  G  GGG   !            |
|           WW  WW  A    A  R   R   N   NN  II  N   NN  G    G                |
|           W    W  A    A  R    R  N    N  II  N    N   GGGG   !!!           |
|                                                                             |
|     For optimal performance we recommend to set                             |
|       NCORE = 2 up to number-of-cores-per-socket                            |
|     NCORE specifies how many cores store one orbital (NPAR=cpu/NCORE).      |
|     This setting can greatly improve the performance of VASP for DFT.       |
|     The default, NCORE=1 might be grossly inefficient on modern             |
|     multi-core architectures or massively parallel machines. Do your        |
|     own testing! More info at https://www.vasp.at/wiki/index.php/NCORE      |
|     Unfortunately you need to use the default for GW and RPA                |
|     calculations (for HF NCORE is supported but not extensively tested      |
|     yet).                                                                   |
|                                                                             |
 -----------------------------------------------------------------------------

 POTCAR:    PAW_PBE B 06Sep2000                   
   VRHFIN =B: s2p1                                                                                  
   LEXCH  = PE                                                                                      
   EATOM  =    71.1703 eV,    5.2309 Ry                                                             
                                                                                                    
   TITEL  = PAW_PBE B 06Sep2000                                                                     
   LULTRA =        F    use ultrasoft PP ?                                                          
   IUNSCR =        1    unscreen: 0-lin 1-nonlin 2-no                                               
   RPACOR =    1.200    partial core radius                                                         
   POMASS =   10.811; ZVAL   =    3.000    mass and valenz                                          
   RCORE  =    1.700    outmost cutoff radius                                                       
   RWIGS  =    1.710; RWIGS  =    0.905    wigner-seitz radius (au A)                               
   ENMAX  =  318.614; ENMIN  =  238.960 eV                                                          
   ICORE  =        2    local potential                                                             
   LCOR   =        T    correct aug charges                                                         
   LPAW   =        T    paw PP                                                                      
   EAUG   =  535.514                                                                                
   DEXC   =    0.000                                                                                
   RMAX   =    1.732    core radius for proj-oper                                                   
   RAUG   =    1.300    factor for augmentation sphere                                              
   RDEP   =    1.757    radius for radial grids                                                     
   RDEPT  =    1.436    core radius for aug-charge                                                  
                                                                                                    
   Atomic configuration                                                                             
    4 entries                                                                                       
     n  l   j            E        occ.                                                              
     1  0  0.50      -180.5896   2.0000                                                             
     2  0  0.50        -9.4431   2.0000                                                             
     2  1  0.50        -3.6068   1.0000                                                             
     3  2  1.50        -4.0817   0.0000                                                             
   Description                                                                                      
     l       E           TYP  RCUT    TYP  RCUT                                                     
     0     -9.4430752     23  1.500                                                                 
     0      0.8675899     23  1.500                                                                 
     1     -3.6067955     23  1.700                                                                 
     1      6.1086146     23  1.700                                                                 
     2     -4.0817478      7  1.700                                                                 
  local pseudopotential read in
  partial core-charges read in
  partial kinetic energy density read in
  atomic valenz-charges read in
  non local Contribution for L=           0  read in
    real space projection operators read in
  non local Contribution for L=           0  read in
    real space projection operators read in
  non local Contribution for L=           1  read in
    real space projection operators read in
  non local Contribution for L=           1  read in
    real space projection operators read in
    PAW grid and wavefunctions read in
 
   number of l-projection  operators is LMAX  =           4
   number of lm-projection operators is LMMAX =           8
 
 POTCAR:    PAW_PBE Mo_sv 02Feb2006               
   VRHFIN =Mo: 4p5s4d                                                                               
   LEXCH  = PE                                                                                      
   EATOM  =  1862.2866 eV,  136.8742 Ry                                                             
                                                                                                    
   TITEL  = PAW_PBE Mo_sv 02Feb2006                                                                 
   LULTRA =        F    use ultrasoft PP ?                                                          
   IUNSCR =        1    unscreen: 0-lin 1-nonlin 2-no                                               
   RPACOR =    2.200    partial core radius                                                         
   POMASS =   95.940; ZVAL   =   14.000    mass and valenz                                          
   RCORE  =    2.500    outmost cutoff radius                                                       
   RWIGS  =    2.750; RWIGS  =    1.455    wigner-seitz radius (au A)                               
   ENMAX  =  242.676; ENMIN  =  182.007 eV                                                          
   ICORE  =        3    local potential                                                             
   LCOR   =        T    correct aug charges                                                         
   LPAW   =        T    paw PP                                                                      
   EAUG   =  446.014                                                                                
   DEXC   =    0.000                                                                                
   RMAX   =    2.563    core radius for proj-oper                                                   
   RAUG   =    1.300    factor for augmentation sphere                                              
   RDEP   =    2.641    radius for radial grids                                                     
   RDEPT  =    2.031    core radius for aug-charge                                                  
                                                                                                    
   Atomic configuration                                                                             
   11 entries                                                                                       
     n  l   j            E        occ.                                                              
     1  0  0.50    -19819.0341   2.0000                                                             
     2  0  0.50     -2799.0127   2.0000                                                             
     2  1  1.50     -2502.0276   6.0000                                                             
     3  0  0.50      -476.4449   2.0000                                                             
     3  1  1.50      -379.1496   6.0000                                                             
     3  2  2.50      -220.9367  10.0000                                                             
     4  0  0.50       -64.3378   2.0000                                                             
     5  0  0.50        -4.0862   1.0000                                                             
     4  1  1.50       -38.4773   6.0000                                                             
     4  2  2.50        -3.7535   5.0000                                                             
     4  3  2.50        -1.3606   0.0000                                                             
   Description                                                                                      
     l       E           TYP  RCUT    TYP  RCUT                                                     
     0    -64.3377829     23  2.100                                                                 
     0     -4.0861640     23  2.400                                                                 
     1    -38.4772993     23  2.100                                                                 
     1     13.6058260     23  2.100                                                                 
     2     -3.7534941     23  2.400                                                                 
     2     -5.1140767     23  2.400                                                                 
     3     -4.0817478     23  2.500                                                                 
  local pseudopotential read in
  partial core-charges read in
  partial kinetic energy density read in
  atomic valenz-charges read in
  non local Contribution for L=           0  read in
    real space projection operators read in
  non local Contribution for L=           0  read in
    real space projection operators read in
  non local Contribution for L=           1  read in
    real space projection operators read in
  non local Contribution for L=           1  read in
    real space projection operators read in
  non local Contribution for L=           2  read in
    real space projection operators read in
  non local Contribution for L=           2  read in
    real space projection operators read in
    PAW grid and wavefunctions read in
 
   number of l-projection  operators is LMAX  =           6
   number of lm-projection operators is LMMAX =          18
 
 POTCAR:    PAW_PBE Si 05Jan2001                  
   VRHFIN =Si: s2p2                                                                                 
   LEXCH  = PE                                                                                      
   EATOM  =   103.0669 eV,    7.5752 Ry                                                             
                                                                                                    
   TITEL  = PAW_PBE Si 05Jan2001                                                                    
   LULTRA =        F    use ultrasoft PP ?                                                          
   IUNSCR =        1    unscreen: 0-lin 1-nonlin 2-no                                               
   RPACOR =    1.500    partial core radius                                                         
   POMASS =   28.085; ZVAL   =    4.000    mass and valenz                                          
   RCORE  =    1.900    outmost cutoff radius                                                       
   RWIGS  =    2.480; RWIGS  =    1.312    wigner-seitz radius (au A)                               
   ENMAX  =  245.345; ENMIN  =  184.009 eV                                                          
   ICORE  =        2    local potential                                                             
   LCOR   =        T    correct aug charges                                                         
   LPAW   =        T    paw PP                                                                      
   EAUG   =  322.069                                                                                
   DEXC   =    0.000                                                                                
   RMAX   =    1.950    core radius for proj-oper                                                   
   RAUG   =    1.300    factor for augmentation sphere                                              
   RDEP   =    1.993    radius for radial grids                                                     
   RDEPT  =    1.837    core radius for aug-charge                                                  
                                                                                                    
   Atomic configuration                                                                             
    6 entries                                                                                       
     n  l   j            E        occ.                                                              
     1  0  0.50     -1785.8828   2.0000                                                             
     2  0  0.50      -139.4969   2.0000                                                             
     2  1  1.50       -95.5546   6.0000                                                             
     3  0  0.50       -10.8127   2.0000                                                             
     3  1  0.50        -4.0811   2.0000                                                             
     3  2  1.50        -4.0817   0.0000                                                             
   Description                                                                                      
     l       E           TYP  RCUT    TYP  RCUT                                                     
     0    -10.8127223     23  1.900                                                                 
     0     -7.6451159     23  1.900                                                                 
     1     -4.0811372     23  1.900                                                                 
     1      2.4879257     23  1.900                                                                 
     2     -4.0817478      7  1.900                                                                 
  local pseudopotential read in
  partial core-charges read in
  partial kinetic energy density read in
  atomic valenz-charges read in
  non local Contribution for L=           0  read in
    real space projection operators read in
  non local Contribution for L=           0  read in
    real space projection operators read in
  non local Contribution for L=           1  read in
    real space projection operators read in
  non local Contribution for L=           1  read in
    real space projection operators read in
    PAW grid and wavefunctions read in
 
   number of l-projection  operators is LMAX  =           4
   number of lm-projection operators is LMMAX =           8
 
  PAW_PBE B 06Sep2000                   :
 energy of atom  1       EATOM=  -71.1703
 kinetic energy error for atom=    0.0007 (will be added to EATOM!!)
  PAW_PBE Mo_sv 02Feb2006               :
 energy of atom  2       EATOM=-1862.2866
 kinetic energy error for atom=    0.0041 (will be added to EATOM!!)
  PAW_PBE Si 05Jan2001                  :
 energy of atom  3       EATOM= -103.0669
 kinetic energy error for atom=    0.0003 (will be added to EATOM!!)
 
 
 POSCAR: EA185
  positions in direct lattice
  No initial velocities read in

 METAGGA = R2SCA    LMAXTAU =  6    LMIXTAU =  F

 exchange correlation table for  LEXCH =        8
   RHO(1)=    0.500       N(1)  =     2000
   RHO(2)=  100.500       N(2)  =     4000
 


--------------------------------------------------------------------------------------------------------


 ion  position               nearest neighbor table
   1  0.091  0.591  0.161-   2 1.43   4 2.12   8 2.12  12 2.29  11 2.32   9 2.32  10 2.51
   2  0.909  0.409  0.839-   1 1.43   3 2.12   7 2.12  10 2.29   9 2.32  11 2.32  12 2.51
   3  0.591  0.430  0.500-   4 1.43   2 2.12   6 2.12  14 2.29  11 2.32   9 2.32  13 2.51
   4  0.409  0.570  0.500-   3 1.43   1 2.12   5 2.12  13 2.29   9 2.32  11 2.32  14 2.51
   5  0.430  0.930  0.839-   6 1.43   4 2.12   8 2.12  10 2.29   9 2.32  11 2.32  12 2.51
   6  0.570  0.070  0.161-   5 1.43   3 2.12   7 2.12  12 2.29  11 2.32   9 2.32  10 2.51
   7  0.930  0.091  0.500-   8 1.43   2 2.12   6 2.12  13 2.29   9 2.32  11 2.32  14 2.51
   8  0.070  0.909  0.500-   7 1.43   1 2.12   5 2.12  14 2.29  11 2.32   9 2.32  13 2.51
   9  0.250  0.250  0.000-  15 2.20  16 2.20   5 2.32   6 2.32   1 2.32   2 2.32   4 2.32   7 2.32
                             3 2.32   8 2.32  10 3.18  12 3.18  14 3.18  14 3.18  12 3.18  10 3.18
  10  0.174  0.674  0.849-   5 2.29   2 2.29  15 2.30  16 2.30   1 2.51   6 2.51  12 3.07  11 3.18
                             9 3.18   9 3.18  11 3.18  14 3.26  13 3.26  13 3.26  14 3.26
  11  0.750  0.750  0.000-  15 2.20  16 2.20   6 2.32   5 2.32   1 2.32   2 2.32   8 2.32   3 2.32
                             7 2.32   4 2.32  10 3.18  12 3.18  13 3.18  13 3.18  12 3.18  10 3.18
  12  0.826  0.326  0.151-   6 2.29   1 2.29  15 2.30  16 2.30   2 2.51   5 2.51  10 3.07   9 3.18
                            11 3.18  11 3.18   9 3.18  13 3.26  14 3.26  14 3.26  13 3.26
  13  0.674  0.826  0.500-   4 2.29   7 2.29  15 2.30  16 2.30   3 2.51   8 2.51  14 3.07  11 3.18
                            11 3.18   9 3.18   9 3.18  12 3.26  10 3.26  10 3.26  12 3.26
  14  0.326  0.174  0.500-   3 2.29   8 2.29  16 2.30  15 2.30   7 2.51   4 2.51  13 3.07   9 3.18
                             9 3.18  11 3.18  11 3.18  12 3.26  10 3.26  12 3.26  10 3.26
  15  0.000  0.000  0.000-   9 2.20  11 2.20  10 2.30  12 2.30  14 2.30  13 2.30
  16  0.500  0.500  0.000-   9 2.20  11 2.20  10 2.30  12 2.30  13 2.30  14 2.30
 
  LATTYP: Found a body centered tetragonal cell.
 ALAT       =     6.2322954717
 C/A-ratio  =     1.4108050668
  
  Lattice vectors:
  
 A1 = (   5.3951494057,   0.0000000000,  -3.1048549793)
 A2 = (  -1.8040988457,   5.0845712174,  -3.1048549793)
 A3 = (   0.0000000000,   0.0000000000,   6.2247700000)


Analysis of symmetry for initial positions (statically):
=====================================================================
 Subroutine PRICEL returns:
 Original cell was already a primitive cell.
 

 Routine SETGRP: Setting up the symmetry group for a 
 body centered tetragonal supercell.


 Subroutine GETGRP returns: Found 16 space group operations
 (whereof  8 operations were pure point group operations)
 out of a pool of 16 trial point group operations.


The static configuration has the point symmetry C_4h.
 The point group associated with its full space group is D_4h.


Analysis of symmetry for dynamics (positions and initial velocities):
=====================================================================
 Subroutine PRICEL returns:
 Original cell was already a primitive cell.
 

 Routine SETGRP: Setting up the symmetry group for a 
 body centered tetragonal supercell.


 Subroutine GETGRP returns: Found 16 space group operations
 (whereof  8 operations were pure point group operations)
 out of a pool of 16 trial point group operations.


The dynamic configuration has the point symmetry C_4h.
 The point group associated with its full space group is D_4h.


 Subroutine INISYM returns: Found 16 space group operations
 (whereof  8 operations are pure point group operations),
 and found     1 'primitive' translations


----------------------------------------------------------------------------------------

                                     Primitive cell                                     

  volume of cell :     170.7580

  direct lattice vectors                    reciprocal lattice vectors
     5.395149406  0.000000000 -3.104854979     0.185351679  0.065766165  0.000000000
    -1.804098846  5.084571217 -3.104854979     0.000000000  0.196673418  0.000000000
     0.000000000  0.000000000  6.224770000     0.092451622  0.130902322  0.160648506

  length of vectors
     6.224770000  6.224770000  6.224770000     0.196673418  0.196673418  0.226915541

  position of ions in fractional coordinates (direct lattice)
     0.091470000  0.591470000  0.161320000
     0.908530000  0.408530000  0.838680000
     0.591470000  0.430150000  0.500000000
     0.408530000  0.569850000  0.500000000
     0.430150000  0.930150000  0.838680000
     0.569850000  0.069850000  0.161320000
     0.930150000  0.091470000  0.500000000
     0.069850000  0.908530000  0.500000000
     0.250000000  0.250000000  1.000000000
     0.174250000  0.674250000  0.848500000
     0.750000000  0.750000000  1.000000000
     0.825750000  0.325750000  0.151500000
     0.674250000  0.825750000  0.500000000
     0.325750000  0.174250000  0.500000000
     0.000000000  0.000000000  0.000000000
     0.500000000  0.500000000  1.000000000

  ion indices of the primitive-cell ions
   primitive index   ion index
                 1           1
                 2           2
                 3           3
                 4           4
                 5           5
                 6           6
                 7           7
                 8           8
                 9           9
                10          10
                11          11
                12          12
                13          13
                14          14
                15          15
                16          16

----------------------------------------------------------------------------------------

 
 
 KPOINTS: EA                                      

Automatic generation of k-mesh.
 Grid dimensions read from file:
 generate k-points for:    7    7    8

 Generating k-lattice:

  Cartesian coordinates                     Fractional coordinates (reciprocal lattice)
     0.026478811  0.009395166  0.000000000     0.142857143  0.000000000  0.000000000
     0.000000000  0.028096203  0.000000000     0.000000000  0.142857143  0.000000000
     0.011556453  0.016362790  0.020081063     0.000000000 -0.000000000  0.125000000

  Length of vectors
     0.028096203  0.028096203  0.028364443

  Shift w.r.t. Gamma in fractional coordinates (k-lattice)
     0.000000000  0.000000000  0.000000000

 -----------------------------------------------------------------------------
|                                                                             |
|           W    W    AA    RRRRR   N    N  II  N    N   GGGG   !!!           |
|           W    W   A  A   R    R  NN   N  II  NN   N  G    G  !!!           |
|           W    W  A    A  R    R  N N  N  II  N N  N  G       !!!           |
|           W WW W  AAAAAA  RRRRR   N  N N  II  N  N N  G  GGG   !            |
|           WW  WW  A    A  R   R   N   NN  II  N   NN  G    G                |
|           W    W  A    A  R    R  N    N  II  N    N   GGGG   !!!           |
|                                                                             |
|     Your reciprocal lattice and k-lattice belong to different lattice       |
|     classes:                                                                |
|                                                                             |
|        The reciprocal lattice is body-centered tetragonal,                  |
|        whereas your k-lattice is base-centered monoclinic.                  |
|                                                                             |
|     Results are often still useful ...                                      |
|                                                                             |
 -----------------------------------------------------------------------------

 WARNING: IBZKPT: internal override: KBLOWUP is changed to .FALSE.
      ... skipping the blow-up phase ...

 
 Subroutine IBZKPT returns following result:
 ===========================================
 
 Found    116 irreducible k-points:
 
 Following reciprocal coordinates:
            Coordinates               Weight
  0.000000  0.000000  0.000000      1.000000
  0.142857 -0.000000  0.000000      4.000000
  0.285714  0.000000  0.000000      4.000000
  0.428571  0.000000  0.000000      4.000000
  0.142857  0.142857  0.000000      2.000000
  0.285714  0.142857  0.000000      4.000000
  0.428571  0.142857  0.000000      4.000000
 -0.428571  0.142857  0.000000      4.000000
 -0.285714  0.142857  0.000000      4.000000
 -0.142857  0.142857  0.000000      2.000000
  0.285714  0.285714  0.000000      2.000000
  0.428571  0.285714  0.000000      4.000000
 -0.428571  0.285714  0.000000      4.000000
 -0.285714  0.285714  0.000000      2.000000
  0.428571  0.428571  0.000000      2.000000
 -0.428571  0.428571  0.000000      2.000000
 -0.000000 -0.000000  0.125000      2.000000
  0.142857 -0.000000  0.125000      4.000000
  0.285714  0.000000  0.125000      4.000000
  0.428571  0.000000  0.125000      4.000000
 -0.428571 -0.000000  0.125000      4.000000
 -0.285714 -0.000000  0.125000      4.000000
 -0.142857  0.000000  0.125000      4.000000
  0.142857  0.142857  0.125000      2.000000
  0.285714  0.142857  0.125000      4.000000
  0.428571  0.142857  0.125000      4.000000
 -0.428571  0.142857  0.125000      4.000000
 -0.285714  0.142857  0.125000      4.000000
 -0.142857  0.142857  0.125000      4.000000
  0.285714  0.285714  0.125000      2.000000
  0.428571  0.285714  0.125000      4.000000
 -0.428571  0.285714  0.125000      4.000000
 -0.285714  0.285714  0.125000      4.000000
 -0.142857  0.285714  0.125000      4.000000
  0.428571  0.428571  0.125000      2.000000
 -0.428571  0.428571  0.125000      4.000000
 -0.285714  0.428571  0.125000      4.000000
 -0.142857  0.428571  0.125000      4.000000
 -0.428571 -0.428571  0.125000      2.000000
 -0.285714 -0.428571  0.125000      4.000000
 -0.142857 -0.428571  0.125000      4.000000
 -0.285714 -0.285714  0.125000      2.000000
 -0.142857 -0.285714  0.125000      4.000000
 -0.142857 -0.142857  0.125000      2.000000
 -0.000000 -0.000000  0.250000      2.000000
  0.142857 -0.000000  0.250000      4.000000
  0.285714 -0.000000  0.250000      4.000000
  0.428571  0.000000  0.250000      4.000000
 -0.428571 -0.000000  0.250000      4.000000
 -0.285714  0.000000  0.250000      4.000000
 -0.142857  0.000000  0.250000      4.000000
  0.142857  0.142857  0.250000      2.000000
  0.285714  0.142857  0.250000      4.000000
  0.428571  0.142857  0.250000      4.000000
 -0.428571  0.142857  0.250000      4.000000
 -0.285714  0.142857  0.250000      4.000000
 -0.142857  0.142857  0.250000      4.000000
  0.285714  0.285714  0.250000      2.000000
  0.428571  0.285714  0.250000      4.000000
 -0.428571  0.285714  0.250000      4.000000
 -0.285714  0.285714  0.250000      4.000000
 -0.142857  0.285714  0.250000      4.000000
  0.428571  0.428571  0.250000      2.000000
 -0.428571  0.428571  0.250000      4.000000
 -0.285714  0.428571  0.250000      4.000000
 -0.142857  0.428571  0.250000      4.000000
 -0.428571 -0.428571  0.250000      2.000000
 -0.285714 -0.428571  0.250000      4.000000
 -0.142857 -0.428571  0.250000      4.000000
 -0.285714 -0.285714  0.250000      2.000000
 -0.142857 -0.285714  0.250000      4.000000
 -0.142857 -0.142857  0.250000      2.000000
 -0.000000  0.000000  0.375000      2.000000
  0.142857  0.000000  0.375000      4.000000
  0.285714  0.000000  0.375000      4.000000
  0.428571  0.000000  0.375000      4.000000
 -0.428571  0.000000  0.375000      4.000000
 -0.285714 -0.000000  0.375000      4.000000
 -0.142857  0.000000  0.375000      4.000000
  0.142857  0.142857  0.375000      2.000000
  0.285714  0.142857  0.375000      4.000000
  0.428571  0.142857  0.375000      4.000000
 -0.428571  0.142857  0.375000      4.000000
 -0.285714  0.142857  0.375000      4.000000
 -0.142857  0.142857  0.375000      4.000000
  0.285714  0.285714  0.375000      2.000000
  0.428571  0.285714  0.375000      4.000000
 -0.428571  0.285714  0.375000      4.000000
 -0.285714  0.285714  0.375000      4.000000
 -0.142857  0.285714  0.375000      4.000000
  0.428571  0.428571  0.375000      2.000000
 -0.428571  0.428571  0.375000      4.000000
 -0.285714  0.428571  0.375000      4.000000
 -0.142857  0.428571  0.375000      4.000000
 -0.428571 -0.428571  0.375000      2.000000
 -0.285714 -0.428571  0.375000      4.000000
 -0.142857 -0.428571  0.375000      4.000000
 -0.285714 -0.285714  0.375000      2.000000
 -0.142857 -0.285714  0.375000      4.000000
 -0.142857 -0.142857  0.375000      2.000000
 -0.000000 -0.000000  0.500000      1.000000
  0.142857  0.000000  0.500000      4.000000
  0.285714  0.000000  0.500000      4.000000
  0.428571  0.000000  0.500000      4.000000
  0.142857  0.142857  0.500000      2.000000
  0.285714  0.142857  0.500000      4.000000
  0.428571  0.142857  0.500000      4.000000
 -0.428571  0.142857  0.500000      4.000000
 -0.285714  0.142857  0.500000      4.000000
 -0.142857  0.142857  0.500000      2.000000
  0.285714  0.285714  0.500000      2.000000
  0.428571  0.285714  0.500000      4.000000
 -0.428571  0.285714  0.500000      4.000000
 -0.285714  0.285714  0.500000      2.000000
  0.428571  0.428571  0.500000      2.000000
 -0.428571  0.428571  0.500000      2.000000
 
 Following cartesian coordinates:
            Coordinates               Weight
  0.000000  0.000000  0.000000      1.000000
  0.026479  0.009395  0.000000      4.000000
  0.052958  0.018790  0.000000      4.000000
  0.079436  0.028185  0.000000      4.000000
  0.026479  0.037491  0.000000      2.000000
  0.052958  0.046887  0.000000      4.000000
  0.079436  0.056282  0.000000      4.000000
 -0.079436 -0.000089  0.000000      4.000000
 -0.052958  0.009306  0.000000      4.000000
 -0.026479  0.018701  0.000000      2.000000
  0.052958  0.074983  0.000000      2.000000
  0.079436  0.084378  0.000000      4.000000
 -0.079436  0.028007  0.000000      4.000000
 -0.052958  0.037402  0.000000      2.000000
  0.079436  0.112474  0.000000      2.000000
 -0.079436  0.056103  0.000000      2.000000
  0.011556  0.016363  0.020081      2.000000
  0.038035  0.025758  0.020081      4.000000
  0.064514  0.035153  0.020081      4.000000
  0.090993  0.044548  0.020081      4.000000
 -0.067880 -0.011823  0.020081      4.000000
 -0.041401 -0.002428  0.020081      4.000000
 -0.014922  0.006968  0.020081      4.000000
  0.038035  0.053854  0.020081      2.000000
  0.064514  0.063249  0.020081      4.000000
  0.090993  0.072644  0.020081      4.000000
 -0.067880  0.016273  0.020081      4.000000
 -0.041401  0.025669  0.020081      4.000000
 -0.014922  0.035064  0.020081      4.000000
  0.064514  0.091346  0.020081      2.000000
  0.090993  0.100741  0.020081      4.000000
 -0.067880  0.044370  0.020081      4.000000
 -0.041401  0.053765  0.020081      4.000000
 -0.014922  0.063160  0.020081      4.000000
  0.090993  0.128837  0.020081      2.000000
 -0.067880  0.072466  0.020081      4.000000
 -0.041401  0.081861  0.020081      4.000000
 -0.014922  0.091256  0.020081      4.000000
 -0.067880 -0.096111  0.020081      2.000000
 -0.041401 -0.086716  0.020081      4.000000
 -0.014922 -0.077321  0.020081      4.000000
 -0.041401 -0.058620  0.020081      2.000000
 -0.014922 -0.049225  0.020081      4.000000
 -0.014922 -0.021129  0.020081      2.000000
  0.023113  0.032726  0.040162      2.000000
  0.049592  0.042121  0.040162      4.000000
  0.076071  0.051516  0.040162      4.000000
  0.102549  0.060911  0.040162      4.000000
 -0.056324  0.004540  0.040162      4.000000
 -0.029845  0.013935  0.040162      4.000000
 -0.003366  0.023330  0.040162      4.000000
  0.049592  0.070217  0.040162      2.000000
  0.076071  0.079612  0.040162      4.000000
  0.102549  0.089007  0.040162      4.000000
 -0.056324  0.032636  0.040162      4.000000
 -0.029845  0.042031  0.040162      4.000000
 -0.003366  0.051427  0.040162      4.000000
  0.076071  0.107708  0.040162      2.000000
  0.102549  0.117103  0.040162      4.000000
 -0.056324  0.060732  0.040162      4.000000
 -0.029845  0.070128  0.040162      4.000000
 -0.003366  0.079523  0.040162      4.000000
  0.102549  0.145200  0.040162      2.000000
 -0.056324  0.088829  0.040162      4.000000
 -0.029845  0.098224  0.040162      4.000000
 -0.003366  0.107619  0.040162      4.000000
 -0.056324 -0.079749  0.040162      2.000000
 -0.029845 -0.070353  0.040162      4.000000
 -0.003366 -0.060958  0.040162      4.000000
 -0.029845 -0.042257  0.040162      2.000000
 -0.003366 -0.032862  0.040162      4.000000
 -0.003366 -0.004766  0.040162      2.000000
  0.034669  0.049088  0.060243      2.000000
  0.061148  0.058484  0.060243      4.000000
  0.087627  0.067879  0.060243      4.000000
  0.114106  0.077274  0.060243      4.000000
 -0.044767  0.020903  0.060243      4.000000
 -0.018288  0.030298  0.060243      4.000000
  0.008191  0.039693  0.060243      4.000000
  0.061148  0.086580  0.060243      2.000000
  0.087627  0.095975  0.060243      4.000000
  0.114106  0.105370  0.060243      4.000000
 -0.044767  0.048999  0.060243      4.000000
 -0.018288  0.058394  0.060243      4.000000
  0.008191  0.067789  0.060243      4.000000
  0.087627  0.124071  0.060243      2.000000
  0.114106  0.133466  0.060243      4.000000
 -0.044767  0.077095  0.060243      4.000000
 -0.018288  0.086490  0.060243      4.000000
  0.008191  0.095886  0.060243      4.000000
  0.114106  0.161562  0.060243      2.000000
 -0.044767  0.105191  0.060243      4.000000
 -0.018288  0.114587  0.060243      4.000000
  0.008191  0.123982  0.060243      4.000000
 -0.044767 -0.063386  0.060243      2.000000
 -0.018288 -0.053991  0.060243      4.000000
  0.008191 -0.044595  0.060243      4.000000
 -0.018288 -0.025894  0.060243      2.000000
  0.008191 -0.016499  0.060243      4.000000
  0.008191  0.011597  0.060243      2.000000
  0.046226  0.065451  0.080324      1.000000
  0.072705  0.074846  0.080324      4.000000
  0.099183  0.084241  0.080324      4.000000
  0.125662  0.093637  0.080324      4.000000
  0.072705  0.102943  0.080324      2.000000
  0.099183  0.112338  0.080324      4.000000
  0.125662  0.121733  0.080324      4.000000
 -0.033211  0.065362  0.080324      4.000000
 -0.006732  0.074757  0.080324      4.000000
  0.019747  0.084152  0.080324      2.000000
  0.099183  0.140434  0.080324      2.000000
  0.125662  0.149829  0.080324      4.000000
 -0.033211  0.093458  0.080324      4.000000
 -0.006732  0.102853  0.080324      2.000000
  0.125662  0.177925  0.080324      2.000000
 -0.033211  0.121554  0.080324      2.000000
 


--------------------------------------------------------------------------------------------------------




 Dimension of arrays:
   k-points           NKPTS =    116   k-points in BZ     NKDIM =    116   number of bands    NBANDS=     72
   number of dos      NEDOS =    301   number of ions     NIONS =     16
   non local maximal  LDIM  =      6   non local SUM 2l+1 LMDIM =     18
   total plane-waves  NPLWV = 125000
   max r-space proj   IRMAX =      1   max aug-charges    IRDMAX= 256272
   dimension x,y,z NGX =    50 NGY =   50 NGZ =   50
   dimension x,y,z NGXF=   100 NGYF=  100 NGZF=  100
   support grid    NGXF=   200 NGYF=  200 NGZF=  200
   ions per type =               8   6   2
   NGX,Y,Z   is equivalent  to a cutoff of  13.35, 13.35, 13.35 a.u.
   NGXF,Y,Z  is equivalent  to a cutoff of  26.71, 26.71, 26.71 a.u.

 SYSTEM =  routine with relax: pwdword             
 POSCAR =  EA185                                   

 Startparameter for this run:
   NWRITE =      2    write-flag & timer
   PREC   = acc       normal or accurate (medium, high low for compatibility)
   ISTART =      0    job   : 0-new  1-cont  2-samecut
   ICHARG =      2    charge: 1-file 2-atom 10-const
   ISPIN  =      1    spin polarized calculation?
   LNONCOLLINEAR =      F non collinear calculations
   LSORBIT =      F    spin-orbit coupling
   INIWAV =      1    electr: 0-lowe 1-rand  2-diag
   LASPH  =      T    aspherical Exc in radial PAW
   METAGGA=      F    non-selfconsistent MetaGGA calc.

 Electronic Relaxation 1
   ENCUT  =  600.0 eV  44.10 Ry    6.64 a.u.  12.43 12.43 12.43*2*pi/ulx,y,z
   ENINI  =  600.0     initial cutoff
   ENAUG  =  535.5 eV  augmentation charge cutoff
   NELM   =    100;   NELMIN=  6; NELMDL= -5     # of ELM steps 
   EDIFF  = 0.1E-08   stopping-criterion for ELM
   LREAL  =      F    real-space projection
   NLSPLINE    = F    spline interpolate recip. space projectors
   LCOMPAT=      F    compatible to vasp.4.4
   GGA_COMPAT  = T    GGA compatible to vasp.4.4-vasp.4.6
   LMAXPAW     = -100 max onsite density
   LMAXMIX     =    2 max onsite mixed and CHGCAR
   VOSKOWN=      0    Vosko Wilk Nusair interpolation
   ROPT   =    0.00000   0.00000   0.00000
 Ionic relaxation
   EDIFFG = 0.1E-07   stopping-criterion for IOM
   NSW    =      0    number of steps for IOM
   NBLOCK =      1;   KBLOCK =      1    inner block; outer block 
   IBRION =     -1    ionic relax: 0-MD 1-quasi-New 2-CG
   NFREE  =      0    steps in history (QN), initial steepest desc. (CG)
   ISIF   =     -1    stress and relaxation
   IWAVPR =     10    prediction:  0-non 1-charg 2-wave 3-comb
   ISYM   =      2    0-nonsym 1-usesym 2-fastsym
   LCORR  =      T    Harris-Foulkes like correction to forces

   POTIM  = 0.5000    time-step for ionic-motion
   TEIN   =    0.0    initial temperature
   TEBEG  =    0.0;   TEEND  =   0.0 temperature during run
   SMASS  =  -3.00    Nose mass-parameter (am)
   estimated Nose-frequenzy (Omega)   =  0.10E-29 period in steps = 0.13E+47 mass=  -0.885E-27a.u.
   SCALEE = 1.0000    scale energy and forces
   NPACO  =    256;   APACO  = 16.0  distance and # of slots for P.C.
   PSTRESS=    0.0 pullay stress

  Mass of Ions in am
   POMASS =  10.81 95.94 28.09
  Ionic Valenz
   ZVAL   =   3.00 14.00  4.00
  Atomic Wigner-Seitz radii
   RWIGS  =  -1.00 -1.00 -1.00
  virtual crystal weights 
   VCA    =   1.00  1.00  1.00
   NELECT =     116.0000    total number of electrons
   NUPDOWN=      -1.0000    fix difference up-down

 DOS related values:
   EMIN   =  10.00;   EMAX   =-10.00  energy-range for DOS
   EFERMI =   0.00
   ISMEAR =     0;   SIGMA  =   0.02  broadening in eV -4-tet -1-fermi 0-gaus

 Electronic relaxation 2 (details)
   IALGO  =     58    algorithm
   LDIAG  =      T    sub-space diagonalisation (order eigenvalues)
   LSUBROT=      F    optimize rotation matrix (better conditioning)
   TURBO    =      0    0=normal 1=particle mesh
   IRESTART =      0    0=no restart 2=restart with 2 vectors
   NREBOOT  =      0    no. of reboots
   NMIN     =      0    reboot dimension
   EREF     =   0.00    reference energy to select bands
   IMIX   =      4    mixing-type and parameters
     AMIX     =   0.40;   BMIX     =  1.00
     AMIX_MAG =   1.60;   BMIX_MAG =  1.00
     AMIN     =   0.10
     WC   =   100.;   INIMIX=   1;  MIXPRE=   1;  MAXMIX= -45

 Intra band minimization:
   WEIMIN = 0.0000     energy-eigenvalue tresh-hold
   EBREAK =  0.35E-11  absolut break condition
   DEPER  =   0.30     relativ break condition  

   TIME   =   0.40     timestep for ELM

  volume/ion in A,a.u.               =      10.67        72.02
  Fermi-wavevector in a.u.,A,eV,Ry     =   1.439131  2.719564 28.179016  2.071099
  Thomas-Fermi vector in A             =   2.558021
 
 Write flags
   LWAVE        =      T    write WAVECAR
   LDOWNSAMPLE  =      F    k-point downsampling of WAVECAR
   LCHARG       =      T    write CHGCAR
   LVTOT        =      F    write LOCPOT, total local potential
   LVHAR        =      F    write LOCPOT, Hartree potential only
   LELF         =      F    write electronic localiz. function (ELF)
   LORBIT       =      0    0 simple, 1 ext, 2 COOP (PROOUT), +10 PAW based schemes


 Dipole corrections
   LMONO  =      F    monopole corrections only (constant potential shift)
   LDIPOL =      F    correct potential (dipole corrections)
   IDIPOL =      0    1-x, 2-y, 3-z, 4-all directions 
   EPSILON=  1.0000000 bulk dielectric constant

 Exchange correlation treatment:
   GGA     =    --    GGA type
   LEXCH   =     8    internal setting for exchange type
   VOSKOWN=      0    Vosko Wilk Nusair interpolation
   LHFCALC =     F    Hartree Fock is set to
   LHFONE  =     F    Hartree Fock one center treatment
   AEXX    =    0.0000 exact exchange contribution

 Linear response parameters
   LEPSILON=     F    determine dielectric tensor
   LRPA    =     F    only Hartree local field effects (RPA)
   LNABLA  =     F    use nabla operator in PAW spheres
   LVEL    =     F    velocity operator in full k-point grid
   LINTERFAST=   F  fast interpolation
   KINTER  =     0    interpolate to denser k-point grid
   CSHIFT  =0.1000    complex shift for real part using Kramers Kronig
   OMEGAMAX=  -1.0    maximum frequency
   DEG_THRESHOLD= 0.2000000E-02 threshold for treating states as degnerate
   RTIME   =   -0.100 relaxation time in fs
  (WPLASMAI=    0.000 imaginary part of plasma frequency in eV, 0.658/RTIME)
   DFIELD  = 0.0000000 0.0000000 0.0000000 field for delta impulse in time
 
 Orbital magnetization related:
   ORBITALMAG=     F  switch on orbital magnetization
   LCHIMAG   =     F  perturbation theory with respect to B field
   DQ        =  0.001000  dq finite difference perturbation B field
   LLRAUG    =     F  two centre corrections for induced B field



--------------------------------------------------------------------------------------------------------


 Static calculation
 charge density and potential will be updated during run
 non-spin polarized calculation
 Conjugate gradient for all bands (Freysoldt, et al. PRB 79, 241103 (2009))
 preconditioned conjugated gradient                                        
 perform sub-space diagonalisation
    before iterative eigenvector-optimisation
 modified Broyden-mixing scheme, WC =      100.0
 initial mixing is a Kerker type mixing with AMIX =  0.4000 and BMIX =      1.0000
 Hartree-type preconditioning will be used
 using additional bands           14
 reciprocal scheme for non local part
 use partial core corrections
 no Harris-corrections to forces 
 use gradient corrections 
 use of overlap-Matrix (Vanderbilt PP)
 Gauss-broadening in eV      SIGMA  =   0.02


--------------------------------------------------------------------------------------------------------


  energy-cutoff  :      600.00
  volume of cell :      170.76
      direct lattice vectors                 reciprocal lattice vectors
     5.395149406  0.000000000 -3.104854979     0.185351679  0.065766165  0.000000000
    -1.804098846  5.084571217 -3.104854979     0.000000000  0.196673418  0.000000000
     0.000000000  0.000000000  6.224770000     0.092451622  0.130902322  0.160648506

  length of vectors
     6.224770000  6.224770000  6.224770000     0.196673418  0.196673418  0.226915541


 
 k-points in units of 2pi/SCALE and weight: EA                                      
   0.00000000  0.00000000  0.00000000       0.003
   0.02647881  0.00939517  0.00000000       0.010
   0.05295762  0.01879033  0.00000000       0.010
   0.07943643  0.02818550  0.00000000       0.010
   0.02647881  0.03749137  0.00000000       0.005
   0.05295762  0.04688654  0.00000000       0.010
   0.07943643  0.05628170  0.00000000       0.010
  -0.07943643 -0.00008930  0.00000000       0.010
  -0.05295762  0.00930587  0.00000000       0.010
  -0.02647881  0.01870104  0.00000000       0.005
   0.05295762  0.07498274  0.00000000       0.005
   0.07943643  0.08437790  0.00000000       0.010
  -0.07943643  0.02800691  0.00000000       0.010
  -0.05295762  0.03740207  0.00000000       0.005
   0.07943643  0.11247411  0.00000000       0.005
  -0.07943643  0.05610311  0.00000000       0.005
   0.01155645  0.01636279  0.02008106       0.005
   0.03803526  0.02575796  0.02008106       0.010
   0.06451408  0.03515312  0.02008106       0.010
   0.09099289  0.04454829  0.02008106       0.010
  -0.06787998 -0.01182271  0.02008106       0.010
  -0.04140117 -0.00242754  0.02008106       0.010
  -0.01492236  0.00696762  0.02008106       0.010
   0.03803526  0.05385416  0.02008106       0.005
   0.06451408  0.06324933  0.02008106       0.010
   0.09099289  0.07264449  0.02008106       0.010
  -0.06787998  0.01627349  0.02008106       0.010
  -0.04140117  0.02566866  0.02008106       0.010
  -0.01492236  0.03506383  0.02008106       0.010
   0.06451408  0.09134553  0.02008106       0.005
   0.09099289  0.10074069  0.02008106       0.010
  -0.06787998  0.04436970  0.02008106       0.010
  -0.04140117  0.05376486  0.02008106       0.010
  -0.01492236  0.06316003  0.02008106       0.010
   0.09099289  0.12883690  0.02008106       0.005
  -0.06787998  0.07246590  0.02008106       0.010
  -0.04140117  0.08186107  0.02008106       0.010
  -0.01492236  0.09125623  0.02008106       0.010
  -0.06787998 -0.09611132  0.02008106       0.005
  -0.04140117 -0.08671615  0.02008106       0.010
  -0.01492236 -0.07732098  0.02008106       0.010
  -0.04140117 -0.05861995  0.02008106       0.005
  -0.01492236 -0.04922478  0.02008106       0.010
  -0.01492236 -0.02112858  0.02008106       0.005
   0.02311291  0.03272558  0.04016213       0.005
   0.04959172  0.04212075  0.04016213       0.010
   0.07607053  0.05151591  0.04016213       0.010
   0.10254934  0.06091108  0.04016213       0.010
  -0.05632353  0.00454008  0.04016213       0.010
  -0.02984472  0.01393525  0.04016213       0.010
  -0.00336591  0.02333041  0.04016213       0.010
   0.04959172  0.07021695  0.04016213       0.005
   0.07607053  0.07961212  0.04016213       0.010
   0.10254934  0.08900728  0.04016213       0.010
  -0.05632353  0.03263628  0.04016213       0.010
  -0.02984472  0.04203145  0.04016213       0.010
  -0.00336591  0.05142662  0.04016213       0.010
   0.07607053  0.10770832  0.04016213       0.005
   0.10254934  0.11710348  0.04016213       0.010
  -0.05632353  0.06073249  0.04016213       0.010
  -0.02984472  0.07012765  0.04016213       0.010
  -0.00336591  0.07952282  0.04016213       0.010
   0.10254934  0.14519969  0.04016213       0.005
  -0.05632353  0.08882869  0.04016213       0.010
  -0.02984472  0.09822386  0.04016213       0.010
  -0.00336591  0.10761902  0.04016213       0.010
  -0.05632353 -0.07974853  0.04016213       0.005
  -0.02984472 -0.07035336  0.04016213       0.010
  -0.00336591 -0.06095819  0.04016213       0.010
  -0.02984472 -0.04225716  0.04016213       0.005
  -0.00336591 -0.03286199  0.04016213       0.010
  -0.00336591 -0.00476579  0.04016213       0.005
   0.03466936  0.04908837  0.06024319       0.005
   0.06114817  0.05848354  0.06024319       0.010
   0.08762698  0.06787870  0.06024319       0.010
   0.11410579  0.07727387  0.06024319       0.010
  -0.04476708  0.02090287  0.06024319       0.010
  -0.01828826  0.03029804  0.06024319       0.010
   0.00819055  0.03969320  0.06024319       0.010
   0.06114817  0.08657974  0.06024319       0.005
   0.08762698  0.09597491  0.06024319       0.010
   0.11410579  0.10537007  0.06024319       0.010
  -0.04476708  0.04899907  0.06024319       0.010
  -0.01828826  0.05839424  0.06024319       0.010
   0.00819055  0.06778941  0.06024319       0.010
   0.08762698  0.12407111  0.06024319       0.005
   0.11410579  0.13346628  0.06024319       0.010
  -0.04476708  0.07709528  0.06024319       0.010
  -0.01828826  0.08649044  0.06024319       0.010
   0.00819055  0.09588561  0.06024319       0.010
   0.11410579  0.16156248  0.06024319       0.005
  -0.04476708  0.10519148  0.06024319       0.010
  -0.01828826  0.11458665  0.06024319       0.010
   0.00819055  0.12398181  0.06024319       0.010
  -0.04476708 -0.06338574  0.06024319       0.005
  -0.01828826 -0.05399057  0.06024319       0.010
   0.00819055 -0.04459540  0.06024319       0.010
  -0.01828826 -0.02589437  0.06024319       0.005
   0.00819055 -0.01649920  0.06024319       0.010
   0.00819055  0.01159700  0.06024319       0.005
   0.04622581  0.06545116  0.08032425       0.003
   0.07270462  0.07484633  0.08032425       0.010
   0.09918343  0.08424149  0.08032425       0.010
   0.12566224  0.09363666  0.08032425       0.010
   0.07270462  0.10294253  0.08032425       0.005
   0.09918343  0.11233770  0.08032425       0.010
   0.12566224  0.12173286  0.08032425       0.010
  -0.03321062  0.06536186  0.08032425       0.010
  -0.00673181  0.07475703  0.08032425       0.010
   0.01974700  0.08415220  0.08032425       0.005
   0.09918343  0.14043390  0.08032425       0.005
   0.12566224  0.14982907  0.08032425       0.010
  -0.03321062  0.09345807  0.08032425       0.010
  -0.00673181  0.10285323  0.08032425       0.005
   0.12566224  0.17792527  0.08032425       0.005
  -0.03321062  0.12155427  0.08032425       0.005
 
 k-points in reciprocal lattice and weights: EA                                      
   0.00000000  0.00000000  0.00000000       0.003
   0.14285714 -0.00000000  0.00000000       0.010
   0.28571429  0.00000000  0.00000000       0.010
   0.42857143  0.00000000  0.00000000       0.010
   0.14285714  0.14285714  0.00000000       0.005
   0.28571429  0.14285714  0.00000000       0.010
   0.42857143  0.14285714  0.00000000       0.010
  -0.42857143  0.14285714  0.00000000       0.010
  -0.28571429  0.14285714  0.00000000       0.010
  -0.14285714  0.14285714  0.00000000       0.005
   0.28571429  0.28571429  0.00000000       0.005
   0.42857143  0.28571429  0.00000000       0.010
  -0.42857143  0.28571429  0.00000000       0.010
  -0.28571429  0.28571429  0.00000000       0.005
   0.42857143  0.42857143  0.00000000       0.005
  -0.42857143  0.42857143  0.00000000       0.005
  -0.00000000 -0.00000000  0.12500000       0.005
   0.14285714 -0.00000000  0.12500000       0.010
   0.28571429  0.00000000  0.12500000       0.010
   0.42857143  0.00000000  0.12500000       0.010
  -0.42857143 -0.00000000  0.12500000       0.010
  -0.28571429 -0.00000000  0.12500000       0.010
  -0.14285714  0.00000000  0.12500000       0.010
   0.14285714  0.14285714  0.12500000       0.005
   0.28571429  0.14285714  0.12500000       0.010
   0.42857143  0.14285714  0.12500000       0.010
  -0.42857143  0.14285714  0.12500000       0.010
  -0.28571429  0.14285714  0.12500000       0.010
  -0.14285714  0.14285714  0.12500000       0.010
   0.28571429  0.28571429  0.12500000       0.005
   0.42857143  0.28571429  0.12500000       0.010
  -0.42857143  0.28571429  0.12500000       0.010
  -0.28571429  0.28571429  0.12500000       0.010
  -0.14285714  0.28571429  0.12500000       0.010
   0.42857143  0.42857143  0.12500000       0.005
  -0.42857143  0.42857143  0.12500000       0.010
  -0.28571429  0.42857143  0.12500000       0.010
  -0.14285714  0.42857143  0.12500000       0.010
  -0.42857143 -0.42857143  0.12500000       0.005
  -0.28571429 -0.42857143  0.12500000       0.010
  -0.14285714 -0.42857143  0.12500000       0.010
  -0.28571429 -0.28571429  0.12500000       0.005
  -0.14285714 -0.28571429  0.12500000       0.010
  -0.14285714 -0.14285714  0.12500000       0.005
  -0.00000000 -0.00000000  0.25000000       0.005
   0.14285714 -0.00000000  0.25000000       0.010
   0.28571429 -0.00000000  0.25000000       0.010
   0.42857143  0.00000000  0.25000000       0.010
  -0.42857143 -0.00000000  0.25000000       0.010
  -0.28571429  0.00000000  0.25000000       0.010
  -0.14285714  0.00000000  0.25000000       0.010
   0.14285714  0.14285714  0.25000000       0.005
   0.28571429  0.14285714  0.25000000       0.010
   0.42857143  0.14285714  0.25000000       0.010
  -0.42857143  0.14285714  0.25000000       0.010
  -0.28571429  0.14285714  0.25000000       0.010
  -0.14285714  0.14285714  0.25000000       0.010
   0.28571429  0.28571429  0.25000000       0.005
   0.42857143  0.28571429  0.25000000       0.010
  -0.42857143  0.28571429  0.25000000       0.010
  -0.28571429  0.28571429  0.25000000       0.010
  -0.14285714  0.28571429  0.25000000       0.010
   0.42857143  0.42857143  0.25000000       0.005
  -0.42857143  0.42857143  0.25000000       0.010
  -0.28571429  0.42857143  0.25000000       0.010
  -0.14285714  0.42857143  0.25000000       0.010
  -0.42857143 -0.42857143  0.25000000       0.005
  -0.28571429 -0.42857143  0.25000000       0.010
  -0.14285714 -0.42857143  0.25000000       0.010
  -0.28571429 -0.28571429  0.25000000       0.005
  -0.14285714 -0.28571429  0.25000000       0.010
  -0.14285714 -0.14285714  0.25000000       0.005
  -0.00000000  0.00000000  0.37500000       0.005
   0.14285714  0.00000000  0.37500000       0.010
   0.28571429  0.00000000  0.37500000       0.010
   0.42857143  0.00000000  0.37500000       0.010
  -0.42857143  0.00000000  0.37500000       0.010
  -0.28571429 -0.00000000  0.37500000       0.010
  -0.14285714  0.00000000  0.37500000       0.010
   0.14285714  0.14285714  0.37500000       0.005
   0.28571429  0.14285714  0.37500000       0.010
   0.42857143  0.14285714  0.37500000       0.010
  -0.42857143  0.14285714  0.37500000       0.010
  -0.28571429  0.14285714  0.37500000       0.010
  -0.14285714  0.14285714  0.37500000       0.010
   0.28571429  0.28571429  0.37500000       0.005
   0.42857143  0.28571429  0.37500000       0.010
  -0.42857143  0.28571429  0.37500000       0.010
  -0.28571429  0.28571429  0.37500000       0.010
  -0.14285714  0.28571429  0.37500000       0.010
   0.42857143  0.42857143  0.37500000       0.005
  -0.42857143  0.42857143  0.37500000       0.010
  -0.28571429  0.42857143  0.37500000       0.010
  -0.14285714  0.42857143  0.37500000       0.010
  -0.42857143 -0.42857143  0.37500000       0.005
  -0.28571429 -0.42857143  0.37500000       0.010
  -0.14285714 -0.42857143  0.37500000       0.010
  -0.28571429 -0.28571429  0.37500000       0.005
  -0.14285714 -0.28571429  0.37500000       0.010
  -0.14285714 -0.14285714  0.37500000       0.005
  -0.00000000 -0.00000000  0.50000000       0.003
   0.14285714  0.00000000  0.50000000       0.010
   0.28571429  0.00000000  0.50000000       0.010
   0.42857143  0.00000000  0.50000000       0.010
   0.14285714  0.14285714  0.50000000       0.005
   0.28571429  0.14285714  0.50000000       0.010
   0.42857143  0.14285714  0.50000000       0.010
  -0.42857143  0.14285714  0.50000000       0.010
  -0.28571429  0.14285714  0.50000000       0.010
  -0.14285714  0.14285714  0.50000000       0.005
   0.28571429  0.28571429  0.50000000       0.005
   0.42857143  0.28571429  0.50000000       0.010
  -0.42857143  0.28571429  0.50000000       0.010
  -0.28571429  0.28571429  0.50000000       0.005
   0.42857143  0.42857143  0.50000000       0.005
  -0.42857143  0.42857143  0.50000000       0.005
 
 position of ions in fractional coordinates (direct lattice) 
   0.09147000  0.59147000  0.16132000
   0.90853000  0.40853000  0.83868000
   0.59147000  0.43015000  0.50000000
   0.40853000  0.56985000  0.50000000
   0.43015000  0.93015000  0.83868000
   0.56985000  0.06985000  0.16132000
   0.93015000  0.09147000  0.50000000
   0.06985000  0.90853000  0.50000000
   0.25000000  0.25000000  0.00000000
   0.17425000  0.67425000  0.84850000
   0.75000000  0.75000000  0.00000000
   0.82575000  0.32575000  0.15150000
   0.67425000  0.82575000  0.50000000
   0.32575000  0.17425000  0.50000000
   0.00000000  0.00000000  0.00000000
   0.50000000  0.50000000  0.00000000
 
 position of ions in cartesian coordinates  (Angst):
  -0.57357603  3.00737134 -1.11624976
   4.16462659  2.07719988  1.13130980
   2.41503590  2.18712831 -0.05959694
   1.17601466  2.89744291  0.07465699
   0.64264098  4.72941392  0.99705588
   2.94840958  0.35515730 -0.98199583
   4.85327730  0.46508573 -0.05959694
  -1.26222674  4.61948549  0.07465699
   0.89776264  1.27114280 -1.55242749
  -0.27630886  3.42827214  2.64724790
   2.69328792  3.81342841 -4.65728247
   3.86735942  1.65629907 -2.63218785
   2.14794486  4.19858468 -1.54489747
   1.44310570  0.88598653  1.55995751
   0.00000000  0.00000000  0.00000000
   1.79552528  2.54228561 -3.10485498
 


--------------------------------------------------------------------------------------------------------


 k-point   1 :   0.0000 0.0000 0.0000  plane waves:    5769
 k-point   2 :   0.1429-0.0000 0.0000  plane waves:    5734
 k-point   3 :   0.2857 0.0000 0.0000  plane waves:    5700
 k-point   4 :   0.4286 0.0000 0.0000  plane waves:    5681
 k-point   5 :   0.1429 0.1429 0.0000  plane waves:    5719
 k-point   6 :   0.2857 0.1429 0.0000  plane waves:    5698
 k-point   7 :   0.4286 0.1429 0.0000  plane waves:    5686
 k-point   8 :  -0.4286 0.1429 0.0000  plane waves:    5695
 k-point   9 :  -0.2857 0.1429 0.0000  plane waves:    5717
 k-point  10 :  -0.1429 0.1429 0.0000  plane waves:    5737
 k-point  11 :   0.2857 0.2857 0.0000  plane waves:    5706
 k-point  12 :   0.4286 0.2857 0.0000  plane waves:    5702
 k-point  13 :  -0.4286 0.2857 0.0000  plane waves:    5690
 k-point  14 :  -0.2857 0.2857 0.0000  plane waves:    5694
 k-point  15 :   0.4286 0.4286 0.0000  plane waves:    5702
 k-point  16 :  -0.4286 0.4286 0.0000  plane waves:    5688
 k-point  17 :  -0.0000-0.0000 0.1250  plane waves:    5733
 k-point  18 :   0.1429-0.0000 0.1250  plane waves:    5717
 k-point  19 :   0.2857 0.0000 0.1250  plane waves:    5696
 k-point  20 :   0.4286 0.0000 0.1250  plane waves:    5682
 k-point  21 :  -0.4286-0.0000 0.1250  plane waves:    5698
 k-point  22 :  -0.2857-0.0000 0.1250  plane waves:    5711
 k-point  23 :  -0.1429 0.0000 0.1250  plane waves:    5731
 k-point  24 :   0.1429 0.1429 0.1250  plane waves:    5701
 k-point  25 :   0.2857 0.1429 0.1250  plane waves:    5702
 k-point  26 :   0.4286 0.1429 0.1250  plane waves:    5702
 k-point  27 :  -0.4286 0.1429 0.1250  plane waves:    5689
 k-point  28 :  -0.2857 0.1429 0.1250  plane waves:    5714
 k-point  29 :  -0.1429 0.1429 0.1250  plane waves:    5725
 k-point  30 :   0.2857 0.2857 0.1250  plane waves:    5694
 k-point  31 :   0.4286 0.2857 0.1250  plane waves:    5684
 k-point  32 :  -0.4286 0.2857 0.1250  plane waves:    5688
 k-point  33 :  -0.2857 0.2857 0.1250  plane waves:    5692
 k-point  34 :  -0.1429 0.2857 0.1250  plane waves:    5697
 k-point  35 :   0.4286 0.4286 0.1250  plane waves:    5698
 k-point  36 :  -0.4286 0.4286 0.1250  plane waves:    5679
 k-point  37 :  -0.2857 0.4286 0.1250  plane waves:    5695
 k-point  38 :  -0.1429 0.4286 0.1250  plane waves:    5694
 k-point  39 :  -0.4286-0.4286 0.1250  plane waves:    5689
 k-point  40 :  -0.2857-0.4286 0.1250  plane waves:    5697
 k-point  41 :  -0.1429-0.4286 0.1250  plane waves:    5694
 k-point  42 :  -0.2857-0.2857 0.1250  plane waves:    5692
 k-point  43 :  -0.1429-0.2857 0.1250  plane waves:    5714
 k-point  44 :  -0.1429-0.1429 0.1250  plane waves:    5737
 k-point  45 :  -0.0000-0.0000 0.2500  plane waves:    5694
 k-point  46 :   0.1429-0.0000 0.2500  plane waves:    5687
 k-point  47 :   0.2857-0.0000 0.2500  plane waves:    5701
 k-point  48 :   0.4286 0.0000 0.2500  plane waves:    5701
 k-point  49 :  -0.4286-0.0000 0.2500  plane waves:    5706
 k-point  50 :  -0.2857 0.0000 0.2500  plane waves:    5714
 k-point  51 :  -0.1429 0.0000 0.2500  plane waves:    5714
 k-point  52 :   0.1429 0.1429 0.2500  plane waves:    5680
 k-point  53 :   0.2857 0.1429 0.2500  plane waves:    5691
 k-point  54 :   0.4286 0.1429 0.2500  plane waves:    5699
 k-point  55 :  -0.4286 0.1429 0.2500  plane waves:    5692
 k-point  56 :  -0.2857 0.1429 0.2500  plane waves:    5706
 k-point  57 :  -0.1429 0.1429 0.2500  plane waves:    5703
 k-point  58 :   0.2857 0.2857 0.2500  plane waves:    5695
 k-point  59 :   0.4286 0.2857 0.2500  plane waves:    5700
 k-point  60 :  -0.4286 0.2857 0.2500  plane waves:    5691
 k-point  61 :  -0.2857 0.2857 0.2500  plane waves:    5700
 k-point  62 :  -0.1429 0.2857 0.2500  plane waves:    5697
 k-point  63 :   0.4286 0.4286 0.2500  plane waves:    5693
 k-point  64 :  -0.4286 0.4286 0.2500  plane waves:    5689
 k-point  65 :  -0.2857 0.4286 0.2500  plane waves:    5709
 k-point  66 :  -0.1429 0.4286 0.2500  plane waves:    5697
 k-point  67 :  -0.4286-0.4286 0.2500  plane waves:    5688
 k-point  68 :  -0.2857-0.4286 0.2500  plane waves:    5691
 k-point  69 :  -0.1429-0.4286 0.2500  plane waves:    5696
 k-point  70 :  -0.2857-0.2857 0.2500  plane waves:    5702
 k-point  71 :  -0.1429-0.2857 0.2500  plane waves:    5707
 k-point  72 :  -0.1429-0.1429 0.2500  plane waves:    5725
 k-point  73 :  -0.0000 0.0000 0.3750  plane waves:    5690
 k-point  74 :   0.1429 0.0000 0.3750  plane waves:    5696
 k-point  75 :   0.2857 0.0000 0.3750  plane waves:    5709
 k-point  76 :   0.4286 0.0000 0.3750  plane waves:    5691
 k-point  77 :  -0.4286 0.0000 0.3750  plane waves:    5691
 k-point  78 :  -0.2857-0.0000 0.3750  plane waves:    5697
 k-point  79 :  -0.1429 0.0000 0.3750  plane waves:    5690
 k-point  80 :   0.1429 0.1429 0.3750  plane waves:    5699
 k-point  81 :   0.2857 0.1429 0.3750  plane waves:    5691
 k-point  82 :   0.4286 0.1429 0.3750  plane waves:    5689
 k-point  83 :  -0.4286 0.1429 0.3750  plane waves:    5694
 k-point  84 :  -0.2857 0.1429 0.3750  plane waves:    5697
 k-point  85 :  -0.1429 0.1429 0.3750  plane waves:    5680
 k-point  86 :   0.2857 0.2857 0.3750  plane waves:    5700
 k-point  87 :   0.4286 0.2857 0.3750  plane waves:    5695
 k-point  88 :  -0.4286 0.2857 0.3750  plane waves:    5705
 k-point  89 :  -0.2857 0.2857 0.3750  plane waves:    5696
 k-point  90 :  -0.1429 0.2857 0.3750  plane waves:    5692
 k-point  91 :   0.4286 0.4286 0.3750  plane waves:    5696
 k-point  92 :  -0.4286 0.4286 0.3750  plane waves:    5690
 k-point  93 :  -0.2857 0.4286 0.3750  plane waves:    5691
 k-point  94 :  -0.1429 0.4286 0.3750  plane waves:    5694
 k-point  95 :  -0.4286-0.4286 0.3750  plane waves:    5686
 k-point  96 :  -0.2857-0.4286 0.3750  plane waves:    5685
 k-point  97 :  -0.1429-0.4286 0.3750  plane waves:    5692
 k-point  98 :  -0.2857-0.2857 0.3750  plane waves:    5699
 k-point  99 :  -0.1429-0.2857 0.3750  plane waves:    5700
 k-point 100 :  -0.1429-0.1429 0.3750  plane waves:    5705
 k-point 101 :  -0.0000-0.0000 0.5000  plane waves:    5690
 k-point 102 :   0.1429 0.0000 0.5000  plane waves:    5685
 k-point 103 :   0.2857 0.0000 0.5000  plane waves:    5689
 k-point 104 :   0.4286 0.0000 0.5000  plane waves:    5681
 k-point 105 :   0.1429 0.1429 0.5000  plane waves:    5692
 k-point 106 :   0.2857 0.1429 0.5000  plane waves:    5704
 k-point 107 :   0.4286 0.1429 0.5000  plane waves:    5691
 k-point 108 :  -0.4286 0.1429 0.5000  plane waves:    5692
 k-point 109 :  -0.2857 0.1429 0.5000  plane waves:    5691
 k-point 110 :  -0.1429 0.1429 0.5000  plane waves:    5694
 k-point 111 :   0.2857 0.2857 0.5000  plane waves:    5699
 k-point 112 :   0.4286 0.2857 0.5000  plane waves:    5691
 k-point 113 :  -0.4286 0.2857 0.5000  plane waves:    5692
 k-point 114 :  -0.2857 0.2857 0.5000  plane waves:    5700
 k-point 115 :   0.4286 0.4286 0.5000  plane waves:    5688
 k-point 116 :  -0.4286 0.4286 0.5000  plane waves:    5710

 maximum and minimum number of plane-waves per node :      2887     2829

 maximum number of plane-waves:      5769
 maximum index in each direction: 
   IXMAX=   12   IYMAX=   12   IZMAX=   12
   IXMIN=  -12   IYMIN=  -12   IZMIN=  -12


 parallel 3D FFT for wavefunctions:
    minimum data exchange during FFTs selected (reduces bandwidth)
 parallel 3D FFT for charge:
    minimum data exchange during FFTs selected (reduces bandwidth)


 total amount of memory used by VASP MPI-rank0   400206. kBytes
=======================================================================

   base      :      30000. kBytes
   nonl-proj :     145362. kBytes
   fftplans  :      14375. kBytes
   grid      :      11100. kBytes
   one-center:        124. kBytes
   wavefun   :     199245. kBytes
 
     INWAV:  cpu time    0.0001: real time    0.0001
 Broyden mixing: mesh for mixing (old mesh)
   NGX = 25   NGY = 25   NGZ = 25
  (NGX  =100   NGY  =100   NGZ  =100)
  gives a total of  15625 points

 initial charge density was supplied:
 charge density of overlapping atoms calculated
 number of electron     116.0000000 magnetization 
 keeping initial charge density in first step


--------------------------------------------------------------------------------------------------------


 Maximum index for augmentation-charges        21471 (set IRDMAX)


--------------------------------------------------------------------------------------------------------


 First call to EWALD:  gamma=   0.319
 Maximum number of real-space cells 3x 3x 3
 Maximum number of reciprocal cells 3x 3x 3

    FEWALD:  cpu time    0.0025: real time    0.0025


--------------------------------------- Iteration      1(   1)  ---------------------------------------


    POTLOK:  cpu time    0.2119: real time    0.2138
    SETDIJ:  cpu time    0.6316: real time    0.6353
    TRIAL :  cpu time   23.9497: real time   24.1542
    CORREC:  cpu time    0.0024: real time    0.0024
    --------------------------------------------
      LOOP:  cpu time   24.8765: real time   25.0918

 eigenvalue-minimisations  : 16752
 total energy-change (2. order) : 0.1161616E+04  (-0.7800825E+04)
 number of electron     116.0000000 magnetization 
 augmentation part      116.0000000 magnetization 

 Free energy of the ion-electron system (eV)
  ---------------------------------------------------
  alpha Z        PSCENC =       672.58805076
  Ewald energy   TEWEN  =    -10018.70945218
  -Hartree energ DENC   =     -2381.33164027
  -exchange      EXHF   =         0.00000000
  -V(xc)+E(xc)   XCENC  =       524.24600955
  PAW double counting   =      9417.46121024    -9379.23717351
  entropy T*S    EENTRO =        -0.00098458
  eigenvalues    EBANDS =       377.41460264
  atomic energy  EATOM  =     11949.18504973
  ---------------------------------------------------
  free energy    TOTEN  =      1161.61567238 eV

  energy without entropy =     1161.61665696  energy(sigma->0) =     1161.61616467


--------------------------------------------------------------------------------------------------------




--------------------------------------- Iteration      1(   2)  ---------------------------------------


    TRIAL :  cpu time   25.2584: real time   25.4750
    CORREC:  cpu time    0.0023: real time    0.0023
    --------------------------------------------
      LOOP:  cpu time   25.2627: real time   25.4803

 eigenvalue-minimisations  : 18264
 total energy-change (2. order) :-0.1368208E+04  (-0.1329327E+04)
 number of electron     116.0000000 magnetization 
 augmentation part      116.0000000 magnetization 

 Free energy of the ion-electron system (eV)
  ---------------------------------------------------
  alpha Z        PSCENC =       672.58805076
  Ewald energy   TEWEN  =    -10018.70945218
  -Hartree energ DENC   =     -2381.33164027
  -exchange      EXHF   =         0.00000000
  -V(xc)+E(xc)   XCENC  =       524.24600955
  PAW double counting   =      9417.46121024    -9379.23717351
  entropy T*S    EENTRO =        -0.00192012
  eigenvalues    EBANDS =      -990.79264748
  atomic energy  EATOM  =     11949.18504973
  ---------------------------------------------------
  free energy    TOTEN  =      -206.59251328 eV

  energy without entropy =     -206.59059316  energy(sigma->0) =     -206.59155322


--------------------------------------------------------------------------------------------------------




--------------------------------------- Iteration      1(   3)  ---------------------------------------


    TRIAL :  cpu time   28.2256: real time   28.4656
    CORREC:  cpu time    0.0022: real time    0.0022
    --------------------------------------------
      LOOP:  cpu time   28.2290: real time   28.4706

 eigenvalue-minimisations  : 21864
 total energy-change (2. order) :-0.6602784E+02  (-0.6327936E+02)
 number of electron     116.0000000 magnetization 
 augmentation part      116.0000000 magnetization 

 Free energy of the ion-electron system (eV)
  ---------------------------------------------------
  alpha Z        PSCENC =       672.58805076
  Ewald energy   TEWEN  =    -10018.70945218
  -Hartree energ DENC   =     -2381.33164027
  -exchange      EXHF   =         0.00000000
  -V(xc)+E(xc)   XCENC  =       524.24600955
  PAW double counting   =      9417.46121024    -9379.23717351
  entropy T*S    EENTRO =        -0.00108347
  eigenvalues    EBANDS =     -1056.82132808
  atomic energy  EATOM  =     11949.18504973
  ---------------------------------------------------
  free energy    TOTEN  =      -272.62035723 eV

  energy without entropy =     -272.61927376  energy(sigma->0) =     -272.61981549


--------------------------------------------------------------------------------------------------------




--------------------------------------- Iteration      1(   4)  ---------------------------------------


    TRIAL :  cpu time   27.6937: real time   27.9335
    CORREC:  cpu time    0.0023: real time    0.0023
    --------------------------------------------
      LOOP:  cpu time   27.6995: real time   27.9403

 eigenvalue-minimisations  : 20724
 total energy-change (2. order) :-0.1506638E+01  (-0.1480394E+01)
 number of electron     116.0000000 magnetization 
 augmentation part      116.0000000 magnetization 

 Free energy of the ion-electron system (eV)
  ---------------------------------------------------
  alpha Z        PSCENC =       672.58805076
  Ewald energy   TEWEN  =    -10018.70945218
  -Hartree energ DENC   =     -2381.33164027
  -exchange      EXHF   =         0.00000000
  -V(xc)+E(xc)   XCENC  =       524.24600955
  PAW double counting   =      9417.46121024    -9379.23717351
  entropy T*S    EENTRO =        -0.00139179
  eigenvalues    EBANDS =     -1058.32765824
  atomic energy  EATOM  =     11949.18504973
  ---------------------------------------------------
  free energy    TOTEN  =      -274.12699571 eV

  energy without entropy =     -274.12560392  energy(sigma->0) =     -274.12629981


--------------------------------------------------------------------------------------------------------




--------------------------------------- Iteration      1(   5)  ---------------------------------------


    TRIAL :  cpu time   27.3954: real time   27.6292
    CORREC:  cpu time    0.0022: real time    0.0023
    CHARGE:  cpu time    2.0345: real time    2.0496
    --------------------------------------------
      LOOP:  cpu time   29.4346: real time   29.6841

 eigenvalue-minimisations  : 20340
 total energy-change (2. order) :-0.2554993E-01  (-0.2549446E-01)
 number of electron     116.0000001 magnetization 
 augmentation part       11.5288300 magnetization 

 Free energy of the ion-electron system (eV)
  ---------------------------------------------------
  alpha Z        PSCENC =       672.58805076
  Ewald energy   TEWEN  =    -10018.70945218
  -Hartree energ DENC   =     -2381.33164027
  -exchange      EXHF   =         0.00000000
  -V(xc)+E(xc)   XCENC  =       524.24600955
  PAW double counting   =      9417.46121024    -9379.23717351
  entropy T*S    EENTRO =        -0.00136433
  eigenvalues    EBANDS =     -1058.35323563
  atomic energy  EATOM  =     11949.18504973
  ---------------------------------------------------
  free energy    TOTEN  =      -274.15254564 eV

  energy without entropy =     -274.15118131  energy(sigma->0) =     -274.15186347


--------------------------------------------------------------------------------------------------------




--------------------------------------- Iteration      1(   6)  ---------------------------------------


    POTLOK:  cpu time    0.1228: real time    0.1237
    SETDIJ:  cpu time    0.6423: real time    0.6462
    TRIAL :  cpu time   18.5874: real time   18.7487
    CORREC:  cpu time    7.0281: real time    7.0825
    CHARGE:  cpu time    2.0209: real time    2.0341
    --------------------------------------------
      LOOP:  cpu time   28.4033: real time   28.6391

 eigenvalue-minimisations  :     0
 total energy-change (2. order) : 0.1039175E+03  (-0.3836452E+02)
 number of electron     116.0000001 magnetization 
 augmentation part       14.5551219 magnetization 

 Free energy of the ion-electron system (eV)
  ---------------------------------------------------
  alpha Z        PSCENC =       672.58805076
  Ewald energy   TEWEN  =    -10018.70945218
  -Hartree energ DENC   =     -1818.98231667
  -exchange      EXHF   =         0.00000000
  -V(xc)+E(xc)   XCENC  =       518.43816012
  PAW double counting   =     16763.28357412   -16776.25316707
  entropy T*S    EENTRO =        -0.00112845
  eigenvalues    EBANDS =     -1459.78357652
  atomic energy  EATOM  =     11949.18504973
  ---------------------------------------------------
  free energy    TOTEN  =      -170.23504204 eV

  energy without entropy =     -170.23391359  energy(sigma->0) =     -170.23447781


--------------------------------------------------------------------------------------------------------




--------------------------------------- Iteration      1(   7)  ---------------------------------------


    POTLOK:  cpu time    0.1179: real time    0.1187
    SETDIJ:  cpu time    0.6425: real time    0.6467
    TRIAL :  cpu time   18.8145: real time   18.9787
    CORREC:  cpu time    7.0257: real time    7.0786
    CHARGE:  cpu time    2.0318: real time    2.0456
    --------------------------------------------
      LOOP:  cpu time   28.6342: real time   28.8715

 eigenvalue-minimisations  :     0
 total energy-change (2. order) :-0.3945085E+02  (-0.6772994E+01)
 number of electron     116.0000001 magnetization 
 augmentation part       14.3184889 magnetization 

 Free energy of the ion-electron system (eV)
  ---------------------------------------------------
  alpha Z        PSCENC =       672.58805076
  Ewald energy   TEWEN  =    -10018.70945218
  -Hartree energ DENC   =     -2159.25462788
  -exchange      EXHF   =         0.00000000
  -V(xc)+E(xc)   XCENC  =       532.88040259
  PAW double counting   =     15946.47588134   -15936.89850462
  entropy T*S    EENTRO =        -0.00191929
  eigenvalues    EBANDS =     -1195.95156798
  atomic energy  EATOM  =     11949.18504973
  ---------------------------------------------------
  free energy    TOTEN  =      -209.68589669 eV

  energy without entropy =     -209.68397740  energy(sigma->0) =     -209.68493704


--------------------------------------------------------------------------------------------------------




--------------------------------------- Iteration      1(   8)  ---------------------------------------


    POTLOK:  cpu time    0.1169: real time    0.1177
    SETDIJ:  cpu time    0.6478: real time    0.6516
    TRIAL :  cpu time   18.6704: real time   18.8326
    CORREC:  cpu time    7.0333: real time    7.0872
    CHARGE:  cpu time    1.9960: real time    2.0087
    --------------------------------------------
      LOOP:  cpu time   28.4766: real time   28.7102

 eigenvalue-minimisations  :     0
 total energy-change (2. order) :-0.6786681E+01  (-0.1898501E+01)
 number of electron     116.0000001 magnetization 
 augmentation part       14.1416341 magnetization 

 Free energy of the ion-electron system (eV)
  ---------------------------------------------------
  alpha Z        PSCENC =       672.58805076
  Ewald energy   TEWEN  =    -10018.70945218
  -Hartree energ DENC   =     -2216.55665362
  -exchange      EXHF   =         0.00000000
  -V(xc)+E(xc)   XCENC  =       534.59349168
  PAW double counting   =     15846.14149615   -15831.18213478
  entropy T*S    EENTRO =        -0.00208077
  eigenvalues    EBANDS =     -1152.53050613
  atomic energy  EATOM  =     11949.18504973
  ---------------------------------------------------
  free energy    TOTEN  =      -216.47257768 eV

  energy without entropy =     -216.47049691  energy(sigma->0) =     -216.47153729


--------------------------------------------------------------------------------------------------------




--------------------------------------- Iteration      1(   9)  ---------------------------------------


    POTLOK:  cpu time    0.1124: real time    0.1130
    SETDIJ:  cpu time    0.6430: real time    0.6469
    TRIAL :  cpu time   18.5671: real time   18.7307
    CORREC:  cpu time    6.9795: real time    7.0353
    CHARGE:  cpu time    2.0311: real time    2.0453
    --------------------------------------------
      LOOP:  cpu time   28.3445: real time   28.5833

 eigenvalue-minimisations  :     0
 total energy-change (2. order) :-0.1898292E+01  (-0.6150035E+00)
 number of electron     116.0000001 magnetization 
 augmentation part       14.2332254 magnetization 

 Free energy of the ion-electron system (eV)
  ---------------------------------------------------
  alpha Z        PSCENC =       672.58805076
  Ewald energy   TEWEN  =    -10018.70945218
  -Hartree energ DENC   =     -2215.09328574
  -exchange      EXHF   =         0.00000000
  -V(xc)+E(xc)   XCENC  =       534.50091316
  PAW double counting   =     15844.37512860   -15826.32966712
  entropy T*S    EENTRO =        -0.00203249
  eigenvalues    EBANDS =     -1158.88552597
  atomic energy  EATOM  =     11949.18504973
  ---------------------------------------------------
  free energy    TOTEN  =      -218.37086953 eV

  energy without entropy =     -218.36883705  energy(sigma->0) =     -218.36985329


--------------------------------------------------------------------------------------------------------




--------------------------------------- Iteration      1(  10)  ---------------------------------------


    POTLOK:  cpu time    0.1159: real time    0.1166
    SETDIJ:  cpu time    0.6512: real time    0.6548
    TRIAL :  cpu time   18.8524: real time   19.0186
    CORREC:  cpu time    6.9772: real time    7.0303
    CHARGE:  cpu time    2.0371: real time    2.0503
    --------------------------------------------
[...]
     32       3.5138      2.00000
     33       3.7389      2.00000
     34       4.4776      2.00000
     35       4.7365      2.00000
     36       4.9315      2.00000
     37       5.2608      2.00000
     38       5.5392      2.00000
     39       5.7150      2.00000
     40       5.8098      2.00000
     41       5.9695      2.00000
     42       6.1522      2.00000
     43       6.2206      2.00000
     44       6.3130      2.00000
     45       6.3512      2.00000
     46       6.9193      2.00000
     47       7.1075      2.00000
     48       7.8441      2.00000
     49       8.6497      2.00000
     50       8.7450      2.00000
     51       8.7750      2.00000
     52       9.3798      2.00000
     53      10.1281      2.00000
     54      10.5049      2.00000
     55      10.5808      2.00000
     56      10.5836      2.00000
     57      11.3490      0.02844
     58      11.6206      0.00000
     59      11.6546      0.00000
     60      11.6632      0.00000
     61      11.7603      0.00000
     62      11.7682      0.00000
     63      12.3318      0.00000
     64      12.5616      0.00000
     65      12.5767      0.00000
     66      12.6498      0.00000
     67      12.7199      0.00000
     68      13.3297      0.00000
     69      13.4714      0.00000
     70      13.7833      0.00000
     71      14.2134      0.00000
     72      14.8556      0.00000

 k-point   111 :       0.2857    0.2857    0.5000
  band No.  band energies     occupation 
      1     -52.4552      2.00000
      2     -52.4550      2.00000
      3     -51.8561      2.00000
      4     -51.8386      2.00000
      5     -51.8304      2.00000
      6     -51.8264      2.00000
      7     -26.2649      2.00000
      8     -26.2642      2.00000
      9     -25.9521      2.00000
     10     -25.9453      2.00000
     11     -25.9341      2.00000
     12     -25.9241      2.00000
     13     -25.5275      2.00000
     14     -25.4776      2.00000
     15     -25.4524      2.00000
     16     -25.4294      2.00000
     17     -25.4158      2.00000
     18     -25.3988      2.00000
     19     -25.3988      2.00000
     20     -25.3577      2.00000
     21     -25.1832      2.00000
     22     -25.0703      2.00000
     23     -24.9499      2.00000
     24     -24.9485      2.00000
     25      -2.1108      2.00000
     26      -0.7518      2.00000
     27      -0.4962      2.00000
     28      -0.0680      2.00000
     29       0.8796      2.00000
     30       1.4530      2.00000
     31       1.9962      2.00000
     32       3.7514      2.00000
     33       4.1421      2.00000
     34       4.2691      2.00000
     35       4.5826      2.00000
     36       4.8892      2.00000
     37       5.1036      2.00000
     38       5.6694      2.00000
     39       5.6913      2.00000
     40       6.1075      2.00000
     41       6.1656      2.00000
     42       6.3766      2.00000
     43       6.3916      2.00000
     44       6.5527      2.00000
     45       7.0976      2.00000
     46       7.1181      2.00000
     47       7.3937      2.00000
     48       7.4582      2.00000
     49       8.2796      2.00000
     50       8.4564      2.00000
     51       8.6273      2.00000
     52       9.1899      2.00000
     53      10.0861      2.00000
     54      10.4974      2.00000
     55      10.6056      2.00000
     56      10.7265      2.00000
     57      10.8400      2.00000
     58      11.1142      2.00000
     59      11.2601      1.99996
     60      11.6453      0.00000
     61      11.7137      0.00000
     62      11.7281      0.00000
     63      11.9469      0.00000
     64      12.2257      0.00000
     65      12.4313      0.00000
     66      12.5814      0.00000
     67      12.8861      0.00000
     68      13.0644      0.00000
     69      13.4778      0.00000
     70      14.1002      0.00000
     71      14.2501      0.00000
     72      15.0716      0.00000

 k-point   112 :       0.4286    0.2857    0.5000
  band No.  band energies     occupation 
      1     -52.4552      2.00000
      2     -52.4547      2.00000
      3     -51.8585      2.00000
      4     -51.8369      2.00000
      5     -51.8299      2.00000
      6     -51.8266      2.00000
      7     -26.2632      2.00000
      8     -26.2473      2.00000
      9     -25.9438      2.00000
     10     -25.9426      2.00000
     11     -25.9255      2.00000
     12     -25.9205      2.00000
     13     -25.5504      2.00000
     14     -25.4799      2.00000
     15     -25.4579      2.00000
     16     -25.4441      2.00000
     17     -25.4198      2.00000
     18     -25.4069      2.00000
     19     -25.4011      2.00000
     20     -25.3472      2.00000
     21     -25.1970      2.00000
     22     -25.0572      2.00000
     23     -24.9475      2.00000
     24     -24.9460      2.00000
     25      -2.0346      2.00000
     26      -0.8140      2.00000
     27      -0.3196      2.00000
     28       0.0597      2.00000
     29       0.8527      2.00000
     30       1.2273      2.00000
     31       1.6380      2.00000
     32       3.7984      2.00000
     33       4.1308      2.00000
     34       4.4493      2.00000
     35       4.6515      2.00000
     36       5.1060      2.00000
     37       5.1674      2.00000
     38       5.5831      2.00000
     39       5.7617      2.00000
     40       6.0651      2.00000
     41       6.1515      2.00000
     42       6.2338      2.00000
     43       6.4938      2.00000
     44       6.6410      2.00000
     45       6.7991      2.00000
     46       7.0547      2.00000
     47       7.2286      2.00000
     48       7.7986      2.00000
     49       8.1767      2.00000
     50       8.5070      2.00000
     51       8.6144      2.00000
     52       9.4556      2.00000
     53       9.9514      2.00000
     54      10.3367      2.00000
     55      10.4526      2.00000
     56      10.4956      2.00000
     57      10.8347      2.00000
     58      11.2330      2.00000
     59      11.4463      0.00000
     60      11.6209      0.00000
     61      11.7622      0.00000
     62      11.9297      0.00000
     63      12.0880      0.00000
     64      12.2662      0.00000
     65      12.3915      0.00000
     66      12.5169      0.00000
     67      12.8859      0.00000
     68      13.1799      0.00000
     69      13.4304      0.00000
     70      13.9951      0.00000
     71      14.3445      0.00000
     72      14.8462      0.00000

 k-point   113 :      -0.4286    0.2857    0.5000
  band No.  band energies     occupation 
      1     -52.4555      2.00000
      2     -52.4543      2.00000
      3     -51.8587      2.00000
      4     -51.8369      2.00000
      5     -51.8299      2.00000
      6     -51.8266      2.00000
      7     -26.2638      2.00000
      8     -26.2340      2.00000
      9     -25.9368      2.00000
     10     -25.9360      2.00000
     11     -25.9262      2.00000
     12     -25.9191      2.00000
     13     -25.5609      2.00000
     14     -25.4772      2.00000
     15     -25.4591      2.00000
     16     -25.4524      2.00000
     17     -25.4241      2.00000
     18     -25.4130      2.00000
     19     -25.4039      2.00000
     20     -25.3470      2.00000
     21     -25.1970      2.00000
     22     -25.0568      2.00000
     23     -24.9471      2.00000
     24     -24.9459      2.00000
     25      -1.8700      2.00000
     26      -0.8968      2.00000
     27      -0.3945      2.00000
     28       0.1426      2.00000
     29       0.8771      2.00000
     30       1.0915      2.00000
     31       1.5699      2.00000
     32       3.7710      2.00000
     33       4.2536      2.00000
     34       4.4990      2.00000
     35       4.6302      2.00000
     36       5.2693      2.00000
     37       5.3349      2.00000
     38       5.5464      2.00000
     39       5.7756      2.00000
     40       5.9196      2.00000
     41       6.0398      2.00000
     42       6.1822      2.00000
     43       6.3673      2.00000
     44       6.4825      2.00000
     45       6.9083      2.00000
     46       6.9909      2.00000
     47       7.2086      2.00000
     48       7.8688      2.00000
     49       8.1092      2.00000
     50       8.4025      2.00000
     51       8.6107      2.00000
     52       9.5543      2.00000
     53      10.1412      2.00000
     54      10.3727      2.00000
     55      10.4285      2.00000
     56      10.5515      2.00000
     57      10.6773      2.00000
     58      11.2770      1.99630
     59      11.5227      0.00000
     60      11.7236      0.00000
     61      11.9537      0.00000
     62      11.9824      0.00000
     63      12.1453      0.00000
     64      12.2189      0.00000
     65      12.4302      0.00000
     66      12.5222      0.00000
     67      13.0488      0.00000
     68      13.1844      0.00000
     69      13.4705      0.00000
     70      13.7811      0.00000
     71      14.0769      0.00000
     72      14.4909      0.00000

 k-point   114 :      -0.2857    0.2857    0.5000
  band No.  band energies     occupation 
      1     -52.4557      2.00000
      2     -52.4541      2.00000
      3     -51.8566      2.00000
      4     -51.8386      2.00000
      5     -51.8305      2.00000
      6     -51.8264      2.00000
      7     -26.2691      2.00000
      8     -26.2320      2.00000
      9     -25.9418      2.00000
     10     -25.9383      2.00000
     11     -25.9286      2.00000
     12     -25.9149      2.00000
     13     -25.5529      2.00000
     14     -25.4666      2.00000
     15     -25.4578      2.00000
     16     -25.4498      2.00000
     17     -25.4301      2.00000
     18     -25.4107      2.00000
     19     -25.4014      2.00000
     20     -25.3566      2.00000
     21     -25.1832      2.00000
     22     -25.0695      2.00000
     23     -24.9487      2.00000
     24     -24.9484      2.00000
     25      -1.6852      2.00000
     26      -0.9877      2.00000
     27      -0.7200      2.00000
     28       0.1512      2.00000
     29       1.0234      2.00000
     30       1.0571      2.00000
     31       1.8510      2.00000
     32       3.6734      2.00000
     33       4.2971      2.00000
     34       4.4980      2.00000
     35       4.4993      2.00000
     36       5.2475      2.00000
     37       5.6173      2.00000
     38       5.6539      2.00000
     39       5.6972      2.00000
     40       5.7711      2.00000
     41       6.0989      2.00000
     42       6.1517      2.00000
     43       6.2173      2.00000
     44       6.2595      2.00000
     45       6.8128      2.00000
     46       6.9557      2.00000
     47       7.4580      2.00000
     48       7.5497      2.00000
     49       8.1626      2.00000
     50       8.3787      2.00000
     51       8.5559      2.00000
     52       9.4187      2.00000
     53      10.4625      2.00000
     54      10.5327      2.00000
     55      10.6406      2.00000
     56      10.7433      2.00000
     57      10.8490      2.00000
     58      11.2822      1.98861
     59      11.5168      0.00000
     60      11.5900      0.00000
     61      11.8223      0.00000
     62      11.9801      0.00000
     63      12.2098      0.00000
     64      12.3062      0.00000
     65      12.3778      0.00000
     66      12.5012      0.00000
     67      13.0590      0.00000
     68      13.0828      0.00000
     69      13.5935      0.00000
     70      14.1235      0.00000
     71      14.1988      0.00000
     72      14.2727      0.00000

 k-point   115 :       0.4286    0.4286    0.5000
  band No.  band energies     occupation 
      1     -52.4553      2.00000
      2     -52.4543      2.00000
      3     -51.8611      2.00000
      4     -51.8328      2.00000
      5     -51.8304      2.00000
      6     -51.8280      2.00000
      7     -26.2577      2.00000
      8     -26.2310      2.00000
      9     -25.9356      2.00000
     10     -25.9353      2.00000
     11     -25.9186      2.00000
     12     -25.9160      2.00000
     13     -25.5722      2.00000
     14     -25.4738      2.00000
     15     -25.4711      2.00000
     16     -25.4628      2.00000
     17     -25.4208      2.00000
     18     -25.4130      2.00000
     19     -25.4109      2.00000
     20     -25.3366      2.00000
     21     -25.2159      2.00000
     22     -25.0418      2.00000
     23     -24.9443      2.00000
     24     -24.9442      2.00000
     25      -2.0019      2.00000
     26      -0.4393      2.00000
     27      -0.3989      2.00000
     28       0.1307      2.00000
     29       0.7248      2.00000
     30       1.1120      2.00000
     31       1.2075      2.00000
     32       4.0639      2.00000
     33       4.2941      2.00000
     34       4.5161      2.00000
     35       4.6957      2.00000
     36       5.1763      2.00000
     37       5.1956      2.00000
     38       5.2671      2.00000
     39       5.8630      2.00000
     40       5.9753      2.00000
     41       6.0161      2.00000
     42       6.1889      2.00000
     43       6.4137      2.00000
     44       6.6919      2.00000
     45       6.8937      2.00000
     46       6.9917      2.00000
     47       6.9974      2.00000
     48       7.8422      2.00000
     49       8.1530      2.00000
     50       8.8549      2.00000
     51       8.9317      2.00000
     52       9.7708      2.00000
     53       9.8016      2.00000
     54       9.9150      2.00000
     55      10.1639      2.00000
     56      10.4815      2.00000
     57      10.5101      2.00000
     58      11.3699      0.00025
     59      11.4965      0.00000
     60      11.8704      0.00000
     61      11.9307      0.00000
     62      12.0835      0.00000
     63      12.1948      0.00000
     64      12.3163      0.00000
     65      12.4280      0.00000
     66      12.7454      0.00000
     67      13.0844      0.00000
     68      13.1197      0.00000
     69      13.5574      0.00000
     70      14.0114      0.00000
     71      14.0659      0.00000
     72      14.2731      0.00000

 k-point   116 :      -0.4286    0.4286    0.5000
  band No.  band energies     occupation 
      1     -52.4554      2.00000
      2     -52.4542      2.00000
      3     -51.8612      2.00000
      4     -51.8327      2.00000
      5     -51.8306      2.00000
      6     -51.8279      2.00000
      7     -26.2574      2.00000
      8     -26.2256      2.00000
      9     -25.9319      2.00000
     10     -25.9305      2.00000
     11     -25.9201      2.00000
     12     -25.9164      2.00000
     13     -25.5768      2.00000
     14     -25.4732      2.00000
     15     -25.4713      2.00000
     16     -25.4665      2.00000
     17     -25.4223      2.00000
     18     -25.4161      2.00000
     19     -25.4124      2.00000
     20     -25.3366      2.00000
     21     -25.2159      2.00000
     22     -25.0415      2.00000
     23     -24.9442      2.00000
     24     -24.9441      2.00000
     25      -1.9363      2.00000
     26      -0.4669      2.00000
     27      -0.4255      2.00000
     28       0.1662      2.00000
     29       0.7201      2.00000
     30       1.0640      2.00000
     31       1.1749      2.00000
     32       4.0990      2.00000
     33       4.2907      2.00000
     34       4.5064      2.00000
     35       4.8025      2.00000
     36       5.2253      2.00000
     37       5.2519      2.00000
     38       5.3283      2.00000
     39       5.5402      2.00000
     40       5.9556      2.00000
     41       5.9941      2.00000
     42       6.2382      2.00000
     43       6.3590      2.00000
     44       6.7137      2.00000
     45       6.9493      2.00000
     46       6.9791      2.00000
     47       7.0153      2.00000
     48       7.7740      2.00000
     49       8.1424      2.00000
     50       8.8331      2.00000
     51       8.9643      2.00000
     52       9.8201      2.00000
     53       9.8344      2.00000
     54       9.9367      2.00000
     55      10.1990      2.00000
     56      10.4391      2.00000
     57      10.4399      2.00000
     58      11.3935      0.00000
     59      11.4901      0.00000
     60      11.8511      0.00000
     61      11.9694      0.00000
     62      12.0095      0.00000
     63      12.3520      0.00000
     64      12.3901      0.00000
     65      12.4310      0.00000
     66      12.8336      0.00000
     67      13.1472      0.00000
     68      13.3041      0.00000
     69      13.6592      0.00000
     70      13.7351      0.00000
     71      13.8726      0.00000
     72      14.2572      0.00000


--------------------------------------------------------------------------------------------------------


 soft charge-density along one line, spin component           1
         0         1         2         3         4         5         6         7         8         9
 total charge-density along one line
 
 pseudopotential strength for first ion, spin component:           1
  5.890   8.918   0.004   0.000   0.003   0.012   0.004   0.009
  8.918  13.494   0.007   0.001   0.005   0.020   0.006   0.014
  0.004   0.007  -1.928  -0.011  -0.009  -3.202  -0.021  -0.017
  0.000   0.001  -0.011  -1.925  -0.008  -0.021  -3.198  -0.015
  0.003   0.005  -0.009  -0.008  -1.922  -0.017  -0.015  -3.191
  0.012   0.020  -3.202  -0.021  -0.017  -5.104  -0.039  -0.030
  0.004   0.006  -0.021  -3.198  -0.015  -0.039  -5.099  -0.028
  0.009   0.014  -0.017  -0.015  -3.191  -0.030  -0.028  -5.083
 total augmentation occupancy for first ion, spin component:           1
  3.679  -0.973  -0.894  -0.549  -0.631   0.290   0.182   0.205
 -0.973   0.275   0.251   0.164   0.177  -0.083  -0.054  -0.059
 -0.894   0.251   2.990   0.532   0.155  -0.797  -0.152  -0.041
 -0.549   0.164   0.532   3.008   0.376  -0.153  -0.781  -0.108
 -0.631   0.177   0.155   0.376   2.880  -0.041  -0.107  -0.768
  0.290  -0.083  -0.797  -0.153  -0.041   0.220   0.046   0.012
  0.182  -0.054  -0.152  -0.781  -0.107   0.046   0.210   0.033
  0.205  -0.059  -0.041  -0.108  -0.768   0.012   0.033   0.211


------------------------ aborting loop because EDIFF is reached ----------------------------------------




--------------------------------------------------------------------------------------------------------



  FREE ENERGIE OF THE ION-ELECTRON SYSTEM (eV)
  ---------------------------------------------------
  free  energy   TOTEN  =      -219.35192209 eV

  energy  without entropy=     -219.34952013  energy(sigma->0) =     -219.35072111
 


--------------------------------------------------------------------------------------------------------


    POTLOK:  cpu time    0.7887: real time    0.7947


--------------------------------------------------------------------------------------------------------


 writing wavefunctions
     LOOP+:  cpu time  946.7386: real time  954.6628
    4ORBIT:  cpu time    0.0000: real time    0.0000

 total amount of memory used by VASP MPI-rank0   400206. kBytes
=======================================================================

   base      :      30000. kBytes
   nonl-proj :     145362. kBytes
   fftplans  :      14375. kBytes
   grid      :      11100. kBytes
   one-center:        124. kBytes
   wavefun   :     199245. kBytes
 
  
  
 General timing and accounting informations for this job:
 ========================================================
  
                  Total CPU time used (sec):      951.967
                            User time (sec):      947.932
                          System time (sec):        4.035
                         Elapsed time (sec):      960.733
  
                   Maximum memory used (kb):      604648.
                   Average memory used (kb):          N/A
  
                          Minor page faults:      1482453
                          Major page faults:           19
                 Voluntary context switches:         1245
