 vasp.6.2.0 18Jan21 (build Jan 05 2022 15:41:44) complex                        
  
 executed on             LinuxIFC date 2025.05.07  20:22:25
 running on   24 total cores
 distrk:  each k-point on   12 cores,    2 groups
 distr:  one band on NCORE=   2 cores,    6 groups


--------------------------------------------------------------------------------------------------------


 INCAR:
   SYSTEM = routine with relax: pwdword
   ICHARG = 2
   NPAR = 6
   KPAR = 2
   NCORE = 2
   ADDGRID = T
   PREC = Acc
   ENCUT = 600
   METAGGA = R2SCAN
   LASPH = .TRUE.
   LMIXTAU = .FALSE.
   ALGO = A
   EDIFF = 1E-9
   NELM = 100
   NELMIN = 6
   IALGO = 38
   LREAL = F
   NSW = 0
   ISIF = -1
   ISMEAR = 0
   SIGMA = 0.02

 POTCAR:    PAW_PBE B 06Sep2000                   
 POTCAR:    PAW_PBE Mo_sv 02Feb2006               
 POTCAR:    PAW_PBE Si 05Jan2001                  
 -----------------------------------------------------------------------------
|                                                                             |
|           W    W    AA    RRRRR   N    N  II  N    N   GGGG   !!!           |
|           W    W   A  A   R    R  NN   N  II  NN   N  G    G  !!!           |
|           W    W  A    A  R    R  N N  N  II  N N  N  G       !!!           |
|           W WW W  AAAAAA  RRRRR   N  N N  II  N  N N  G  GGG   !            |
|           WW  WW  A    A  R   R   N   NN  II  N   NN  G    G                |
|           W    W  A    A  R    R  N    N  II  N    N   GGGG   !!!           |
|                                                                             |
|     For optimal performance we recommend to set                             |
|       NCORE = 2 up to number-of-cores-per-socket                            |
|     NCORE specifies how many cores store one orbital (NPAR=cpu/NCORE).      |
|     This setting can greatly improve the performance of VASP for DFT.       |
|     The default, NCORE=1 might be grossly inefficient on modern             |
|     multi-core architectures or massively parallel machines. Do your        |
|     own testing! More info at https://www.vasp.at/wiki/index.php/NCORE      |
|     Unfortunately you need to use the default for GW and RPA                |
|     calculations (for HF NCORE is supported but not extensively tested      |
|     yet).                                                                   |
|                                                                             |
 -----------------------------------------------------------------------------

 POTCAR:    PAW_PBE B 06Sep2000                   
   VRHFIN =B: s2p1                                                                                  
   LEXCH  = PE                                                                                      
   EATOM  =    71.1703 eV,    5.2309 Ry                                                             
                                                                                                    
   TITEL  = PAW_PBE B 06Sep2000                                                                     
   LULTRA =        F    use ultrasoft PP ?                                                          
   IUNSCR =        1    unscreen: 0-lin 1-nonlin 2-no                                               
   RPACOR =    1.200    partial core radius                                                         
   POMASS =   10.811; ZVAL   =    3.000    mass and valenz                                          
   RCORE  =    1.700    outmost cutoff radius                                                       
   RWIGS  =    1.710; RWIGS  =    0.905    wigner-seitz radius (au A)                               
   ENMAX  =  318.614; ENMIN  =  238.960 eV                                                          
   ICORE  =        2    local potential                                                             
   LCOR   =        T    correct aug charges                                                         
   LPAW   =        T    paw PP                                                                      
   EAUG   =  535.514                                                                                
   DEXC   =    0.000                                                                                
   RMAX   =    1.732    core radius for proj-oper                                                   
   RAUG   =    1.300    factor for augmentation sphere                                              
   RDEP   =    1.757    radius for radial grids                                                     
   RDEPT  =    1.436    core radius for aug-charge                                                  
                                                                                                    
   Atomic configuration                                                                             
    4 entries                                                                                       
     n  l   j            E        occ.                                                              
     1  0  0.50      -180.5896   2.0000                                                             
     2  0  0.50        -9.4431   2.0000                                                             
     2  1  0.50        -3.6068   1.0000                                                             
     3  2  1.50        -4.0817   0.0000                                                             
   Description                                                                                      
     l       E           TYP  RCUT    TYP  RCUT                                                     
     0     -9.4430752     23  1.500                                                                 
     0      0.8675899     23  1.500                                                                 
     1     -3.6067955     23  1.700                                                                 
     1      6.1086146     23  1.700                                                                 
     2     -4.0817478      7  1.700                                                                 
  local pseudopotential read in
  partial core-charges read in
  partial kinetic energy density read in
  atomic valenz-charges read in
  non local Contribution for L=           0  read in
    real space projection operators read in
  non local Contribution for L=           0  read in
    real space projection operators read in
  non local Contribution for L=           1  read in
    real space projection operators read in
  non local Contribution for L=           1  read in
    real space projection operators read in
    PAW grid and wavefunctions read in
 
   number of l-projection  operators is LMAX  =           4
   number of lm-projection operators is LMMAX =           8
 
 POTCAR:    PAW_PBE Mo_sv 02Feb2006               
   VRHFIN =Mo: 4p5s4d                                                                               
   LEXCH  = PE                                                                                      
   EATOM  =  1862.2866 eV,  136.8742 Ry                                                             
                                                                                                    
   TITEL  = PAW_PBE Mo_sv 02Feb2006                                                                 
   LULTRA =        F    use ultrasoft PP ?                                                          
   IUNSCR =        1    unscreen: 0-lin 1-nonlin 2-no                                               
   RPACOR =    2.200    partial core radius                                                         
   POMASS =   95.940; ZVAL   =   14.000    mass and valenz                                          
   RCORE  =    2.500    outmost cutoff radius                                                       
   RWIGS  =    2.750; RWIGS  =    1.455    wigner-seitz radius (au A)                               
   ENMAX  =  242.676; ENMIN  =  182.007 eV                                                          
   ICORE  =        3    local potential                                                             
   LCOR   =        T    correct aug charges                                                         
   LPAW   =        T    paw PP                                                                      
   EAUG   =  446.014                                                                                
   DEXC   =    0.000                                                                                
   RMAX   =    2.563    core radius for proj-oper                                                   
   RAUG   =    1.300    factor for augmentation sphere                                              
   RDEP   =    2.641    radius for radial grids                                                     
   RDEPT  =    2.031    core radius for aug-charge                                                  
                                                                                                    
   Atomic configuration                                                                             
   11 entries                                                                                       
     n  l   j            E        occ.                                                              
     1  0  0.50    -19819.0341   2.0000                                                             
     2  0  0.50     -2799.0127   2.0000                                                             
     2  1  1.50     -2502.0276   6.0000                                                             
     3  0  0.50      -476.4449   2.0000                                                             
     3  1  1.50      -379.1496   6.0000                                                             
     3  2  2.50      -220.9367  10.0000                                                             
     4  0  0.50       -64.3378   2.0000                                                             
     5  0  0.50        -4.0862   1.0000                                                             
     4  1  1.50       -38.4773   6.0000                                                             
     4  2  2.50        -3.7535   5.0000                                                             
     4  3  2.50        -1.3606   0.0000                                                             
   Description                                                                                      
     l       E           TYP  RCUT    TYP  RCUT                                                     
     0    -64.3377829     23  2.100                                                                 
     0     -4.0861640     23  2.400                                                                 
     1    -38.4772993     23  2.100                                                                 
     1     13.6058260     23  2.100                                                                 
     2     -3.7534941     23  2.400                                                                 
     2     -5.1140767     23  2.400                                                                 
     3     -4.0817478     23  2.500                                                                 
  local pseudopotential read in
  partial core-charges read in
  partial kinetic energy density read in
  atomic valenz-charges read in
  non local Contribution for L=           0  read in
    real space projection operators read in
  non local Contribution for L=           0  read in
    real space projection operators read in
  non local Contribution for L=           1  read in
    real space projection operators read in
  non local Contribution for L=           1  read in
    real space projection operators read in
  non local Contribution for L=           2  read in
    real space projection operators read in
  non local Contribution for L=           2  read in
    real space projection operators read in
    PAW grid and wavefunctions read in
 
   number of l-projection  operators is LMAX  =           6
   number of lm-projection operators is LMMAX =          18
 
 POTCAR:    PAW_PBE Si 05Jan2001                  
   VRHFIN =Si: s2p2                                                                                 
   LEXCH  = PE                                                                                      
   EATOM  =   103.0669 eV,    7.5752 Ry                                                             
                                                                                                    
   TITEL  = PAW_PBE Si 05Jan2001                                                                    
   LULTRA =        F    use ultrasoft PP ?                                                          
   IUNSCR =        1    unscreen: 0-lin 1-nonlin 2-no                                               
   RPACOR =    1.500    partial core radius                                                         
   POMASS =   28.085; ZVAL   =    4.000    mass and valenz                                          
   RCORE  =    1.900    outmost cutoff radius                                                       
   RWIGS  =    2.480; RWIGS  =    1.312    wigner-seitz radius (au A)                               
   ENMAX  =  245.345; ENMIN  =  184.009 eV                                                          
   ICORE  =        2    local potential                                                             
   LCOR   =        T    correct aug charges                                                         
   LPAW   =        T    paw PP                                                                      
   EAUG   =  322.069                                                                                
   DEXC   =    0.000                                                                                
   RMAX   =    1.950    core radius for proj-oper                                                   
   RAUG   =    1.300    factor for augmentation sphere                                              
   RDEP   =    1.993    radius for radial grids                                                     
   RDEPT  =    1.837    core radius for aug-charge                                                  
                                                                                                    
   Atomic configuration                                                                             
    6 entries                                                                                       
     n  l   j            E        occ.                                                              
     1  0  0.50     -1785.8828   2.0000                                                             
     2  0  0.50      -139.4969   2.0000                                                             
     2  1  1.50       -95.5546   6.0000                                                             
     3  0  0.50       -10.8127   2.0000                                                             
     3  1  0.50        -4.0811   2.0000                                                             
     3  2  1.50        -4.0817   0.0000                                                             
   Description                                                                                      
     l       E           TYP  RCUT    TYP  RCUT                                                     
     0    -10.8127223     23  1.900                                                                 
     0     -7.6451159     23  1.900                                                                 
     1     -4.0811372     23  1.900                                                                 
     1      2.4879257     23  1.900                                                                 
     2     -4.0817478      7  1.900                                                                 
  local pseudopotential read in
  partial core-charges read in
  partial kinetic energy density read in
  atomic valenz-charges read in
  non local Contribution for L=           0  read in
    real space projection operators read in
  non local Contribution for L=           0  read in
    real space projection operators read in
  non local Contribution for L=           1  read in
    real space projection operators read in
  non local Contribution for L=           1  read in
    real space projection operators read in
    PAW grid and wavefunctions read in
 
   number of l-projection  operators is LMAX  =           4
   number of lm-projection operators is LMMAX =           8
 
  PAW_PBE B 06Sep2000                   :
 energy of atom  1       EATOM=  -71.1703
 kinetic energy error for atom=    0.0007 (will be added to EATOM!!)
  PAW_PBE Mo_sv 02Feb2006               :
 energy of atom  2       EATOM=-1862.2866
 kinetic energy error for atom=    0.0041 (will be added to EATOM!!)
  PAW_PBE Si 05Jan2001                  :
 energy of atom  3       EATOM= -103.0669
 kinetic energy error for atom=    0.0003 (will be added to EATOM!!)
 
 
 POSCAR: EA217
  positions in direct lattice
  No initial velocities read in

 METAGGA = R2SCA    LMAXTAU =  6    LMIXTAU =  F

 exchange correlation table for  LEXCH =        8
   RHO(1)=    0.500       N(1)  =     2000
   RHO(2)=  100.500       N(2)  =     4000
 


--------------------------------------------------------------------------------------------------------


 ion  position               nearest neighbor table
   1  0.245  0.745  0.990-   5 2.19   8 2.27  10 2.28  12 2.28
   2  0.755  0.255  0.010-   5 2.19   8 2.27  10 2.28  12 2.28
   3  0.745  0.755  0.500-   8 2.19   5 2.27   9 2.28  11 2.28
   4  0.255  0.245  0.500-   8 2.19   5 2.27   9 2.28  11 2.28
   5  0.000  0.500  0.500-   1 2.19   2 2.19   3 2.27   4 2.27  12 3.19  12 3.19  10 3.19  10 3.19
                            11 3.19   9 3.19  11 3.19   9 3.19
   6  0.250  0.250  0.000-  11 2.23   9 2.23  12 2.23  10 2.23
   7  0.750  0.750  0.000-   9 2.23  11 2.23  12 2.23  10 2.23
   8  0.500  0.000  0.500-   3 2.19   4 2.19   2 2.27   1 2.27  10 3.19  10 3.19  12 3.19  12 3.19
                             9 3.19  11 3.19   9 3.19  11 3.19
   9  0.000  0.000  0.500-   6 2.23   7 2.23   3 2.28   4 2.28   8 3.19   5 3.19   5 3.19   8 3.19

  10  0.000  0.500  0.000-   6 2.23   7 2.23   1 2.28   2 2.28   8 3.19   8 3.19   5 3.19   5 3.19

  11  0.500  0.500  0.500-   7 2.23   6 2.23   3 2.28   4 2.28   8 3.19   5 3.19   8 3.19   5 3.19

  12  0.500  0.000  0.000-   6 2.23   7 2.23   1 2.28   2 2.28   5 3.19   5 3.19   8 3.19   8 3.19

 
  Warning from LATTYP: Got some problem with cell dimensions!
  Tried to take original basis but could not verify dimensions!
  LATTYP: Found a base centered monoclinic cell.
 ALAT       =     8.9174995302
 B/A-ratio  =     1.0000155718
 C/A-ratio  =     0.7150382097
 COS(beta)  =    -0.6992524417
  
  Lattice vectors:
  
 A1 = (   1.7737053758,  -5.1859958607,  -3.1178412822)
 A2 = (  -5.4809291025,   0.0000000000,  -3.1178412822)
 A3 = (   3.7072237267,   5.1859958607,  -0.1407674355)


Analysis of symmetry for initial positions (statically):
=====================================================================
 Subroutine PRICEL returns:
 Original cell was already a primitive cell.
 

 Routine SETGRP: Setting up the symmetry group for a 
 base centered monoclinic supercell.


 Subroutine GETGRP returns: Found  4 space group operations
 (whereof  2 operations were pure point group operations)
 out of a pool of  4 trial point group operations.


The static configuration has the point symmetry S_2 .
 The point group associated with its full space group is C_2h.


Analysis of symmetry for dynamics (positions and initial velocities):
=====================================================================
 Subroutine PRICEL returns:
 Original cell was already a primitive cell.
 

 Routine SETGRP: Setting up the symmetry group for a 
 base centered monoclinic supercell.


 Subroutine GETGRP returns: Found  4 space group operations
 (whereof  2 operations were pure point group operations)
 out of a pool of  4 trial point group operations.


The dynamic configuration has the point symmetry S_2 .
 The point group associated with its full space group is C_2h.


 Subroutine INISYM returns: Found  4 space group operations
 (whereof  2 operations are pure point group operations),
 and found     1 'primitive' translations


----------------------------------------------------------------------------------------

                                     Primitive cell                                     

  volume of cell :     181.2447

  direct lattice vectors                    reciprocal lattice vectors
     5.480929103  0.000000000 -3.258608718     0.182450818  0.062401515  0.000000000
    -1.773705376  5.185995861 -3.258608718     0.000000000  0.192826995  0.000000000
     0.000000000  0.000000000  6.376450000     0.093239315  0.130431486  0.156827075

  length of vectors
     6.376450000  6.376450000  6.376450000     0.192826995  0.192826995  0.224278117

  position of ions in fractional coordinates (direct lattice)
     0.245180000  0.745180000  0.990370000
     0.754820000  0.254820000  0.009630000
     0.745180000  0.754820000  0.500000000
     0.254820000  0.245180000  0.500000000
     1.000000000  0.500000000  0.500000000
     0.250000000  0.250000000  1.000000000
     0.750000000  0.750000000  1.000000000
     0.500000000  0.000000000  0.500000000
     0.000000000  0.000000000  0.500000000
     1.000000000  0.500000000  1.000000000
     0.500000000  0.500000000  0.500000000
     0.500000000  0.000000000  1.000000000

  ion indices of the primitive-cell ions
   primitive index   ion index
                 1           1
                 2           2
                 3           3
                 4           4
                 5           5
                 6           6
                 7           7
                 8           8
                 9           9
                10          10
                11          11
                12          12

----------------------------------------------------------------------------------------

 
 
 KPOINTS: EA                                      

Automatic generation of k-mesh.
 Grid dimensions read from file:
 generate k-points for:    7    7    8

 Generating k-lattice:

  Cartesian coordinates                     Fractional coordinates (reciprocal lattice)
     0.026064403  0.008914502  0.000000000     0.142857143 -0.000000000  0.000000000
     0.000000000  0.027546714  0.000000000     0.000000000  0.142857143  0.000000000
     0.011654914  0.016303936  0.019603384    -0.000000000 -0.000000000  0.125000000

  Length of vectors
     0.027546714  0.027546714  0.028034765

  Shift w.r.t. Gamma in fractional coordinates (k-lattice)
     0.000000000  0.000000000  0.000000000

 
 Subroutine IBZKPT returns following result:
 ===========================================
 
 Found    116 irreducible k-points:
 
 Following reciprocal coordinates:
            Coordinates               Weight
  0.000000  0.000000  0.000000      1.000000
  0.142857  0.000000  0.000000      4.000000
  0.285714  0.000000  0.000000      4.000000
  0.428571  0.000000  0.000000      4.000000
  0.142857  0.142857  0.000000      2.000000
  0.285714  0.142857  0.000000      4.000000
  0.428571  0.142857  0.000000      4.000000
 -0.428571  0.142857  0.000000      4.000000
 -0.285714  0.142857  0.000000      4.000000
 -0.142857  0.142857  0.000000      2.000000
  0.285714  0.285714  0.000000      2.000000
  0.428571  0.285714  0.000000      4.000000
 -0.428571  0.285714  0.000000      4.000000
 -0.285714  0.285714  0.000000      2.000000
  0.428571  0.428571  0.000000      2.000000
 -0.428571  0.428571  0.000000      2.000000
  0.000000  0.000000  0.125000      2.000000
  0.142857  0.000000  0.125000      4.000000
  0.285714  0.000000  0.125000      4.000000
  0.428571  0.000000  0.125000      4.000000
 -0.428571 -0.000000  0.125000      4.000000
 -0.285714  0.000000  0.125000      4.000000
 -0.142857  0.000000  0.125000      4.000000
  0.142857  0.142857  0.125000      2.000000
  0.285714  0.142857  0.125000      4.000000
  0.428571  0.142857  0.125000      4.000000
 -0.428571  0.142857  0.125000      4.000000
 -0.285714  0.142857  0.125000      4.000000
 -0.142857  0.142857  0.125000      4.000000
  0.285714  0.285714  0.125000      2.000000
  0.428571  0.285714  0.125000      4.000000
 -0.428571  0.285714  0.125000      4.000000
 -0.285714  0.285714  0.125000      4.000000
 -0.142857  0.285714  0.125000      4.000000
  0.428571  0.428571  0.125000      2.000000
 -0.428571  0.428571  0.125000      4.000000
 -0.285714  0.428571  0.125000      4.000000
 -0.142857  0.428571  0.125000      4.000000
 -0.428571 -0.428571  0.125000      2.000000
 -0.285714 -0.428571  0.125000      4.000000
 -0.142857 -0.428571  0.125000      4.000000
 -0.285714 -0.285714  0.125000      2.000000
 -0.142857 -0.285714  0.125000      4.000000
 -0.142857 -0.142857  0.125000      2.000000
  0.000000  0.000000  0.250000      2.000000
  0.142857  0.000000  0.250000      4.000000
  0.285714  0.000000  0.250000      4.000000
  0.428571  0.000000  0.250000      4.000000
 -0.428571 -0.000000  0.250000      4.000000
 -0.285714  0.000000  0.250000      4.000000
 -0.142857  0.000000  0.250000      4.000000
  0.142857  0.142857  0.250000      2.000000
  0.285714  0.142857  0.250000      4.000000
  0.428571  0.142857  0.250000      4.000000
 -0.428571  0.142857  0.250000      4.000000
 -0.285714  0.142857  0.250000      4.000000
 -0.142857  0.142857  0.250000      4.000000
  0.285714  0.285714  0.250000      2.000000
  0.428571  0.285714  0.250000      4.000000
 -0.428571  0.285714  0.250000      4.000000
 -0.285714  0.285714  0.250000      4.000000
 -0.142857  0.285714  0.250000      4.000000
  0.428571  0.428571  0.250000      2.000000
 -0.428571  0.428571  0.250000      4.000000
 -0.285714  0.428571  0.250000      4.000000
 -0.142857  0.428571  0.250000      4.000000
 -0.428571 -0.428571  0.250000      2.000000
 -0.285714 -0.428571  0.250000      4.000000
 -0.142857 -0.428571  0.250000      4.000000
 -0.285714 -0.285714  0.250000      2.000000
 -0.142857 -0.285714  0.250000      4.000000
 -0.142857 -0.142857  0.250000      2.000000
  0.000000  0.000000  0.375000      2.000000
  0.142857  0.000000  0.375000      4.000000
  0.285714  0.000000  0.375000      4.000000
  0.428571  0.000000  0.375000      4.000000
 -0.428571  0.000000  0.375000      4.000000
 -0.285714  0.000000  0.375000      4.000000
 -0.142857  0.000000  0.375000      4.000000
  0.142857  0.142857  0.375000      2.000000
  0.285714  0.142857  0.375000      4.000000
  0.428571  0.142857  0.375000      4.000000
 -0.428571  0.142857  0.375000      4.000000
 -0.285714  0.142857  0.375000      4.000000
 -0.142857  0.142857  0.375000      4.000000
  0.285714  0.285714  0.375000      2.000000
  0.428571  0.285714  0.375000      4.000000
 -0.428571  0.285714  0.375000      4.000000
 -0.285714  0.285714  0.375000      4.000000
 -0.142857  0.285714  0.375000      4.000000
  0.428571  0.428571  0.375000      2.000000
 -0.428571  0.428571  0.375000      4.000000
 -0.285714  0.428571  0.375000      4.000000
 -0.142857  0.428571  0.375000      4.000000
 -0.428571 -0.428571  0.375000      2.000000
 -0.285714 -0.428571  0.375000      4.000000
 -0.142857 -0.428571  0.375000      4.000000
 -0.285714 -0.285714  0.375000      2.000000
 -0.142857 -0.285714  0.375000      4.000000
 -0.142857 -0.142857  0.375000      2.000000
  0.000000  0.000000  0.500000      1.000000
  0.142857  0.000000  0.500000      4.000000
  0.285714  0.000000  0.500000      4.000000
  0.428571  0.000000  0.500000      4.000000
  0.142857  0.142857  0.500000      2.000000
  0.285714  0.142857  0.500000      4.000000
  0.428571  0.142857  0.500000      4.000000
 -0.428571  0.142857  0.500000      4.000000
 -0.285714  0.142857  0.500000      4.000000
 -0.142857  0.142857  0.500000      2.000000
  0.285714  0.285714  0.500000      2.000000
  0.428571  0.285714  0.500000      4.000000
 -0.428571  0.285714  0.500000      4.000000
 -0.285714  0.285714  0.500000      2.000000
  0.428571  0.428571  0.500000      2.000000
 -0.428571  0.428571  0.500000      2.000000
 
 Following cartesian coordinates:
            Coordinates               Weight
  0.000000  0.000000  0.000000      1.000000
  0.026064  0.008915  0.000000      4.000000
  0.052129  0.017829  0.000000      4.000000
  0.078193  0.026744  0.000000      4.000000
  0.026064  0.036461  0.000000      2.000000
  0.052129  0.045376  0.000000      4.000000
  0.078193  0.054290  0.000000      4.000000
 -0.078193  0.000803  0.000000      4.000000
 -0.052129  0.009718  0.000000      4.000000
 -0.026064  0.018632  0.000000      2.000000
  0.052129  0.072922  0.000000      2.000000
  0.078193  0.081837  0.000000      4.000000
 -0.078193  0.028350  0.000000      4.000000
 -0.052129  0.037264  0.000000      2.000000
  0.078193  0.109384  0.000000      2.000000
 -0.078193  0.055897  0.000000      2.000000
  0.011655  0.016304  0.019603      2.000000
  0.037719  0.025218  0.019603      4.000000
  0.063784  0.034133  0.019603      4.000000
  0.089848  0.043047  0.019603      4.000000
 -0.066538 -0.010440  0.019603      4.000000
 -0.040474 -0.001525  0.019603      4.000000
 -0.014409  0.007389  0.019603      4.000000
  0.037719  0.052765  0.019603      2.000000
  0.063784  0.061680  0.019603      4.000000
  0.089848  0.070594  0.019603      4.000000
 -0.066538  0.017107  0.019603      4.000000
 -0.040474  0.026022  0.019603      4.000000
 -0.014409  0.034936  0.019603      4.000000
  0.063784  0.089226  0.019603      2.000000
  0.089848  0.098141  0.019603      4.000000
 -0.066538  0.044654  0.019603      4.000000
 -0.040474  0.053568  0.019603      4.000000
 -0.014409  0.062483  0.019603      4.000000
  0.089848  0.125688  0.019603      2.000000
 -0.066538  0.072201  0.019603      4.000000
 -0.040474  0.081115  0.019603      4.000000
 -0.014409  0.090030  0.019603      4.000000
 -0.066538 -0.093080  0.019603      2.000000
 -0.040474 -0.084165  0.019603      4.000000
 -0.014409 -0.075251  0.019603      4.000000
 -0.040474 -0.056618  0.019603      2.000000
 -0.014409 -0.047704  0.019603      4.000000
 -0.014409 -0.020157  0.019603      2.000000
  0.023310  0.032608  0.039207      2.000000
  0.049374  0.041522  0.039207      4.000000
  0.075439  0.050437  0.039207      4.000000
  0.101503  0.059351  0.039207      4.000000
 -0.054883  0.005864  0.039207      4.000000
 -0.028819  0.014779  0.039207      4.000000
 -0.002755  0.023693  0.039207      4.000000
  0.049374  0.069069  0.039207      2.000000
  0.075439  0.077984  0.039207      4.000000
  0.101503  0.086898  0.039207      4.000000
 -0.054883  0.033411  0.039207      4.000000
 -0.028819  0.042326  0.039207      4.000000
 -0.002755  0.051240  0.039207      4.000000
  0.075439  0.105530  0.039207      2.000000
  0.101503  0.114445  0.039207      4.000000
 -0.054883  0.060958  0.039207      4.000000
 -0.028819  0.069872  0.039207      4.000000
 -0.002755  0.078787  0.039207      4.000000
  0.101503  0.141992  0.039207      2.000000
 -0.054883  0.088505  0.039207      4.000000
 -0.028819  0.097419  0.039207      4.000000
 -0.002755  0.106334  0.039207      4.000000
 -0.054883 -0.076776  0.039207      2.000000
 -0.028819 -0.067861  0.039207      4.000000
 -0.002755 -0.058947  0.039207      4.000000
 -0.028819 -0.040315  0.039207      2.000000
 -0.002755 -0.031400  0.039207      4.000000
 -0.002755 -0.003853  0.039207      2.000000
  0.034965  0.048912  0.058810      2.000000
  0.061029  0.057826  0.058810      4.000000
  0.087094  0.066741  0.058810      4.000000
  0.113158  0.075655  0.058810      4.000000
 -0.043228  0.022168  0.058810      4.000000
 -0.017164  0.031083  0.058810      4.000000
  0.008900  0.039997  0.058810      4.000000
  0.061029  0.085373  0.058810      2.000000
  0.087094  0.094288  0.058810      4.000000
  0.113158  0.103202  0.058810      4.000000
 -0.043228  0.049715  0.058810      4.000000
 -0.017164  0.058630  0.058810      4.000000
  0.008900  0.067544  0.058810      4.000000
  0.087094  0.121834  0.058810      2.000000
  0.113158  0.130749  0.058810      4.000000
 -0.043228  0.077262  0.058810      4.000000
 -0.017164  0.086176  0.058810      4.000000
  0.008900  0.095091  0.058810      4.000000
  0.113158  0.158295  0.058810      2.000000
 -0.043228  0.104808  0.058810      4.000000
 -0.017164  0.113723  0.058810      4.000000
  0.008900  0.122637  0.058810      4.000000
 -0.043228 -0.060472  0.058810      2.000000
 -0.017164 -0.051557  0.058810      4.000000
  0.008900 -0.042643  0.058810      4.000000
 -0.017164 -0.024011  0.058810      2.000000
  0.008900 -0.015096  0.058810      4.000000
  0.008900  0.012451  0.058810      2.000000
  0.046620  0.065216  0.078414      1.000000
  0.072684  0.074130  0.078414      4.000000
  0.098748  0.083045  0.078414      4.000000
  0.124813  0.091959  0.078414      4.000000
  0.072684  0.101677  0.078414      2.000000
  0.098748  0.110591  0.078414      4.000000
  0.124813  0.119506  0.078414      4.000000
 -0.031574  0.066019  0.078414      4.000000
 -0.005509  0.074933  0.078414      4.000000
  0.020555  0.083848  0.078414      2.000000
  0.098748  0.138138  0.078414      2.000000
  0.124813  0.147053  0.078414      4.000000
 -0.031574  0.093566  0.078414      4.000000
 -0.005509  0.102480  0.078414      2.000000
  0.124813  0.174599  0.078414      2.000000
 -0.031574  0.121112  0.078414      2.000000
 


--------------------------------------------------------------------------------------------------------




 Dimension of arrays:
   k-points           NKPTS =    116   k-points in BZ     NKDIM =    116   number of bands    NBANDS=     54
   number of dos      NEDOS =    301   number of ions     NIONS =     12
   non local maximal  LDIM  =      6   non local SUM 2l+1 LMDIM =     18
   total plane-waves  NPLWV = 157464
   max r-space proj   IRMAX =      1   max aug-charges    IRDMAX= 304113
   dimension x,y,z NGX =    54 NGY =   54 NGZ =   54
   dimension x,y,z NGXF=   108 NGYF=  108 NGZF=  108
   support grid    NGXF=   216 NGYF=  216 NGZF=  216
   ions per type =               4   4   4
   NGX,Y,Z   is equivalent  to a cutoff of  14.08, 14.08, 14.08 a.u.
   NGXF,Y,Z  is equivalent  to a cutoff of  28.16, 28.16, 28.16 a.u.

 SYSTEM =  routine with relax: pwdword             
 POSCAR =  EA217                                   

 Startparameter for this run:
   NWRITE =      2    write-flag & timer
   PREC   = acc       normal or accurate (medium, high low for compatibility)
   ISTART =      0    job   : 0-new  1-cont  2-samecut
   ICHARG =      2    charge: 1-file 2-atom 10-const
   ISPIN  =      1    spin polarized calculation?
   LNONCOLLINEAR =      F non collinear calculations
   LSORBIT =      F    spin-orbit coupling
   INIWAV =      1    electr: 0-lowe 1-rand  2-diag
   LASPH  =      T    aspherical Exc in radial PAW
   METAGGA=      F    non-selfconsistent MetaGGA calc.

 Electronic Relaxation 1
   ENCUT  =  600.0 eV  44.10 Ry    6.64 a.u.  12.74 12.74 12.74*2*pi/ulx,y,z
   ENINI  =  600.0     initial cutoff
   ENAUG  =  535.5 eV  augmentation charge cutoff
   NELM   =    100;   NELMIN=  6; NELMDL= -5     # of ELM steps 
   EDIFF  = 0.1E-08   stopping-criterion for ELM
   LREAL  =      F    real-space projection
   NLSPLINE    = F    spline interpolate recip. space projectors
   LCOMPAT=      F    compatible to vasp.4.4
   GGA_COMPAT  = T    GGA compatible to vasp.4.4-vasp.4.6
   LMAXPAW     = -100 max onsite density
   LMAXMIX     =    2 max onsite mixed and CHGCAR
   VOSKOWN=      0    Vosko Wilk Nusair interpolation
   ROPT   =    0.00000   0.00000   0.00000
 Ionic relaxation
   EDIFFG = 0.1E-07   stopping-criterion for IOM
   NSW    =      0    number of steps for IOM
   NBLOCK =      1;   KBLOCK =      1    inner block; outer block 
   IBRION =     -1    ionic relax: 0-MD 1-quasi-New 2-CG
   NFREE  =      0    steps in history (QN), initial steepest desc. (CG)
   ISIF   =     -1    stress and relaxation
   IWAVPR =     10    prediction:  0-non 1-charg 2-wave 3-comb
   ISYM   =      2    0-nonsym 1-usesym 2-fastsym
   LCORR  =      T    Harris-Foulkes like correction to forces

   POTIM  = 0.5000    time-step for ionic-motion
   TEIN   =    0.0    initial temperature
   TEBEG  =    0.0;   TEEND  =   0.0 temperature during run
   SMASS  =  -3.00    Nose mass-parameter (am)
   estimated Nose-frequenzy (Omega)   =  0.10E-29 period in steps = 0.13E+47 mass=  -0.929E-27a.u.
   SCALEE = 1.0000    scale energy and forces
   NPACO  =    256;   APACO  = 16.0  distance and # of slots for P.C.
   PSTRESS=    0.0 pullay stress

  Mass of Ions in am
   POMASS =  10.81 95.94 28.09
  Ionic Valenz
   ZVAL   =   3.00 14.00  4.00
  Atomic Wigner-Seitz radii
   RWIGS  =  -1.00 -1.00 -1.00
  virtual crystal weights 
   VCA    =   1.00  1.00  1.00
   NELECT =      84.0000    total number of electrons
   NUPDOWN=      -1.0000    fix difference up-down

 DOS related values:
   EMIN   =  10.00;   EMAX   =-10.00  energy-range for DOS
   EFERMI =   0.00
   ISMEAR =     0;   SIGMA  =   0.02  broadening in eV -4-tet -1-fermi 0-gaus

 Electronic relaxation 2 (details)
   IALGO  =     58    algorithm
   LDIAG  =      T    sub-space diagonalisation (order eigenvalues)
   LSUBROT=      F    optimize rotation matrix (better conditioning)
   TURBO    =      0    0=normal 1=particle mesh
   IRESTART =      0    0=no restart 2=restart with 2 vectors
   NREBOOT  =      0    no. of reboots
   NMIN     =      0    reboot dimension
   EREF     =   0.00    reference energy to select bands
   IMIX   =      4    mixing-type and parameters
     AMIX     =   0.40;   BMIX     =  1.00
     AMIX_MAG =   1.60;   BMIX_MAG =  1.00
     AMIN     =   0.10
     WC   =   100.;   INIMIX=   1;  MIXPRE=   1;  MAXMIX= -45

 Intra band minimization:
   WEIMIN = 0.0000     energy-eigenvalue tresh-hold
   EBREAK =  0.46E-11  absolut break condition
   DEPER  =   0.30     relativ break condition  

   TIME   =   0.40     timestep for ELM

  volume/ion in A,a.u.               =      15.10       101.92
  Fermi-wavevector in a.u.,A,eV,Ry     =   1.266911  2.394115 21.838219  1.605064
  Thomas-Fermi vector in A             =   2.400087
 
 Write flags
   LWAVE        =      T    write WAVECAR
   LDOWNSAMPLE  =      F    k-point downsampling of WAVECAR
   LCHARG       =      T    write CHGCAR
   LVTOT        =      F    write LOCPOT, total local potential
   LVHAR        =      F    write LOCPOT, Hartree potential only
   LELF         =      F    write electronic localiz. function (ELF)
   LORBIT       =      0    0 simple, 1 ext, 2 COOP (PROOUT), +10 PAW based schemes


 Dipole corrections
   LMONO  =      F    monopole corrections only (constant potential shift)
   LDIPOL =      F    correct potential (dipole corrections)
   IDIPOL =      0    1-x, 2-y, 3-z, 4-all directions 
   EPSILON=  1.0000000 bulk dielectric constant

 Exchange correlation treatment:
   GGA     =    --    GGA type
   LEXCH   =     8    internal setting for exchange type
   VOSKOWN=      0    Vosko Wilk Nusair interpolation
   LHFCALC =     F    Hartree Fock is set to
   LHFONE  =     F    Hartree Fock one center treatment
   AEXX    =    0.0000 exact exchange contribution

 Linear response parameters
   LEPSILON=     F    determine dielectric tensor
   LRPA    =     F    only Hartree local field effects (RPA)
   LNABLA  =     F    use nabla operator in PAW spheres
   LVEL    =     F    velocity operator in full k-point grid
   LINTERFAST=   F  fast interpolation
   KINTER  =     0    interpolate to denser k-point grid
   CSHIFT  =0.1000    complex shift for real part using Kramers Kronig
   OMEGAMAX=  -1.0    maximum frequency
   DEG_THRESHOLD= 0.2000000E-02 threshold for treating states as degnerate
   RTIME   =   -0.100 relaxation time in fs
  (WPLASMAI=    0.000 imaginary part of plasma frequency in eV, 0.658/RTIME)
   DFIELD  = 0.0000000 0.0000000 0.0000000 field for delta impulse in time
 
 Orbital magnetization related:
   ORBITALMAG=     F  switch on orbital magnetization
   LCHIMAG   =     F  perturbation theory with respect to B field
   DQ        =  0.001000  dq finite difference perturbation B field
   LLRAUG    =     F  two centre corrections for induced B field



--------------------------------------------------------------------------------------------------------


 Static calculation
 charge density and potential will be updated during run
 non-spin polarized calculation
 Conjugate gradient for all bands (Freysoldt, et al. PRB 79, 241103 (2009))
 preconditioned conjugated gradient                                        
 perform sub-space diagonalisation
    before iterative eigenvector-optimisation
 modified Broyden-mixing scheme, WC =      100.0
 initial mixing is a Kerker type mixing with AMIX =  0.4000 and BMIX =      1.0000
 Hartree-type preconditioning will be used
 using additional bands           12
 reciprocal scheme for non local part
 use partial core corrections
 no Harris-corrections to forces 
 use gradient corrections 
 use of overlap-Matrix (Vanderbilt PP)
 Gauss-broadening in eV      SIGMA  =   0.02


--------------------------------------------------------------------------------------------------------


  energy-cutoff  :      600.00
  volume of cell :      181.24
      direct lattice vectors                 reciprocal lattice vectors
     5.480929103  0.000000000 -3.258608718     0.182450818  0.062401515  0.000000000
    -1.773705376  5.185995861 -3.258608718     0.000000000  0.192826995  0.000000000
     0.000000000  0.000000000  6.376450000     0.093239315  0.130431486  0.156827075

  length of vectors
     6.376450000  6.376450000  6.376450000     0.192826995  0.192826995  0.224278117


 
 k-points in units of 2pi/SCALE and weight: EA                                      
   0.00000000  0.00000000  0.00000000       0.003
   0.02606440  0.00891450  0.00000000       0.010
   0.05212881  0.01782900  0.00000000       0.010
   0.07819321  0.02674351  0.00000000       0.010
   0.02606440  0.03646122  0.00000000       0.005
   0.05212881  0.04537572  0.00000000       0.010
   0.07819321  0.05429022  0.00000000       0.010
  -0.07819321  0.00080321  0.00000000       0.010
  -0.05212881  0.00971771  0.00000000       0.010
  -0.02606440  0.01863221  0.00000000       0.005
   0.05212881  0.07292243  0.00000000       0.005
   0.07819321  0.08183693  0.00000000       0.010
  -0.07819321  0.02834992  0.00000000       0.010
  -0.05212881  0.03726442  0.00000000       0.005
   0.07819321  0.10938365  0.00000000       0.005
  -0.07819321  0.05589663  0.00000000       0.005
   0.01165491  0.01630394  0.01960338       0.005
   0.03771932  0.02521844  0.01960338       0.010
   0.06378372  0.03413294  0.01960338       0.010
   0.08984812  0.04304744  0.01960338       0.010
  -0.06653829 -0.01043957  0.01960338       0.010
  -0.04047389 -0.00152507  0.01960338       0.010
  -0.01440949  0.00738943  0.01960338       0.010
   0.03771932  0.05276515  0.01960338       0.005
   0.06378372  0.06167965  0.01960338       0.010
   0.08984812  0.07059416  0.01960338       0.010
  -0.06653829  0.01710714  0.01960338       0.010
  -0.04047389  0.02602165  0.01960338       0.010
  -0.01440949  0.03493615  0.01960338       0.010
   0.06378372  0.08922637  0.01960338       0.005
   0.08984812  0.09814087  0.01960338       0.010
  -0.06653829  0.04465386  0.01960338       0.010
  -0.04047389  0.05356836  0.01960338       0.010
  -0.01440949  0.06248286  0.01960338       0.010
   0.08984812  0.12568758  0.01960338       0.005
  -0.06653829  0.07220057  0.01960338       0.010
  -0.04047389  0.08111507  0.01960338       0.010
  -0.01440949  0.09002957  0.01960338       0.010
  -0.06653829 -0.09307971  0.01960338       0.005
  -0.04047389 -0.08416521  0.01960338       0.010
  -0.01440949 -0.07525071  0.01960338       0.010
  -0.04047389 -0.05661850  0.01960338       0.005
  -0.01440949 -0.04770399  0.01960338       0.010
  -0.01440949 -0.02015728  0.01960338       0.005
   0.02330983  0.03260787  0.03920677       0.005
   0.04937423  0.04152237  0.03920677       0.010
   0.07543863  0.05043688  0.03920677       0.010
   0.10150304  0.05935138  0.03920677       0.010
  -0.05488338  0.00586437  0.03920677       0.010
  -0.02881898  0.01477887  0.03920677       0.010
  -0.00275457  0.02369337  0.03920677       0.010
   0.04937423  0.06906909  0.03920677       0.005
   0.07543863  0.07798359  0.03920677       0.010
   0.10150304  0.08689809  0.03920677       0.010
  -0.05488338  0.03341108  0.03920677       0.010
  -0.02881898  0.04232558  0.03920677       0.010
  -0.00275457  0.05124008  0.03920677       0.010
   0.07543863  0.10553030  0.03920677       0.005
   0.10150304  0.11444481  0.03920677       0.010
  -0.05488338  0.06095779  0.03920677       0.010
  -0.02881898  0.06987229  0.03920677       0.010
  -0.00275457  0.07878680  0.03920677       0.010
   0.10150304  0.14199152  0.03920677       0.005
  -0.05488338  0.08850451  0.03920677       0.010
  -0.02881898  0.09741901  0.03920677       0.010
  -0.00275457  0.10633351  0.03920677       0.010
  -0.05488338 -0.07677578  0.03920677       0.005
  -0.02881898 -0.06786127  0.03920677       0.010
  -0.00275457 -0.05894677  0.03920677       0.010
  -0.02881898 -0.04031456  0.03920677       0.005
  -0.00275457 -0.03140006  0.03920677       0.010
  -0.00275457 -0.00385334  0.03920677       0.005
   0.03496474  0.04891181  0.05881015       0.005
   0.06102915  0.05782631  0.05881015       0.010
   0.08709355  0.06674081  0.05881015       0.010
   0.11315795  0.07565531  0.05881015       0.010
  -0.04322846  0.02216830  0.05881015       0.010
  -0.01716406  0.03108280  0.05881015       0.010
   0.00890034  0.03999731  0.05881015       0.010
   0.06102915  0.08537302  0.05881015       0.005
   0.08709355  0.09428753  0.05881015       0.010
   0.11315795  0.10320203  0.05881015       0.010
  -0.04322846  0.04971501  0.05881015       0.010
  -0.01716406  0.05862952  0.05881015       0.010
   0.00890034  0.06754402  0.05881015       0.010
   0.08709355  0.12183424  0.05881015       0.005
   0.11315795  0.13074874  0.05881015       0.010
  -0.04322846  0.07726173  0.05881015       0.010
  -0.01716406  0.08617623  0.05881015       0.010
   0.00890034  0.09509073  0.05881015       0.010
   0.11315795  0.15829545  0.05881015       0.005
  -0.04322846  0.10480844  0.05881015       0.010
  -0.01716406  0.11372294  0.05881015       0.010
   0.00890034  0.12263745  0.05881015       0.010
  -0.04322846 -0.06047184  0.05881015       0.005
  -0.01716406 -0.05155734  0.05881015       0.010
   0.00890034 -0.04264284  0.05881015       0.010
  -0.01716406 -0.02401062  0.05881015       0.005
   0.00890034 -0.01509612  0.05881015       0.010
   0.00890034  0.01245059  0.05881015       0.005
   0.04661966  0.06521574  0.07841354       0.003
   0.07268406  0.07413025  0.07841354       0.010
   0.09874846  0.08304475  0.07841354       0.010
   0.12481287  0.09195925  0.07841354       0.010
   0.07268406  0.10167696  0.07841354       0.005
   0.09874846  0.11059146  0.07841354       0.010
   0.12481287  0.11950596  0.07841354       0.010
  -0.03157355  0.06601895  0.07841354       0.010
  -0.00550915  0.07493345  0.07841354       0.010
   0.02055525  0.08384795  0.07841354       0.005
   0.09874846  0.13813817  0.07841354       0.005
   0.12481287  0.14705268  0.07841354       0.010
  -0.03157355  0.09356566  0.07841354       0.010
  -0.00550915  0.10248017  0.07841354       0.005
   0.12481287  0.17459939  0.07841354       0.005
  -0.03157355  0.12111238  0.07841354       0.005
 
 k-points in reciprocal lattice and weights: EA                                      
   0.00000000  0.00000000  0.00000000       0.003
   0.14285714  0.00000000  0.00000000       0.010
   0.28571429  0.00000000  0.00000000       0.010
   0.42857143  0.00000000  0.00000000       0.010
   0.14285714  0.14285714  0.00000000       0.005
   0.28571429  0.14285714  0.00000000       0.010
   0.42857143  0.14285714  0.00000000       0.010
  -0.42857143  0.14285714  0.00000000       0.010
  -0.28571429  0.14285714  0.00000000       0.010
  -0.14285714  0.14285714  0.00000000       0.005
   0.28571429  0.28571429  0.00000000       0.005
   0.42857143  0.28571429  0.00000000       0.010
  -0.42857143  0.28571429  0.00000000       0.010
  -0.28571429  0.28571429  0.00000000       0.005
   0.42857143  0.42857143  0.00000000       0.005
  -0.42857143  0.42857143  0.00000000       0.005
   0.00000000  0.00000000  0.12500000       0.005
   0.14285714  0.00000000  0.12500000       0.010
   0.28571429  0.00000000  0.12500000       0.010
   0.42857143  0.00000000  0.12500000       0.010
  -0.42857143 -0.00000000  0.12500000       0.010
  -0.28571429  0.00000000  0.12500000       0.010
  -0.14285714  0.00000000  0.12500000       0.010
   0.14285714  0.14285714  0.12500000       0.005
   0.28571429  0.14285714  0.12500000       0.010
   0.42857143  0.14285714  0.12500000       0.010
  -0.42857143  0.14285714  0.12500000       0.010
  -0.28571429  0.14285714  0.12500000       0.010
  -0.14285714  0.14285714  0.12500000       0.010
   0.28571429  0.28571429  0.12500000       0.005
   0.42857143  0.28571429  0.12500000       0.010
  -0.42857143  0.28571429  0.12500000       0.010
  -0.28571429  0.28571429  0.12500000       0.010
  -0.14285714  0.28571429  0.12500000       0.010
   0.42857143  0.42857143  0.12500000       0.005
  -0.42857143  0.42857143  0.12500000       0.010
  -0.28571429  0.42857143  0.12500000       0.010
  -0.14285714  0.42857143  0.12500000       0.010
  -0.42857143 -0.42857143  0.12500000       0.005
  -0.28571429 -0.42857143  0.12500000       0.010
  -0.14285714 -0.42857143  0.12500000       0.010
  -0.28571429 -0.28571429  0.12500000       0.005
  -0.14285714 -0.28571429  0.12500000       0.010
  -0.14285714 -0.14285714  0.12500000       0.005
   0.00000000  0.00000000  0.25000000       0.005
   0.14285714  0.00000000  0.25000000       0.010
   0.28571429  0.00000000  0.25000000       0.010
   0.42857143  0.00000000  0.25000000       0.010
  -0.42857143 -0.00000000  0.25000000       0.010
  -0.28571429  0.00000000  0.25000000       0.010
  -0.14285714  0.00000000  0.25000000       0.010
   0.14285714  0.14285714  0.25000000       0.005
   0.28571429  0.14285714  0.25000000       0.010
   0.42857143  0.14285714  0.25000000       0.010
  -0.42857143  0.14285714  0.25000000       0.010
  -0.28571429  0.14285714  0.25000000       0.010
  -0.14285714  0.14285714  0.25000000       0.010
   0.28571429  0.28571429  0.25000000       0.005
   0.42857143  0.28571429  0.25000000       0.010
  -0.42857143  0.28571429  0.25000000       0.010
  -0.28571429  0.28571429  0.25000000       0.010
  -0.14285714  0.28571429  0.25000000       0.010
   0.42857143  0.42857143  0.25000000       0.005
  -0.42857143  0.42857143  0.25000000       0.010
  -0.28571429  0.42857143  0.25000000       0.010
  -0.14285714  0.42857143  0.25000000       0.010
  -0.42857143 -0.42857143  0.25000000       0.005
  -0.28571429 -0.42857143  0.25000000       0.010
  -0.14285714 -0.42857143  0.25000000       0.010
  -0.28571429 -0.28571429  0.25000000       0.005
  -0.14285714 -0.28571429  0.25000000       0.010
  -0.14285714 -0.14285714  0.25000000       0.005
   0.00000000  0.00000000  0.37500000       0.005
   0.14285714  0.00000000  0.37500000       0.010
   0.28571429  0.00000000  0.37500000       0.010
   0.42857143  0.00000000  0.37500000       0.010
  -0.42857143  0.00000000  0.37500000       0.010
  -0.28571429  0.00000000  0.37500000       0.010
  -0.14285714  0.00000000  0.37500000       0.010
   0.14285714  0.14285714  0.37500000       0.005
   0.28571429  0.14285714  0.37500000       0.010
   0.42857143  0.14285714  0.37500000       0.010
  -0.42857143  0.14285714  0.37500000       0.010
  -0.28571429  0.14285714  0.37500000       0.010
  -0.14285714  0.14285714  0.37500000       0.010
   0.28571429  0.28571429  0.37500000       0.005
   0.42857143  0.28571429  0.37500000       0.010
  -0.42857143  0.28571429  0.37500000       0.010
  -0.28571429  0.28571429  0.37500000       0.010
  -0.14285714  0.28571429  0.37500000       0.010
   0.42857143  0.42857143  0.37500000       0.005
  -0.42857143  0.42857143  0.37500000       0.010
  -0.28571429  0.42857143  0.37500000       0.010
  -0.14285714  0.42857143  0.37500000       0.010
  -0.42857143 -0.42857143  0.37500000       0.005
  -0.28571429 -0.42857143  0.37500000       0.010
  -0.14285714 -0.42857143  0.37500000       0.010
  -0.28571429 -0.28571429  0.37500000       0.005
  -0.14285714 -0.28571429  0.37500000       0.010
  -0.14285714 -0.14285714  0.37500000       0.005
   0.00000000  0.00000000  0.50000000       0.003
   0.14285714  0.00000000  0.50000000       0.010
   0.28571429  0.00000000  0.50000000       0.010
   0.42857143  0.00000000  0.50000000       0.010
   0.14285714  0.14285714  0.50000000       0.005
   0.28571429  0.14285714  0.50000000       0.010
   0.42857143  0.14285714  0.50000000       0.010
  -0.42857143  0.14285714  0.50000000       0.010
  -0.28571429  0.14285714  0.50000000       0.010
  -0.14285714  0.14285714  0.50000000       0.005
   0.28571429  0.28571429  0.50000000       0.005
   0.42857143  0.28571429  0.50000000       0.010
  -0.42857143  0.28571429  0.50000000       0.010
  -0.28571429  0.28571429  0.50000000       0.005
   0.42857143  0.42857143  0.50000000       0.005
  -0.42857143  0.42857143  0.50000000       0.005
 
 position of ions in fractional coordinates (direct lattice) 
   0.24518000  0.74518000  0.99037000
   0.75482000  0.25482000  0.00963000
   0.74518000  0.75482000  0.50000000
   0.25482000  0.24518000  0.50000000
   0.00000000  0.50000000  0.50000000
   0.25000000  0.25000000  0.00000000
   0.75000000  0.75000000  0.00000000
   0.50000000  0.00000000  0.50000000
   0.00000000  0.00000000  0.50000000
   0.00000000  0.50000000  0.00000000
   0.50000000  0.50000000  0.50000000
   0.50000000  0.00000000  0.00000000
 
 position of ions in cartesian coordinates  (Angst):
   0.02208443  3.86450040  3.08784906
   3.68513930  1.32149547 -3.22861649
   2.74545046  3.91449340 -1.69968808
   0.96177327  1.27150247  1.55892064
  -0.88685269  2.59299793  1.55892064
   0.92680593  1.29649897 -1.62930436
   2.78041780  3.88949690 -4.88791308
   2.74046455  0.00000000  1.55892064
   0.00000000  0.00000000  3.18822500
  -0.88685269  2.59299793 -1.62930436
   1.85361186  2.59299793 -0.07038372
   2.74046455  0.00000000 -1.62930436
 


--------------------------------------------------------------------------------------------------------


 k-point   1 :   0.0000 0.0000 0.0000  plane waves:    6035
 k-point   2 :   0.1429 0.0000 0.0000  plane waves:    6049
 k-point   3 :   0.2857 0.0000 0.0000  plane waves:    6054
 k-point   4 :   0.4286 0.0000 0.0000  plane waves:    6064
 k-point   5 :   0.1429 0.1429 0.0000  plane waves:    6035
 k-point   6 :   0.2857 0.1429 0.0000  plane waves:    6060
 k-point   7 :   0.4286 0.1429 0.0000  plane waves:    6045
 k-point   8 :  -0.4286 0.1429 0.0000  plane waves:    6051
 k-point   9 :  -0.2857 0.1429 0.0000  plane waves:    6057
 k-point  10 :  -0.1429 0.1429 0.0000  plane waves:    6050
 k-point  11 :   0.2857 0.2857 0.0000  plane waves:    6038
 k-point  12 :   0.4286 0.2857 0.0000  plane waves:    6039
 k-point  13 :  -0.4286 0.2857 0.0000  plane waves:    6053
 k-point  14 :  -0.2857 0.2857 0.0000  plane waves:    6056
 k-point  15 :   0.4286 0.4286 0.0000  plane waves:    6033
 k-point  16 :  -0.4286 0.4286 0.0000  plane waves:    6038
 k-point  17 :   0.0000 0.0000 0.1250  plane waves:    6054
 k-point  18 :   0.1429 0.0000 0.1250  plane waves:    6051
 k-point  19 :   0.2857 0.0000 0.1250  plane waves:    6056
 k-point  20 :   0.4286 0.0000 0.1250  plane waves:    6053
 k-point  21 :  -0.4286-0.0000 0.1250  plane waves:    6059
 k-point  22 :  -0.2857 0.0000 0.1250  plane waves:    6044
 k-point  23 :  -0.1429 0.0000 0.1250  plane waves:    6044
 k-point  24 :   0.1429 0.1429 0.1250  plane waves:    6053
 k-point  25 :   0.2857 0.1429 0.1250  plane waves:    6030
 k-point  26 :   0.4286 0.1429 0.1250  plane waves:    6031
 k-point  27 :  -0.4286 0.1429 0.1250  plane waves:    6053
 k-point  28 :  -0.2857 0.1429 0.1250  plane waves:    6053
 k-point  29 :  -0.1429 0.1429 0.1250  plane waves:    6058
 k-point  30 :   0.2857 0.2857 0.1250  plane waves:    6035
 k-point  31 :   0.4286 0.2857 0.1250  plane waves:    6038
 k-point  32 :  -0.4286 0.2857 0.1250  plane waves:    6052
 k-point  33 :  -0.2857 0.2857 0.1250  plane waves:    6032
 k-point  34 :  -0.1429 0.2857 0.1250  plane waves:    6045
 k-point  35 :   0.4286 0.4286 0.1250  plane waves:    6033
 k-point  36 :  -0.4286 0.4286 0.1250  plane waves:    6056
 k-point  37 :  -0.2857 0.4286 0.1250  plane waves:    6046
 k-point  38 :  -0.1429 0.4286 0.1250  plane waves:    6045
 k-point  39 :  -0.4286-0.4286 0.1250  plane waves:    6036
 k-point  40 :  -0.2857-0.4286 0.1250  plane waves:    6051
 k-point  41 :  -0.1429-0.4286 0.1250  plane waves:    6058
 k-point  42 :  -0.2857-0.2857 0.1250  plane waves:    6060
 k-point  43 :  -0.1429-0.2857 0.1250  plane waves:    6052
 k-point  44 :  -0.1429-0.1429 0.1250  plane waves:    6065
 k-point  45 :   0.0000 0.0000 0.2500  plane waves:    6066
 k-point  46 :   0.1429 0.0000 0.2500  plane waves:    6049
 k-point  47 :   0.2857 0.0000 0.2500  plane waves:    6044
 k-point  48 :   0.4286 0.0000 0.2500  plane waves:    6039
 k-point  49 :  -0.4286-0.0000 0.2500  plane waves:    6051
 k-point  50 :  -0.2857 0.0000 0.2500  plane waves:    6048
 k-point  51 :  -0.1429 0.0000 0.2500  plane waves:    6048
 k-point  52 :   0.1429 0.1429 0.2500  plane waves:    6037
 k-point  53 :   0.2857 0.1429 0.2500  plane waves:    6041
 k-point  54 :   0.4286 0.1429 0.2500  plane waves:    6035
 k-point  55 :  -0.4286 0.1429 0.2500  plane waves:    6057
 k-point  56 :  -0.2857 0.1429 0.2500  plane waves:    6052
 k-point  57 :  -0.1429 0.1429 0.2500  plane waves:    6039
 k-point  58 :   0.2857 0.2857 0.2500  plane waves:    6037
 k-point  59 :   0.4286 0.2857 0.2500  plane waves:    6034
 k-point  60 :  -0.4286 0.2857 0.2500  plane waves:    6045
 k-point  61 :  -0.2857 0.2857 0.2500  plane waves:    6026
 k-point  62 :  -0.1429 0.2857 0.2500  plane waves:    6036
 k-point  63 :   0.4286 0.4286 0.2500  plane waves:    6041
 k-point  64 :  -0.4286 0.4286 0.2500  plane waves:    6032
 k-point  65 :  -0.2857 0.4286 0.2500  plane waves:    6045
 k-point  66 :  -0.1429 0.4286 0.2500  plane waves:    6048
 k-point  67 :  -0.4286-0.4286 0.2500  plane waves:    6074
 k-point  68 :  -0.2857-0.4286 0.2500  plane waves:    6054
 k-point  69 :  -0.1429-0.4286 0.2500  plane waves:    6052
 k-point  70 :  -0.2857-0.2857 0.2500  plane waves:    6055
 k-point  71 :  -0.1429-0.2857 0.2500  plane waves:    6066
 k-point  72 :  -0.1429-0.1429 0.2500  plane waves:    6049
 k-point  73 :   0.0000 0.0000 0.3750  plane waves:    6056
 k-point  74 :   0.1429 0.0000 0.3750  plane waves:    6036
 k-point  75 :   0.2857 0.0000 0.3750  plane waves:    6033
 k-point  76 :   0.4286 0.0000 0.3750  plane waves:    6041
 k-point  77 :  -0.4286 0.0000 0.3750  plane waves:    6064
 k-point  78 :  -0.2857 0.0000 0.3750  plane waves:    6059
 k-point  79 :  -0.1429 0.0000 0.3750  plane waves:    6053
 k-point  80 :   0.1429 0.1429 0.3750  plane waves:    6049
 k-point  81 :   0.2857 0.1429 0.3750  plane waves:    6040
 k-point  82 :   0.4286 0.1429 0.3750  plane waves:    6039
 k-point  83 :  -0.4286 0.1429 0.3750  plane waves:    6059
 k-point  84 :  -0.2857 0.1429 0.3750  plane waves:    6037
 k-point  85 :  -0.1429 0.1429 0.3750  plane waves:    6048
 k-point  86 :   0.2857 0.2857 0.3750  plane waves:    6042
 k-point  87 :   0.4286 0.2857 0.3750  plane waves:    6051
 k-point  88 :  -0.4286 0.2857 0.3750  plane waves:    6045
 k-point  89 :  -0.2857 0.2857 0.3750  plane waves:    6030
 k-point  90 :  -0.1429 0.2857 0.3750  plane waves:    6045
 k-point  91 :   0.4286 0.4286 0.3750  plane waves:    6061
 k-point  92 :  -0.4286 0.4286 0.3750  plane waves:    6059
 k-point  93 :  -0.2857 0.4286 0.3750  plane waves:    6054
 k-point  94 :  -0.1429 0.4286 0.3750  plane waves:    6049
 k-point  95 :  -0.4286-0.4286 0.3750  plane waves:    6062
 k-point  96 :  -0.2857-0.4286 0.3750  plane waves:    6052
 k-point  97 :  -0.1429-0.4286 0.3750  plane waves:    6053
 k-point  98 :  -0.2857-0.2857 0.3750  plane waves:    6044
 k-point  99 :  -0.1429-0.2857 0.3750  plane waves:    6056
 k-point 100 :  -0.1429-0.1429 0.3750  plane waves:    6059
 k-point 101 :   0.0000 0.0000 0.5000  plane waves:    6046
 k-point 102 :   0.1429 0.0000 0.5000  plane waves:    6041
 k-point 103 :   0.2857 0.0000 0.5000  plane waves:    6044
 k-point 104 :   0.4286 0.0000 0.5000  plane waves:    6062
 k-point 105 :   0.1429 0.1429 0.5000  plane waves:    6048
 k-point 106 :   0.2857 0.1429 0.5000  plane waves:    6042
 k-point 107 :   0.4286 0.1429 0.5000  plane waves:    6058
 k-point 108 :  -0.4286 0.1429 0.5000  plane waves:    6044
 k-point 109 :  -0.2857 0.1429 0.5000  plane waves:    6050
 k-point 110 :  -0.1429 0.1429 0.5000  plane waves:    6034
 k-point 111 :   0.2857 0.2857 0.5000  plane waves:    6055
 k-point 112 :   0.4286 0.2857 0.5000  plane waves:    6050
 k-point 113 :  -0.4286 0.2857 0.5000  plane waves:    6056
 k-point 114 :  -0.2857 0.2857 0.5000  plane waves:    6048
 k-point 115 :   0.4286 0.4286 0.5000  plane waves:    6071
 k-point 116 :  -0.4286 0.4286 0.5000  plane waves:    6062

 maximum and minimum number of plane-waves per node :      3051     3004

 maximum number of plane-waves:      6074
 maximum index in each direction: 
   IXMAX=   13   IYMAX=   13   IZMAX=   12
   IXMIN=  -13   IYMIN=  -13   IZMIN=  -13


 parallel 3D FFT for wavefunctions:
    minimum data exchange during FFTs selected (reduces bandwidth)
 parallel 3D FFT for charge:
    minimum data exchange during FFTs selected (reduces bandwidth)


 total amount of memory used by VASP MPI-rank0   370286. kBytes
=======================================================================

   base      :      30000. kBytes
   nonl-proj :     153024. kBytes
   fftplans  :      17763. kBytes
   grid      :      13358. kBytes
   one-center:         93. kBytes
   wavefun   :     156048. kBytes
 
     INWAV:  cpu time    0.0001: real time    0.0001
 Broyden mixing: mesh for mixing (old mesh)
   NGX = 25   NGY = 25   NGZ = 25
  (NGX  =108   NGY  =108   NGZ  =108)
  gives a total of  15625 points

 initial charge density was supplied:
 charge density of overlapping atoms calculated
 number of electron      84.0000000 magnetization 
 keeping initial charge density in first step


--------------------------------------------------------------------------------------------------------


 Maximum index for augmentation-charges        24644 (set IRDMAX)


--------------------------------------------------------------------------------------------------------


 First call to EWALD:  gamma=   0.313
 Maximum number of real-space cells 3x 3x 3
 Maximum number of reciprocal cells 3x 3x 3

    FEWALD:  cpu time    0.0038: real time    0.0038


--------------------------------------- Iteration      1(   1)  ---------------------------------------


    POTLOK:  cpu time    0.1902: real time    0.1928
    SETDIJ:  cpu time    0.6503: real time    0.6555
    TRIAL :  cpu time   24.7596: real time   24.9912
    CORREC:  cpu time    0.0018: real time    0.0018
    --------------------------------------------
      LOOP:  cpu time   25.6647: real time   25.9097

 eigenvalue-minimisations  : 13800
 total energy-change (2. order) : 0.6613696E+03  (-0.5385807E+04)
 number of electron      84.0000000 magnetization 
 augmentation part       84.0000000 magnetization 

 Free energy of the ion-electron system (eV)
  ---------------------------------------------------
  alpha Z        PSCENC =       302.14135920
  Ewald energy   TEWEN  =     -6099.74057974
  -Hartree energ DENC   =     -2004.63527732
  -exchange      EXHF   =         0.00000000
  -V(xc)+E(xc)   XCENC  =       317.54209279
  PAW double counting   =      6444.67582193    -6389.50304870
  entropy T*S    EENTRO =        -0.00058348
  eigenvalues    EBANDS =       -55.18492413
  atomic energy  EATOM  =      8146.07472429
  ---------------------------------------------------
  free energy    TOTEN  =       661.36958483 eV

  energy without entropy =      661.37016831  energy(sigma->0) =      661.36987657


--------------------------------------------------------------------------------------------------------




--------------------------------------- Iteration      1(   2)  ---------------------------------------


    TRIAL :  cpu time   25.3241: real time   25.5637
    CORREC:  cpu time    0.0018: real time    0.0018
    --------------------------------------------
      LOOP:  cpu time   25.3282: real time   25.5685

 eigenvalue-minimisations  : 14514
 total energy-change (2. order) :-0.8093493E+03  (-0.7917415E+03)
 number of electron      84.0000000 magnetization 
 augmentation part       84.0000000 magnetization 

 Free energy of the ion-electron system (eV)
  ---------------------------------------------------
  alpha Z        PSCENC =       302.14135920
  Ewald energy   TEWEN  =     -6099.74057974
  -Hartree energ DENC   =     -2004.63527732
  -exchange      EXHF   =         0.00000000
  -V(xc)+E(xc)   XCENC  =       317.54209279
  PAW double counting   =      6444.67582193    -6389.50304870
  entropy T*S    EENTRO =        -0.00169572
  eigenvalues    EBANDS =      -864.53315619
  atomic energy  EATOM  =      8146.07472429
  ---------------------------------------------------
  free energy    TOTEN  =      -147.97975947 eV

  energy without entropy =     -147.97806374  energy(sigma->0) =     -147.97891161


--------------------------------------------------------------------------------------------------------




--------------------------------------- Iteration      1(   3)  ---------------------------------------


    TRIAL :  cpu time   27.5493: real time   27.8088
    CORREC:  cpu time    0.0018: real time    0.0018
    --------------------------------------------
      LOOP:  cpu time   27.5514: real time   27.8136

 eigenvalue-minimisations  : 16920
 total energy-change (2. order) :-0.3445715E+02  (-0.3323887E+02)
 number of electron      84.0000000 magnetization 
 augmentation part       84.0000000 magnetization 

 Free energy of the ion-electron system (eV)
  ---------------------------------------------------
  alpha Z        PSCENC =       302.14135920
  Ewald energy   TEWEN  =     -6099.74057974
  -Hartree energ DENC   =     -2004.63527732
  -exchange      EXHF   =         0.00000000
  -V(xc)+E(xc)   XCENC  =       317.54209279
  PAW double counting   =      6444.67582193    -6389.50304870
  entropy T*S    EENTRO =        -0.00113010
  eigenvalues    EBANDS =      -898.99087283
  atomic energy  EATOM  =      8146.07472429
  ---------------------------------------------------
  free energy    TOTEN  =      -182.43691049 eV

  energy without entropy =     -182.43578039  energy(sigma->0) =     -182.43634544


--------------------------------------------------------------------------------------------------------




--------------------------------------- Iteration      1(   4)  ---------------------------------------


    TRIAL :  cpu time   26.5918: real time   26.8440
    CORREC:  cpu time    0.0018: real time    0.0018
    --------------------------------------------
      LOOP:  cpu time   26.5942: real time   26.8487

 eigenvalue-minimisations  : 15756
 total energy-change (2. order) :-0.9358943E+00  (-0.9201924E+00)
 number of electron      84.0000000 magnetization 
 augmentation part       84.0000000 magnetization 

 Free energy of the ion-electron system (eV)
  ---------------------------------------------------
  alpha Z        PSCENC =       302.14135920
  Ewald energy   TEWEN  =     -6099.74057974
  -Hartree energ DENC   =     -2004.63527732
  -exchange      EXHF   =         0.00000000
  -V(xc)+E(xc)   XCENC  =       317.54209279
  PAW double counting   =      6444.67582193    -6389.50304870
  entropy T*S    EENTRO =        -0.00101472
  eigenvalues    EBANDS =      -899.92688255
  atomic energy  EATOM  =      8146.07472429
  ---------------------------------------------------
  free energy    TOTEN  =      -183.37280482 eV

  energy without entropy =     -183.37179010  energy(sigma->0) =     -183.37229746


--------------------------------------------------------------------------------------------------------




--------------------------------------- Iteration      1(   5)  ---------------------------------------


    TRIAL :  cpu time   26.9992: real time   27.2466
    CORREC:  cpu time    0.0017: real time    0.0017
    CHARGE:  cpu time    2.0935: real time    2.1074
    --------------------------------------------
      LOOP:  cpu time   29.0952: real time   29.3586

 eigenvalue-minimisations  : 15762
 total energy-change (2. order) :-0.1849766E-01  (-0.1842113E-01)
 number of electron      84.0000000 magnetization 
 augmentation part        7.2390442 magnetization 

 Free energy of the ion-electron system (eV)
  ---------------------------------------------------
  alpha Z        PSCENC =       302.14135920
  Ewald energy   TEWEN  =     -6099.74057974
  -Hartree energ DENC   =     -2004.63527732
  -exchange      EXHF   =         0.00000000
  -V(xc)+E(xc)   XCENC  =       317.54209279
  PAW double counting   =      6444.67582193    -6389.50304870
  entropy T*S    EENTRO =        -0.00095311
  eigenvalues    EBANDS =      -899.94544182
  atomic energy  EATOM  =      8146.07472429
  ---------------------------------------------------
  free energy    TOTEN  =      -183.39130249 eV

  energy without entropy =     -183.39034937  energy(sigma->0) =     -183.39082593


--------------------------------------------------------------------------------------------------------




--------------------------------------- Iteration      1(   6)  ---------------------------------------


    POTLOK:  cpu time    0.1574: real time    0.1583
    SETDIJ:  cpu time    0.6464: real time    0.6498
    TRIAL :  cpu time   19.3902: real time   19.5928
    CORREC:  cpu time    6.8687: real time    6.9317
    CHARGE:  cpu time    1.9093: real time    1.9228
    --------------------------------------------
      LOOP:  cpu time   28.9756: real time   29.2601

 eigenvalue-minimisations  :     0
 total energy-change (2. order) : 0.5995404E+02  (-0.1864851E+02)
 number of electron      84.0000001 magnetization 
 augmentation part        8.6267028 magnetization 

 Free energy of the ion-electron system (eV)
  ---------------------------------------------------
  alpha Z        PSCENC =       302.14135920
  Ewald energy   TEWEN  =     -6099.74057974
  -Hartree energ DENC   =     -1674.06895304
  -exchange      EXHF   =         0.00000000
  -V(xc)+E(xc)   XCENC  =       315.66964508
  PAW double counting   =     10259.43557758   -10234.26239829
  entropy T*S    EENTRO =        -0.00152243
  eigenvalues    EBANDS =     -1138.68568766
  atomic energy  EATOM  =      8146.07472429
  ---------------------------------------------------
  free energy    TOTEN  =      -123.43726570 eV

  energy without entropy =     -123.43574327  energy(sigma->0) =     -123.43650448


--------------------------------------------------------------------------------------------------------




--------------------------------------- Iteration      1(   7)  ---------------------------------------


    POTLOK:  cpu time    0.1439: real time    0.1448
    SETDIJ:  cpu time    0.6319: real time    0.6359
    TRIAL :  cpu time   19.1686: real time   19.3615
    CORREC:  cpu time    6.9867: real time    7.0493
    CHARGE:  cpu time    2.0108: real time    2.0251
    --------------------------------------------
      LOOP:  cpu time   28.9454: real time   29.2212

 eigenvalue-minimisations  :     0
 total energy-change (2. order) :-0.2143762E+02  (-0.3608590E+01)
 number of electron      84.0000001 magnetization 
 augmentation part        8.9976864 magnetization 

 Free energy of the ion-electron system (eV)
  ---------------------------------------------------
  alpha Z        PSCENC =       302.14135920
  Ewald energy   TEWEN  =     -6099.74057974
  -Hartree energ DENC   =     -1848.37814236
  -exchange      EXHF   =         0.00000000
  -V(xc)+E(xc)   XCENC  =       323.05437348
  PAW double counting   =     10071.76933788   -10036.32246762
  entropy T*S    EENTRO =        -0.00230319
  eigenvalues    EBANDS =     -1003.47196874
  atomic energy  EATOM  =      8146.07472429
  ---------------------------------------------------
  free energy    TOTEN  =      -144.87488604 eV

  energy without entropy =     -144.87258285  energy(sigma->0) =     -144.87373445


--------------------------------------------------------------------------------------------------------




--------------------------------------- Iteration      1(   8)  ---------------------------------------


    POTLOK:  cpu time    0.1422: real time    0.1432
    SETDIJ:  cpu time    0.6354: real time    0.6394
    TRIAL :  cpu time   18.9244: real time   19.1155
    CORREC:  cpu time    6.9506: real time    7.0142
    CHARGE:  cpu time    1.9926: real time    2.0067
    --------------------------------------------
      LOOP:  cpu time   28.6460: real time   28.9209

 eigenvalue-minimisations  :     0
 total energy-change (2. order) :-0.3674325E+01  (-0.7823819E+00)
 number of electron      84.0000001 magnetization 
 augmentation part        8.8766783 magnetization 

 Free energy of the ion-electron system (eV)
  ---------------------------------------------------
  alpha Z        PSCENC =       302.14135920
  Ewald energy   TEWEN  =     -6099.74057974
  -Hartree energ DENC   =     -1946.10816191
  -exchange      EXHF   =         0.00000000
  -V(xc)+E(xc)   XCENC  =       326.80246773
  PAW double counting   =     10086.06785089   -10043.73377003
  entropy T*S    EENTRO =        -0.00229726
  eigenvalues    EBANDS =      -920.05079835
  atomic energy  EATOM  =      8146.07472429
  ---------------------------------------------------
  free energy    TOTEN  =      -148.54921112 eV

  energy without entropy =     -148.54691386  energy(sigma->0) =     -148.54806249


--------------------------------------------------------------------------------------------------------




--------------------------------------- Iteration      1(   9)  ---------------------------------------


    POTLOK:  cpu time    0.1456: real time    0.1466
    SETDIJ:  cpu time    0.6397: real time    0.6440
    TRIAL :  cpu time   18.8755: real time   19.0638
    CORREC:  cpu time    6.8959: real time    6.9577
    CHARGE:  cpu time    1.9784: real time    1.9932
    --------------------------------------------
      LOOP:  cpu time   28.5384: real time   28.8091

 eigenvalue-minimisations  :     0
 total energy-change (2. order) :-0.7825532E+00  (-0.3424332E+00)
 number of electron      84.0000001 magnetization 
 augmentation part        8.7493622 magnetization 

 Free energy of the ion-electron system (eV)
  ---------------------------------------------------
  alpha Z        PSCENC =       302.14135920
  Ewald energy   TEWEN  =     -6099.74057974
  -Hartree energ DENC   =     -1945.28386742
  -exchange      EXHF   =         0.00000000
  -V(xc)+E(xc)   XCENC  =       326.57154669
  PAW double counting   =     10113.74239563   -10070.16662541
  entropy T*S    EENTRO =        -0.00216126
  eigenvalues    EBANDS =      -922.66842034
  atomic energy  EATOM  =      8146.07472429
  ---------------------------------------------------
  free energy    TOTEN  =      -149.33176436 eV

  energy without entropy =     -149.32960310  energy(sigma->0) =     -149.33068373


--------------------------------------------------------------------------------------------------------




--------------------------------------- Iteration      1(  10)  ---------------------------------------


    POTLOK:  cpu time    0.1444: real time    0.1453
    SETDIJ:  cpu time    0.6436: real time    0.6477
    TRIAL :  cpu time   19.0392: real time   19.2335
    CORREC:  cpu time    6.8522: real time    6.9140
    CHARGE:  cpu time    1.9991: real time    2.0144
    --------------------------------------------
      LOOP:  cpu time   28.6791: real time   28.9567

 eigenvalue-minimisations  :     0
 total energy-change (2. order) :-0.3408696E+00  (-0.1442178E+00)
 number of electron      84.0000001 magnetization 
 augmentation part        8.7821292 magnetization 

 Free energy of the ion-electron system (eV)
  ---------------------------------------------------
  alpha Z        PSCENC =       302.14135920
  Ewald energy   TEWEN  =     -6099.74057974
  -Hartree energ DENC   =     -1928.63971589
  -exchange      EXHF   =         0.00000000
  -V(xc)+E(xc)   XCENC  =       325.80777839
  PAW double counting   =     10132.98885370   -10089.29103260
  entropy T*S    EENTRO =        -0.00237424
  eigenvalues    EBANDS =      -939.01186003
  atomic energy  EATOM  =      8146.07472429
  ---------------------------------------------------
  free energy    TOTEN  =      -149.67263395 eV

  energy without entropy =     -149.67025971  energy(sigma->0) =     -149.67144683


--------------------------------------------------------------------------------------------------------




--------------------------------------- Iteration      1(  11)  ---------------------------------------


    POTLOK:  cpu time    0.1476: real time    0.1487
    SETDIJ:  cpu time    0.6456: real time    0.6496
    TRIAL :  cpu time   19.0751: real time   19.2687
    CORREC:  cpu time    6.9121: real time    6.9720
    CHARGE:  cpu time    1.9991: real time    2.0135
    --------------------------------------------
      LOOP:  cpu time   28.7818: real time   29.0556

 eigenvalue-minimisations  :     0
 total energy-change (2. order) :-0.1442196E+00  (-0.4824654E-01)
 number of electron      84.0000001 magnetization 
 augmentation part        8.8230563 magnetization 

 Free energy of the ion-electron system (eV)
  ---------------------------------------------------
  alpha Z        PSCENC =       302.14135920
  Ewald energy   TEWEN  =     -6099.74057974
  -Hartree energ DENC   =     -1930.87386946
  -exchange      EXHF   =         0.00000000
  -V(xc)+E(xc)   XCENC  =       325.94525623
  PAW double counting   =     10140.86423594   -10096.44311851
  entropy T*S    EENTRO =        -0.00251068
  eigenvalues    EBANDS =      -937.78248724
  atomic energy  EATOM  =      8146.07472429
  ---------------------------------------------------
  free energy    TOTEN  =      -149.81685353 eV

  energy without entropy =     -149.81434285  energy(sigma->0) =     -149.81559819


--------------------------------------------------------------------------------------------------------




--------------------------------------- Iteration      1(  12)  ---------------------------------------


    POTLOK:  cpu time    0.1432: real time    0.1441
    SETDIJ:  cpu time    0.6320: real time    0.6359
    TRIAL :  cpu time   19.0209: real time   19.2070
    CORREC:  cpu time    6.8985: real time    6.9610
[...]
     19      -1.4046      2.00000
     20      -0.9267      2.00000
     21      -0.6705      2.00000
     22       0.8192      2.00000
     23       1.5697      2.00000
     24       2.0939      2.00000
     25       2.1861      2.00000
     26       3.2345      2.00000
     27       3.6046      2.00000
     28       3.9520      2.00000
     29       4.1188      2.00000
     30       4.3040      2.00000
     31       4.5216      2.00000
     32       4.6740      2.00000
     33       5.0424      2.00000
     34       5.2978      2.00000
     35       5.6676      2.00000
     36       6.2908      2.00000
     37       7.0622      2.00000
     38       7.1287      2.00000
     39       7.2553      2.00000
     40       7.3331      2.00000
     41       7.4333      2.00000
     42       7.7505      2.00000
     43       8.1041      0.00000
     44       8.1663      0.00000
     45       8.4310      0.00000
     46       8.4511      0.00000
     47       8.8400      0.00000
     48       8.8745      0.00000
     49       9.2482      0.00000
     50       9.6924      0.00000
     51       9.7221      0.00000
     52      10.1948      0.00000
     53      10.4782      0.00000
     54      11.1431      0.00000

 k-point   109 :      -0.2857    0.1429    0.5000
  band No.  band energies     occupation 
      1     -55.1891      2.00000
      2     -55.1878      2.00000
      3     -54.5685      2.00000
      4     -54.5678      2.00000
      5     -28.5902      2.00000
      6     -28.5855      2.00000
      7     -28.5841      2.00000
      8     -28.5826      2.00000
      9     -28.5548      2.00000
     10     -28.5523      2.00000
     11     -28.2602      2.00000
     12     -28.2539      2.00000
     13     -28.2492      2.00000
     14     -28.2408      2.00000
     15     -28.0005      2.00000
     16     -27.9980      2.00000
     17      -2.4666      2.00000
     18      -2.4390      2.00000
     19      -1.7965      2.00000
     20      -1.1484      2.00000
     21      -0.5950      2.00000
     22       0.3990      2.00000
     23       2.2642      2.00000
     24       2.3655      2.00000
     25       2.5645      2.00000
     26       3.0826      2.00000
     27       3.7154      2.00000
     28       3.7741      2.00000
     29       3.9713      2.00000
     30       4.1957      2.00000
     31       4.2586      2.00000
     32       4.5888      2.00000
     33       4.7404      2.00000
     34       4.8427      2.00000
     35       6.1327      2.00000
     36       6.5743      2.00000
     37       7.0723      2.00000
     38       7.2872      2.00000
     39       7.4577      2.00000
     40       7.5473      2.00000
     41       7.6039      2.00000
     42       7.6969      2.00000
     43       7.7976      2.00000
     44       8.1042      0.00000
     45       8.2595      0.00000
     46       8.4644      0.00000
     47       8.6746      0.00000
     48       8.8631      0.00000
     49       9.0807      0.00000
     50       9.5136      0.00000
     51       9.7435      0.00000
     52       9.8864      0.00000
     53      10.9352      0.00000
     54      11.1422      0.00000

 k-point   110 :      -0.1429    0.1429    0.5000
  band No.  band energies     occupation 
      1     -55.1891      2.00000
      2     -55.1878      2.00000
      3     -54.5683      2.00000
      4     -54.5680      2.00000
      5     -28.5907      2.00000
      6     -28.5853      2.00000
      7     -28.5840      2.00000
      8     -28.5824      2.00000
      9     -28.5545      2.00000
     10     -28.5522      2.00000
     11     -28.2618      2.00000
     12     -28.2578      2.00000
     13     -28.2452      2.00000
     14     -28.2396      2.00000
     15     -28.0003      2.00000
     16     -27.9980      2.00000
     17      -2.3907      2.00000
     18      -2.2052      2.00000
     19      -2.1674      2.00000
     20      -1.1405      2.00000
     21      -0.5958      2.00000
     22       0.2104      2.00000
     23       2.6854      2.00000
     24       2.7949      2.00000
     25       2.8419      2.00000
     26       3.0687      2.00000
     27       3.6522      2.00000
     28       3.7146      2.00000
     29       3.7589      2.00000
     30       3.8978      2.00000
     31       4.2495      2.00000
     32       4.3691      2.00000
     33       4.5465      2.00000
     34       4.6881      2.00000
     35       6.4040      2.00000
     36       6.5761      2.00000
     37       7.1340      2.00000
     38       7.3455      2.00000
     39       7.4149      2.00000
     40       7.4677      2.00000
     41       7.6987      2.00000
     42       7.8661      2.00000
     43       7.9514      1.85844
     44       8.0143      0.00291
     45       8.1712      0.00000
     46       8.4187      0.00000
     47       8.5758      0.00000
     48       8.6310      0.00000
     49       9.0402      0.00000
     50       9.0869      0.00000
     51       9.7720      0.00000
     52       9.9107      0.00000
     53      11.1327      0.00000
     54      11.3275      0.00000

 k-point   111 :       0.2857    0.2857    0.5000
  band No.  band energies     occupation 
      1     -55.1891      2.00000
      2     -55.1878      2.00000
      3     -54.5688      2.00000
      4     -54.5675      2.00000
      5     -28.5888      2.00000
      6     -28.5865      2.00000
      7     -28.5841      2.00000
      8     -28.5827      2.00000
      9     -28.5550      2.00000
     10     -28.5522      2.00000
     11     -28.2624      2.00000
     12     -28.2524      2.00000
     13     -28.2480      2.00000
     14     -28.2413      2.00000
     15     -27.9998      2.00000
     16     -27.9988      2.00000
     17      -3.2436      2.00000
     18      -1.7389      2.00000
     19      -1.5932      2.00000
     20      -1.1820      2.00000
     21      -0.2482      2.00000
     22       1.3079      2.00000
     23       1.3837      2.00000
     24       1.4547      2.00000
     25       2.2060      2.00000
     26       2.8405      2.00000
     27       4.0109      2.00000
     28       4.0276      2.00000
     29       4.2034      2.00000
     30       4.2554      2.00000
     31       4.6710      2.00000
     32       4.7809      2.00000
     33       5.0461      2.00000
     34       5.0881      2.00000
     35       5.2446      2.00000
     36       6.4660      2.00000
     37       6.8397      2.00000
     38       7.1188      2.00000
     39       7.3481      2.00000
     40       7.3832      2.00000
     41       7.7246      2.00000
     42       7.7980      2.00000
     43       7.8375      2.00000
     44       8.2134      0.00000
     45       8.4189      0.00000
     46       8.4388      0.00000
     47       8.8556      0.00000
     48       9.0413      0.00000
     49       9.3659      0.00000
     50       9.7350      0.00000
     51      10.3406      0.00000
     52      10.3878      0.00000
     53      10.4509      0.00000
     54      10.8320      0.00000

 k-point   112 :       0.4286    0.2857    0.5000
  band No.  band energies     occupation 
      1     -55.1892      2.00000
      2     -55.1878      2.00000
      3     -54.5689      2.00000
      4     -54.5674      2.00000
      5     -28.5894      2.00000
      6     -28.5855      2.00000
      7     -28.5843      2.00000
      8     -28.5829      2.00000
      9     -28.5552      2.00000
     10     -28.5524      2.00000
     11     -28.2609      2.00000
     12     -28.2563      2.00000
     13     -28.2437      2.00000
     14     -28.2424      2.00000
     15     -28.0006      2.00000
     16     -27.9983      2.00000
     17      -3.1293      2.00000
     18      -1.8315      2.00000
     19      -1.3839      2.00000
     20      -0.9798      2.00000
     21      -0.8334      2.00000
     22       0.8833      2.00000
     23       1.6936      2.00000
     24       1.8446      2.00000
     25       2.0020      2.00000
     26       2.5257      2.00000
     27       3.8182      2.00000
     28       4.1714      2.00000
     29       4.1881      2.00000
     30       4.3548      2.00000
     31       4.6173      2.00000
     32       4.8415      2.00000
     33       4.9802      2.00000
     34       5.2235      2.00000
     35       5.8618      2.00000
     36       6.2657      2.00000
     37       6.6400      2.00000
     38       6.8255      2.00000
     39       7.1681      2.00000
     40       7.4567      2.00000
     41       7.6834      2.00000
     42       7.8693      2.00000
     43       8.2141      0.00000
     44       8.3048      0.00000
     45       8.4093      0.00000
     46       8.4296      0.00000
     47       8.9080      0.00000
     48       9.1485      0.00000
     49       9.3197      0.00000
     50      10.1536      0.00000
     51      10.2061      0.00000
     52      10.3876      0.00000
     53      10.5947      0.00000
     54      11.5087      0.00000

 k-point   113 :      -0.4286    0.2857    0.5000
  band No.  band energies     occupation 
      1     -55.1892      2.00000
      2     -55.1878      2.00000
      3     -54.5689      2.00000
      4     -54.5674      2.00000
      5     -28.5899      2.00000
      6     -28.5851      2.00000
      7     -28.5844      2.00000
      8     -28.5830      2.00000
      9     -28.5552      2.00000
     10     -28.5525      2.00000
     11     -28.2592      2.00000
     12     -28.2576      2.00000
     13     -28.2454      2.00000
     14     -28.2409      2.00000
     15     -28.0010      2.00000
     16     -27.9979      2.00000
     17      -2.8667      2.00000
     18      -1.9108      2.00000
     19      -1.4591      2.00000
     20      -1.3751      2.00000
     21      -0.6103      2.00000
     22       0.4753      2.00000
     23       1.6406      2.00000
     24       2.2228      2.00000
     25       2.3837      2.00000
     26       2.4461      2.00000
     27       3.7283      2.00000
     28       4.0701      2.00000
     29       4.1669      2.00000
     30       4.2322      2.00000
     31       4.6737      2.00000
     32       4.8629      2.00000
     33       4.8948      2.00000
     34       5.1299      2.00000
     35       6.2697      2.00000
     36       6.3658      2.00000
     37       6.4275      2.00000
     38       6.6927      2.00000
     39       7.0623      2.00000
     40       7.3878      2.00000
     41       7.8969      2.00000
     42       7.9582      1.68044
     43       8.2569      0.00000
     44       8.2805      0.00000
     45       8.4165      0.00000
     46       8.5566      0.00000
     47       8.9659      0.00000
     48       9.0690      0.00000
     49       9.3463      0.00000
     50      10.0565      0.00000
     51      10.1755      0.00000
     52      10.4170      0.00000
     53      10.6928      0.00000
     54      11.5739      0.00000

 k-point   114 :      -0.2857    0.2857    0.5000
  band No.  band energies     occupation 
      1     -55.1891      2.00000
      2     -55.1878      2.00000
      3     -54.5687      2.00000
      4     -54.5676      2.00000
      5     -28.5902      2.00000
      6     -28.5850      2.00000
      7     -28.5843      2.00000
      8     -28.5828      2.00000
      9     -28.5550      2.00000
     10     -28.5525      2.00000
     11     -28.2607      2.00000
     12     -28.2536      2.00000
     13     -28.2494      2.00000
     14     -28.2398      2.00000
     15     -28.0009      2.00000
     16     -27.9978      2.00000
     17      -2.6007      2.00000
     18      -1.9469      2.00000
     19      -1.8490      2.00000
     20      -1.4618      2.00000
     21      -0.4905      2.00000
     22       0.2559      2.00000
     23       1.9681      2.00000
     24       2.5759      2.00000
     25       2.5942      2.00000
     26       2.5966      2.00000
     27       3.6846      2.00000
     28       3.8665      2.00000
     29       4.2418      2.00000
     30       4.3058      2.00000
     31       4.3339      2.00000
     32       4.3524      2.00000
     33       4.8652      2.00000
     34       4.8759      2.00000
     35       6.5806      2.00000
     36       6.6857      2.00000
     37       6.7209      2.00000
     38       6.9604      2.00000
     39       7.0215      2.00000
     40       7.4644      2.00000
     41       7.7912      2.00000
     42       7.8821      2.00000
     43       7.9817      0.50237
     44       8.0483      0.00000
     45       8.3021      0.00000
     46       8.6767      0.00000
     47       8.8473      0.00000
     48       9.0261      0.00000
     49       9.0789      0.00000
     50       9.6954      0.00000
     51      10.0754      0.00000
     52      10.1667      0.00000
     53      11.0062      0.00000
     54      11.5220      0.00000

 k-point   115 :       0.4286    0.4286    0.5000
  band No.  band energies     occupation 
      1     -55.1892      2.00000
      2     -55.1878      2.00000
      3     -54.5691      2.00000
      4     -54.5672      2.00000
      5     -28.5898      2.00000
      6     -28.5849      2.00000
      7     -28.5846      2.00000
      8     -28.5832      2.00000
      9     -28.5553      2.00000
     10     -28.5526      2.00000
     11     -28.2614      2.00000
     12     -28.2587      2.00000
     13     -28.2415      2.00000
     14     -28.2409      2.00000
     15     -28.0012      2.00000
     16     -27.9978      2.00000
     17      -3.0174      2.00000
     18      -1.4958      2.00000
     19      -1.4516      2.00000
     20      -1.4362      2.00000
     21      -0.5983      2.00000
     22       0.5043      2.00000
     23       1.3411      2.00000
     24       1.9519      2.00000
     25       2.2811      2.00000
     26       2.2889      2.00000
     27       3.7207      2.00000
     28       4.1098      2.00000
     29       4.6314      2.00000
     30       4.6558      2.00000
     31       4.6859      2.00000
     32       4.6869      2.00000
     33       5.0747      2.00000
     34       5.1082      2.00000
     35       6.0231      2.00000
     36       6.0290      2.00000
     37       6.0484      2.00000
     38       6.4839      2.00000
     39       7.2155      2.00000
     40       7.3502      2.00000
     41       8.1355      0.00000
     42       8.3006      0.00000
     43       8.3125      0.00000
     44       8.4393      0.00000
     45       8.5900      0.00000
     46       8.7439      0.00000
     47       9.0098      0.00000
     48       9.2840      0.00000
     49       9.2877      0.00000
     50      10.1811      0.00000
     51      10.6553      0.00000
     52      10.8872      0.00000
     53      11.1970      0.00000
     54      11.3581      0.00000

 k-point   116 :      -0.4286    0.4286    0.5000
  band No.  band energies     occupation 
      1     -55.1892      2.00000
      2     -55.1878      2.00000
      3     -54.5691      2.00000
      4     -54.5672      2.00000
      5     -28.5899      2.00000
      6     -28.5848      2.00000
      7     -28.5846      2.00000
      8     -28.5832      2.00000
      9     -28.5553      2.00000
     10     -28.5527      2.00000
     11     -28.2602      2.00000
     12     -28.2597      2.00000
     13     -28.2426      2.00000
     14     -28.2399      2.00000
     15     -28.0014      2.00000
     16     -27.9977      2.00000
     17      -2.8829      2.00000
     18      -1.6863      2.00000
     19      -1.4753      2.00000
     20      -1.4612      2.00000
     21      -0.4447      2.00000
     22       0.2990      2.00000
     23       1.3071      2.00000
     24       1.9236      2.00000
     25       2.4218      2.00000
     26       2.4244      2.00000
     27       3.7081      2.00000
     28       4.0933      2.00000
     29       4.6215      2.00000
     30       4.6779      2.00000
     31       4.6795      2.00000
     32       4.7259      2.00000
     33       5.0222      2.00000
     34       5.0400      2.00000
     35       5.9077      2.00000
     36       5.9274      2.00000
     37       6.0457      2.00000
     38       6.8655      2.00000
     39       6.9947      2.00000
     40       7.3207      2.00000
     41       8.2944      0.00000
     42       8.3156      0.00000
     43       8.3320      0.00000
     44       8.4538      0.00000
     45       8.6248      0.00000
     46       8.8243      0.00000
     47       9.0440      0.00000
     48       9.2309      0.00000
     49       9.2427      0.00000
     50      10.1226      0.00000
     51      10.6879      0.00000
     52      10.7116      0.00000
     53      10.9595      0.00000
     54      11.4132      0.00000


--------------------------------------------------------------------------------------------------------


 soft charge-density along one line, spin component           1
         0         1         2         3         4         5         6         7         8         9
 total charge-density along one line
 
 pseudopotential strength for first ion, spin component:           1
  6.048   9.173   0.001   0.001   0.001   0.002   0.002   0.001
  9.173  13.904   0.001   0.001   0.001   0.003   0.003   0.002
  0.001   0.001  -2.027  -0.006  -0.001  -3.393  -0.012  -0.004
  0.001   0.001  -0.006  -2.027  -0.005  -0.012  -3.395  -0.009
  0.001   0.001  -0.001  -0.005  -2.026  -0.004  -0.009  -3.391
  0.002   0.003  -3.393  -0.012  -0.004  -5.471  -0.023  -0.009
  0.002   0.003  -0.012  -3.395  -0.009  -0.023  -5.476  -0.016
  0.001   0.002  -0.004  -0.009  -3.391  -0.009  -0.016  -5.465
 total augmentation occupancy for first ion, spin component:           1
  2.938  -0.573  -0.036  -0.043  -0.026   0.009   0.011   0.007
 -0.573   0.142   0.005   0.006   0.004  -0.002  -0.003  -0.002
 -0.036   0.005   1.830   0.190   0.497  -0.434  -0.010  -0.122
 -0.043   0.006   0.190   2.176   0.136  -0.010  -0.521  -0.007
 -0.026   0.004   0.497   0.136   1.489  -0.122  -0.007  -0.351
  0.009  -0.002  -0.434  -0.010  -0.122   0.108  -0.005   0.032
  0.011  -0.003  -0.010  -0.521  -0.007  -0.005   0.131  -0.004
  0.007  -0.002  -0.122  -0.007  -0.351   0.032  -0.004   0.086


------------------------ aborting loop because EDIFF is reached ----------------------------------------




--------------------------------------------------------------------------------------------------------



  FREE ENERGIE OF THE ION-ELECTRON SYSTEM (eV)
  ---------------------------------------------------
  free  energy   TOTEN  =      -149.93101722 eV

  energy  without entropy=     -149.92854157  energy(sigma->0) =     -149.92977939
 


--------------------------------------------------------------------------------------------------------


    POTLOK:  cpu time    0.8506: real time    0.8570


--------------------------------------------------------------------------------------------------------


 writing wavefunctions
     LOOP+:  cpu time 1271.7240: real time 1283.8012
    4ORBIT:  cpu time    0.0000: real time    0.0000

 total amount of memory used by VASP MPI-rank0   370286. kBytes
=======================================================================

   base      :      30000. kBytes
   nonl-proj :     153024. kBytes
   fftplans  :      17763. kBytes
   grid      :      13358. kBytes
   one-center:         93. kBytes
   wavefun   :     156048. kBytes
 
  
  
 General timing and accounting informations for this job:
 ========================================================
  
                  Total CPU time used (sec):     1276.775
                            User time (sec):     1272.643
                          System time (sec):        4.132
                         Elapsed time (sec):     1289.766
  
                   Maximum memory used (kb):      598796.
                   Average memory used (kb):          N/A
  
                          Minor page faults:      1613764
                          Major page faults:           28
                 Voluntary context switches:         1217
