<?xml version="1.0" encoding="ISO-8859-1"?>
<modeling>
 <generator>
  <i name="program" type="string">vasp </i>
  <i name="version" type="string">6.2.0  </i>
  <i name="subversion" type="string">18Jan21 (build Jan 05 2022 15:41:44) complex                          parallel </i>
  <i name="platform" type="string">LinuxIFC </i>
  <i name="date" type="string">2025 05 07 </i>
  <i name="time" type="string">15:00:48 </i>
 </generator>
 <incar>
  <i type="string" name="SYSTEM">routine with relax: pwdword</i>
  <i type="string" name="PREC">Acc</i>
  <i type="int" name="IALGO">    38</i>
  <i type="string" name="ALGO">A</i>
  <i type="logical" name="ADDGRID"> T  </i>
  <i type="int" name="ICHARG">     2</i>
  <i type="int" name="NELM">   100</i>
  <i type="int" name="NELMIN">     6</i>
  <i name="EDIFF">      0.00000000</i>
  <i type="int" name="NSW">     0</i>
  <i type="int" name="ISIF">    -1</i>
  <i name="SYMPREC">      0.00010000</i>
  <i name="ENCUT">    600.00000000</i>
  <i type="logical" name="LREAL"> F  </i>
  <i type="int" name="ISMEAR">     0</i>
  <i name="SIGMA">      0.02000000</i>
  <i type="logical" name="LASPH"> T  </i>
  <i type="string" name="METAGGA">R2SCAN</i>
  <i type="logical" name="LMIXTAU"> F  </i>
 </incar>
 <primitive_cell>
  <structure name="primitive_cell" >
   <crystal>
    <varray name="basis" >
     <v>       5.58785496       0.00000000      -3.72015788 </v>
     <v>      -1.60294215       5.35300845      -3.72015788 </v>
     <v>       0.00000000       0.00000000       6.71295000 </v>
    </varray>
    <i name="volume">    200.79665160 </i>
    <varray name="rec_basis" >
     <v>       0.17895955       0.05358889       0.00000000 </v>
     <v>       0.00000000       0.18681084       0.00000000 </v>
     <v>       0.09917514       0.13322384       0.14896580 </v>
    </varray>
   </crystal>
   <varray name="positions" >
    <v>       0.75000000       0.25000000       0.50000000 </v>
    <v>       0.25000000       0.75000000       0.50000000 </v>
    <v>       0.50000000       0.00000000       0.00000000 </v>
    <v>       0.73985000       0.23985000       0.97971000 </v>
    <v>       0.26015000       0.76015000       0.02029000 </v>
    <v>       0.00000000       0.00000000       0.50000000 </v>
    <v>       0.23985000       0.26015000       0.50000000 </v>
    <v>       0.76015000       0.73985000       0.50000000 </v>
    <v>       0.00000000       0.50000000       0.00000000 </v>
    <v>       0.50000000       0.50000000       0.50000000 </v>
    <v>       0.36791000       0.36791000       0.00000000 </v>
    <v>       0.63209000       0.63209000       0.00000000 </v>
    <v>       0.13209000       0.13209000       0.00000000 </v>
    <v>       0.86791000       0.86791000       0.00000000 </v>
   </varray>
  </structure>
  <varray name="primitive_index" >
   <v type="int" >        1 </v>
   <v type="int" >        2 </v>
   <v type="int" >        3 </v>
   <v type="int" >        4 </v>
   <v type="int" >        5 </v>
   <v type="int" >        6 </v>
   <v type="int" >        7 </v>
   <v type="int" >        8 </v>
   <v type="int" >        9 </v>
   <v type="int" >       10 </v>
   <v type="int" >       11 </v>
   <v type="int" >       12 </v>
   <v type="int" >       13 </v>
   <v type="int" >       14 </v>
  </varray>
 </primitive_cell>
 <kpoints>
  <generation param="Gamma">
   <v type="int" name="divisions">       7        7        8 </v>
   <v name="usershift">      0.00000000       0.00000000       0.00000000 </v>
   <v name="genvec1">      0.14285714       0.00000000       0.00000000 </v>
   <v name="genvec2">      0.00000000       0.14285714       0.00000000 </v>
   <v name="genvec3">      0.00000000       0.00000000       0.12500000 </v>
   <v name="shift">      0.00000000       0.00000000       0.00000000 </v>
  </generation>
  <varray name="kpointlist" >
   <v>       0.00000000       0.00000000       0.00000000 </v>
   <v>       0.14285714       0.00000000       0.00000000 </v>
   <v>       0.28571429       0.00000000       0.00000000 </v>
   <v>       0.42857143       0.00000000       0.00000000 </v>
   <v>       0.14285714       0.14285714       0.00000000 </v>
   <v>       0.28571429       0.14285714       0.00000000 </v>
   <v>       0.42857143       0.14285714       0.00000000 </v>
   <v>      -0.42857143       0.14285714       0.00000000 </v>
   <v>      -0.28571429       0.14285714       0.00000000 </v>
   <v>      -0.14285714       0.14285714       0.00000000 </v>
   <v>       0.28571429       0.28571429       0.00000000 </v>
   <v>       0.42857143       0.28571429       0.00000000 </v>
   <v>      -0.42857143       0.28571429       0.00000000 </v>
   <v>      -0.28571429       0.28571429       0.00000000 </v>
   <v>       0.42857143       0.42857143       0.00000000 </v>
   <v>      -0.42857143       0.42857143       0.00000000 </v>
   <v>       0.00000000       0.00000000       0.12500000 </v>
   <v>       0.14285714       0.00000000       0.12500000 </v>
   <v>       0.28571429       0.00000000       0.12500000 </v>
   <v>       0.42857143       0.00000000       0.12500000 </v>
   <v>      -0.42857143       0.00000000       0.12500000 </v>
   <v>      -0.28571429       0.00000000       0.12500000 </v>
   <v>      -0.14285714       0.00000000       0.12500000 </v>
   <v>       0.14285714       0.14285714       0.12500000 </v>
   <v>       0.28571429       0.14285714       0.12500000 </v>
   <v>       0.42857143       0.14285714       0.12500000 </v>
   <v>      -0.42857143       0.14285714       0.12500000 </v>
   <v>      -0.28571429       0.14285714       0.12500000 </v>
   <v>      -0.14285714       0.14285714       0.12500000 </v>
   <v>       0.28571429       0.28571429       0.12500000 </v>
   <v>       0.42857143       0.28571429       0.12500000 </v>
   <v>      -0.42857143       0.28571429       0.12500000 </v>
   <v>      -0.28571429       0.28571429       0.12500000 </v>
   <v>      -0.14285714       0.28571429       0.12500000 </v>
   <v>       0.42857143       0.42857143       0.12500000 </v>
   <v>      -0.42857143       0.42857143       0.12500000 </v>
   <v>      -0.28571429       0.42857143       0.12500000 </v>
   <v>      -0.14285714       0.42857143       0.12500000 </v>
   <v>      -0.42857143      -0.42857143       0.12500000 </v>
   <v>      -0.28571429      -0.42857143       0.12500000 </v>
   <v>      -0.14285714      -0.42857143       0.12500000 </v>
   <v>      -0.28571429      -0.28571429       0.12500000 </v>
   <v>      -0.14285714      -0.28571429       0.12500000 </v>
   <v>      -0.14285714      -0.14285714       0.12500000 </v>
   <v>       0.00000000       0.00000000       0.25000000 </v>
   <v>       0.14285714       0.00000000       0.25000000 </v>
   <v>       0.28571429       0.00000000       0.25000000 </v>
   <v>       0.42857143       0.00000000       0.25000000 </v>
   <v>      -0.42857143       0.00000000       0.25000000 </v>
   <v>      -0.28571429       0.00000000       0.25000000 </v>
   <v>      -0.14285714       0.00000000       0.25000000 </v>
   <v>       0.14285714       0.14285714       0.25000000 </v>
   <v>       0.28571429       0.14285714       0.25000000 </v>
   <v>       0.42857143       0.14285714       0.25000000 </v>
   <v>      -0.42857143       0.14285714       0.25000000 </v>
   <v>      -0.28571429       0.14285714       0.25000000 </v>
   <v>      -0.14285714       0.14285714       0.25000000 </v>
   <v>       0.28571429       0.28571429       0.25000000 </v>
   <v>       0.42857143       0.28571429       0.25000000 </v>
   <v>      -0.42857143       0.28571429       0.25000000 </v>
   <v>      -0.28571429       0.28571429       0.25000000 </v>
   <v>      -0.14285714       0.28571429       0.25000000 </v>
   <v>       0.42857143       0.42857143       0.25000000 </v>
   <v>      -0.42857143       0.42857143       0.25000000 </v>
   <v>      -0.28571429       0.42857143       0.25000000 </v>
   <v>      -0.14285714       0.42857143       0.25000000 </v>
   <v>      -0.42857143      -0.42857143       0.25000000 </v>
   <v>      -0.28571429      -0.42857143       0.25000000 </v>
   <v>      -0.14285714      -0.42857143       0.25000000 </v>
   <v>      -0.28571429      -0.28571429       0.25000000 </v>
   <v>      -0.14285714      -0.28571429       0.25000000 </v>
   <v>      -0.14285714      -0.14285714       0.25000000 </v>
   <v>       0.00000000       0.00000000       0.37500000 </v>
   <v>       0.14285714       0.00000000       0.37500000 </v>
   <v>       0.28571429       0.00000000       0.37500000 </v>
   <v>       0.42857143       0.00000000       0.37500000 </v>
   <v>      -0.42857143       0.00000000       0.37500000 </v>
   <v>      -0.28571429       0.00000000       0.37500000 </v>
   <v>      -0.14285714       0.00000000       0.37500000 </v>
   <v>       0.14285714       0.14285714       0.37500000 </v>
   <v>       0.28571429       0.14285714       0.37500000 </v>
   <v>       0.42857143       0.14285714       0.37500000 </v>
   <v>      -0.42857143       0.14285714       0.37500000 </v>
   <v>      -0.28571429       0.14285714       0.37500000 </v>
   <v>      -0.14285714       0.14285714       0.37500000 </v>
   <v>       0.28571429       0.28571429       0.37500000 </v>
   <v>       0.42857143       0.28571429       0.37500000 </v>
   <v>      -0.42857143       0.28571429       0.37500000 </v>
   <v>      -0.28571429       0.28571429       0.37500000 </v>
   <v>      -0.14285714       0.28571429       0.37500000 </v>
   <v>       0.42857143       0.42857143       0.37500000 </v>
   <v>      -0.42857143       0.42857143       0.37500000 </v>
   <v>      -0.28571429       0.42857143       0.37500000 </v>
   <v>      -0.14285714       0.42857143       0.37500000 </v>
   <v>      -0.42857143      -0.42857143       0.37500000 </v>
   <v>      -0.28571429      -0.42857143       0.37500000 </v>
   <v>      -0.14285714      -0.42857143       0.37500000 </v>
   <v>      -0.28571429      -0.28571429       0.37500000 </v>
   <v>      -0.14285714      -0.28571429       0.37500000 </v>
   <v>      -0.14285714      -0.14285714       0.37500000 </v>
   <v>       0.00000000       0.00000000       0.50000000 </v>
   <v>       0.14285714       0.00000000       0.50000000 </v>
   <v>       0.28571429       0.00000000       0.50000000 </v>
   <v>       0.42857143       0.00000000       0.50000000 </v>
   <v>       0.14285714       0.14285714       0.50000000 </v>
   <v>       0.28571429       0.14285714       0.50000000 </v>
   <v>       0.42857143       0.14285714       0.50000000 </v>
   <v>      -0.42857143       0.14285714       0.50000000 </v>
   <v>      -0.28571429       0.14285714       0.50000000 </v>
   <v>      -0.14285714       0.14285714       0.50000000 </v>
   <v>       0.28571429       0.28571429       0.50000000 </v>
   <v>       0.42857143       0.28571429       0.50000000 </v>
   <v>      -0.42857143       0.28571429       0.50000000 </v>
   <v>      -0.28571429       0.28571429       0.50000000 </v>
   <v>       0.42857143       0.42857143       0.50000000 </v>
   <v>      -0.42857143       0.42857143       0.50000000 </v>
  </varray>
  <varray name="weights" >
   <v>       0.00255102 </v>
   <v>       0.01020408 </v>
   <v>       0.01020408 </v>
   <v>       0.01020408 </v>
   <v>       0.00510204 </v>
   <v>       0.01020408 </v>
   <v>       0.01020408 </v>
   <v>       0.01020408 </v>
   <v>       0.01020408 </v>
   <v>       0.00510204 </v>
   <v>       0.00510204 </v>
   <v>       0.01020408 </v>
   <v>       0.01020408 </v>
   <v>       0.00510204 </v>
   <v>       0.00510204 </v>
   <v>       0.00510204 </v>
   <v>       0.00510204 </v>
   <v>       0.01020408 </v>
   <v>       0.01020408 </v>
   <v>       0.01020408 </v>
   <v>       0.01020408 </v>
   <v>       0.01020408 </v>
   <v>       0.01020408 </v>
   <v>       0.00510204 </v>
   <v>       0.01020408 </v>
   <v>       0.01020408 </v>
   <v>       0.01020408 </v>
   <v>       0.01020408 </v>
   <v>       0.01020408 </v>
   <v>       0.00510204 </v>
   <v>       0.01020408 </v>
   <v>       0.01020408 </v>
   <v>       0.01020408 </v>
   <v>       0.01020408 </v>
   <v>       0.00510204 </v>
   <v>       0.01020408 </v>
   <v>       0.01020408 </v>
   <v>       0.01020408 </v>
   <v>       0.00510204 </v>
   <v>       0.01020408 </v>
   <v>       0.01020408 </v>
   <v>       0.00510204 </v>
   <v>       0.01020408 </v>
   <v>       0.00510204 </v>
   <v>       0.00510204 </v>
   <v>       0.01020408 </v>
   <v>       0.01020408 </v>
   <v>       0.01020408 </v>
   <v>       0.01020408 </v>
   <v>       0.01020408 </v>
   <v>       0.01020408 </v>
   <v>       0.00510204 </v>
   <v>       0.01020408 </v>
   <v>       0.01020408 </v>
   <v>       0.01020408 </v>
   <v>       0.01020408 </v>
   <v>       0.01020408 </v>
   <v>       0.00510204 </v>
   <v>       0.01020408 </v>
   <v>       0.01020408 </v>
   <v>       0.01020408 </v>
   <v>       0.01020408 </v>
   <v>       0.00510204 </v>
   <v>       0.01020408 </v>
   <v>       0.01020408 </v>
   <v>       0.01020408 </v>
   <v>       0.00510204 </v>
   <v>       0.01020408 </v>
   <v>       0.01020408 </v>
   <v>       0.00510204 </v>
   <v>       0.01020408 </v>
   <v>       0.00510204 </v>
   <v>       0.00510204 </v>
   <v>       0.01020408 </v>
   <v>       0.01020408 </v>
   <v>       0.01020408 </v>
   <v>       0.01020408 </v>
   <v>       0.01020408 </v>
   <v>       0.01020408 </v>
   <v>       0.00510204 </v>
   <v>       0.01020408 </v>
   <v>       0.01020408 </v>
   <v>       0.01020408 </v>
   <v>       0.01020408 </v>
   <v>       0.01020408 </v>
   <v>       0.00510204 </v>
   <v>       0.01020408 </v>
   <v>       0.01020408 </v>
   <v>       0.01020408 </v>
   <v>       0.01020408 </v>
   <v>       0.00510204 </v>
   <v>       0.01020408 </v>
   <v>       0.01020408 </v>
   <v>       0.01020408 </v>
   <v>       0.00510204 </v>
   <v>       0.01020408 </v>
   <v>       0.01020408 </v>
   <v>       0.00510204 </v>
   <v>       0.01020408 </v>
   <v>       0.00510204 </v>
   <v>       0.00255102 </v>
   <v>       0.01020408 </v>
   <v>       0.01020408 </v>
   <v>       0.01020408 </v>
   <v>       0.00510204 </v>
   <v>       0.01020408 </v>
   <v>       0.01020408 </v>
   <v>       0.01020408 </v>
   <v>       0.01020408 </v>
   <v>       0.00510204 </v>
   <v>       0.00510204 </v>
   <v>       0.01020408 </v>
   <v>       0.01020408 </v>
   <v>       0.00510204 </v>
   <v>       0.00510204 </v>
   <v>       0.00510204 </v>
  </varray>
 </kpoints>
 <parameters>
  <separator name="general" >
   <i type="string" name="SYSTEM">routine with relax: pwdword</i>
   <i type="logical" name="LCOMPAT"> F  </i>
  </separator>
  <separator name="electronic" >
   <i type="string" name="PREC">acc</i>
   <i name="ENMAX">    600.00000000</i>
   <i name="ENAUG">    535.51400000</i>
   <i name="EDIFF">      0.00000000</i>
   <i type="int" name="IALGO">    58</i>
   <i type="int" name="IWAVPR">    10</i>
   <i type="int" name="NBANDS">    84</i>
   <i type="int" name="NBANDSLOW">    -1</i>
   <i type="int" name="NBANDSHIGH">    -1</i>
   <i name="NELECT">    134.00000000</i>
   <i type="int" name="TURBO">     0</i>
   <i type="int" name="IRESTART">     0</i>
   <i type="int" name="NREBOOT">     0</i>
   <i type="int" name="NMIN">     0</i>
   <i name="EREF">      0.00000000</i>
   <separator name="electronic smearing" >
    <i type="int" name="ISMEAR">     0</i>
    <i name="SIGMA">      0.02000000</i>
    <i name="KSPACING">      0.50000000</i>
    <i type="logical" name="KGAMMA"> T  </i>
    <i type="logical" name="KBLOWUP"> F  </i>
   </separator>
   <separator name="electronic projectors" >
    <i type="logical" name="LREAL"> F  </i>
    <v name="ROPT">      0.00000000      0.00000000      0.00000000</v>
    <i type="int" name="LMAXPAW">  -100</i>
    <i type="int" name="LMAXMIX">     2</i>
    <i type="logical" name="NLSPLINE"> F  </i>
   </separator>
   <separator name="electronic startup" >
    <i type="int" name="ISTART">     0</i>
    <i type="int" name="ICHARG">     2</i>
    <i type="int" name="INIWAV">     1</i>
   </separator>
   <separator name="electronic spin" >
    <i type="int" name="ISPIN">     1</i>
    <i type="logical" name="LNONCOLLINEAR"> F  </i>
    <v name="MAGMOM">      1.00000000      1.00000000      1.00000000      1.00000000      1.00000000      1.00000000      1.00000000      1.00000000      1.00000000      1.00000000      1.00000000      1.00000000      1.00000000      1.00000000</v>
    <i name="NUPDOWN">     -1.00000000</i>
    <i type="logical" name="LSORBIT"> F  </i>
    <v name="SAXIS">      0.00000000      0.00000000      1.00000000</v>
    <i type="logical" name="LSPIRAL"> F  </i>
    <v name="QSPIRAL">      0.00000000      0.00000000      0.00000000</v>
    <i type="logical" name="LZEROZ"> F  </i>
   </separator>
   <separator name="electronic exchange-correlation" >
    <i type="logical" name="LASPH"> T  </i>
    <i type="logical" name="LMETAGGA"> F  </i>
   </separator>
   <separator name="electronic convergence" >
    <i type="int" name="NELM">   100</i>
    <i type="int" name="NELMDL">    -5</i>
    <i type="int" name="NELMIN">     6</i>
    <i name="ENINI">    600.00000000</i>
    <separator name="electronic convergence detail" >
     <i type="logical" name="LDIAG"> T  </i>
     <i type="logical" name="LSUBROT"> F  </i>
     <i name="WEIMIN">      0.00000000</i>
     <i name="EBREAK">      0.00000000</i>
     <i name="DEPER">      0.30000000</i>
     <i type="int" name="NRMM">     4</i>
     <i name="TIME">      0.40000000</i>
    </separator>
   </separator>
   <separator name="electronic mixer" >
    <i name="AMIX">      0.40000000</i>
    <i name="BMIX">      1.00000000</i>
    <i name="AMIN">      0.10000000</i>
    <i name="AMIX_MAG">      1.60000000</i>
    <i name="BMIX_MAG">      1.00000000</i>
    <separator name="electronic mixer details" >
     <i type="int" name="IMIX">     4</i>
     <i type="logical" name="MIXFIRST"> F  </i>
     <i type="int" name="MAXMIX">   -45</i>
     <i name="WC">    100.00000000</i>
     <i type="int" name="INIMIX">     1</i>
     <i type="int" name="MIXPRE">     1</i>
     <i type="int" name="MREMOVE">     5</i>
    </separator>
   </separator>
   <separator name="electronic dipolcorrection" >
    <i type="logical" name="LDIPOL"> F  </i>
    <i type="logical" name="LMONO"> F  </i>
    <i type="int" name="IDIPOL">     0</i>
    <i name="EPSILON">      1.00000000</i>
    <v name="DIPOL">   -100.00000000   -100.00000000   -100.00000000</v>
    <i name="EFIELD">      0.00000000</i>
   </separator>
  </separator>
  <separator name="grids" >
   <i type="int" name="NGX">    54</i>
   <i type="int" name="NGY">    54</i>
   <i type="int" name="NGZ">    54</i>
   <i type="int" name="NGXF">   108</i>
   <i type="int" name="NGYF">   108</i>
   <i type="int" name="NGZF">   108</i>
   <i type="logical" name="ADDGRID"> T  </i>
  </separator>
  <separator name="ionic" >
   <i type="int" name="NSW">     0</i>
   <i type="int" name="IBRION">    -1</i>
   <i type="int" name="MDALGO">     0</i>
   <i type="int" name="ISIF">    -1</i>
   <i name="PSTRESS">      0.00000000</i>
   <i name="EDIFFG">      0.00000001</i>
   <i type="int" name="NFREE">     0</i>
   <i name="POTIM">      0.50000000</i>
   <i name="SMASS">     -3.00000000</i>
   <i name="SCALEE">      1.00000000</i>
  </separator>
  <separator name="ionic md" >
   <i name="TEBEG">      0.00010000</i>
   <i name="TEEND">      0.00010000</i>
   <i type="int" name="NBLOCK">     1</i>
   <i type="int" name="KBLOCK">     1</i>
   <i type="int" name="NPACO">   256</i>
   <i name="APACO">     16.00000000</i>
  </separator>
  <separator name="symmetry" >
   <i type="int" name="ISYM">     2</i>
   <i name="SYMPREC">      0.00010000</i>
  </separator>
  <separator name="dos" >
   <i type="int" name="LORBIT">     0</i>
   <v name="RWIGS">     -1.00000000     -1.00000000     -1.00000000</v>
   <i type="int" name="NEDOS">   301</i>
   <i name="EMIN">     10.00000000</i>
   <i name="EMAX">    -10.00000000</i>
   <i name="EFERMI">      0.00000000</i>
  </separator>
  <separator name="writing" >
   <i type="int" name="NWRITE">     2</i>
   <i type="logical" name="LWAVE"> T  </i>
   <i type="logical" name="LDOWNSAMPLE"> F  </i>
   <i type="logical" name="LCHARG"> T  </i>
   <i type="logical" name="LPARD"> F  </i>
   <i type="logical" name="LVTOT"> F  </i>
   <i type="logical" name="LVHAR"> F  </i>
   <i type="logical" name="LELF"> F  </i>
   <i type="logical" name="LOPTICS"> F  </i>
   <v name="STM">      0.00000000      0.00000000      0.00000000      0.00000000      0.00000000      0.00000000      0.00000000</v>
  </separator>
  <separator name="performance" >
   <i type="int" name="NPAR">     6</i>
   <i type="int" name="NSIM">     4</i>
   <i type="int" name="NBLK">    -1</i>
   <i type="logical" name="LPLANE"> T  </i>
   <i type="logical" name="LSCALAPACK"> T  </i>
   <i type="logical" name="LSCAAWARE"> F  </i>
   <i type="logical" name="LSCALU"> F  </i>
   <i type="logical" name="LASYNC"> F  </i>
   <i type="logical" name="LORBITALREAL"> F  </i>
  </separator>
  <separator name="miscellaneous" >
   <i type="int" name="IDIOT">     3</i>
   <i type="int" name="PHON_NSTRUCT">    -1</i>
   <i type="logical" name="LMUSIC"> F  </i>
   <v name="POMASS">     10.81100000     95.94000000     28.08500000</v>
   <v name="DARWINR">      0.00000000      0.00000000      0.00000000</v>
   <v name="DARWINV">      1.00000000      1.00000000      1.00000000</v>
   <i type="logical" name="LCORR"> T  </i>
  </separator>
  <i type="logical" name="GGA_COMPAT"> T  </i>
  <i type="logical" name="LBERRY"> F  </i>
  <i type="int" name="ICORELEVEL">     0</i>
  <i type="logical" name="LDAU"> F  </i>
  <i type="int" name="I_CONSTRAINED_M">     0</i>
  <separator name="electronic exchange-correlation" >
   <i type="string" name="GGA">--</i>
   <i type="int" name="VOSKOWN">     0</i>
   <i type="logical" name="LHFCALC"> F  </i>
   <i type="string" name="PRECFOCK"></i>
   <i type="logical" name="LSYMGRAD"> F  </i>
   <i type="logical" name="LHFONE"> F  </i>
   <i type="logical" name="LRHFCALC"> F  </i>
   <i type="logical" name="LTHOMAS"> F  </i>
   <i type="logical" name="LMODELHF"> F  </i>
   <i type="logical" name="LFOCKACE"> F  </i>
   <i name="ENCUT4O">     -1.00000000</i>
   <i type="int" name="EXXOEP">     0</i>
   <i type="int" name="FOURORBIT">     0</i>
   <i name="AEXX">      0.00000000</i>
   <i name="HFALPHA">      0.00000000</i>
   <i name="MCALPHA">      0.00000000</i>
   <i name="ALDAX">      1.00000000</i>
   <i name="AGGAX">      1.00000000</i>
   <i name="ALDAC">      1.00000000</i>
   <i name="AGGAC">      1.00000000</i>
   <i type="int" name="NKREDX">     1</i>
   <i type="int" name="NKREDY">     1</i>
   <i type="int" name="NKREDZ">     1</i>
   <i type="logical" name="SHIFTRED"> F  </i>
   <i type="logical" name="ODDONLY"> F  </i>
   <i type="logical" name="EVENONLY"> F  </i>
   <i type="int" name="LMAXFOCK">     0</i>
   <i type="int" name="NMAXFOCKAE">     0</i>
   <i type="logical" name="LFOCKAEDFT"> F  </i>
   <i name="HFSCREEN">      0.00000000</i>
   <i name="HFSCREENC">      0.00000000</i>
   <i type="int" name="NBANDSGWLOW">     0</i>
  </separator>
  <separator name="vdW DFT" >
   <i type="logical" name="LUSE_VDW"> F  </i>
   <i name="Zab_VDW">     -0.84910000</i>
   <i name="PARAM1">      0.12340000</i>
   <i name="PARAM2">      1.00000000</i>
   <i name="PARAM3">      0.00000000</i>
  </separator>
  <separator name="model GW" >
   <i type="int" name="MODEL_GW">     0</i>
   <i name="MODEL_EPS0">      8.60557078</i>
   <i name="MODEL_ALPHA">      1.00000000</i>
  </separator>
  <separator name="linear response parameters" >
   <i type="logical" name="LEPSILON"> F  </i>
   <i type="logical" name="LRPA"> F  </i>
   <i type="logical" name="LNABLA"> F  </i>
   <i type="logical" name="LVEL"> F  </i>
   <i type="int" name="KINTER">     0</i>
   <i name="CSHIFT">      0.10000000</i>
   <i name="OMEGAMAX">     -1.00000000</i>
   <i name="DEG_THRESHOLD">      0.00200000</i>
   <i name="RTIME">     -0.10000000</i>
   <i name="WPLASMAI">      0.00000000</i>
   <v name="DFIELD">      0.00000000      0.00000000      0.00000000</v>
   <v name="WPLASMA">      0.00000000      0.00000000      0.00000000      0.00000000      0.00000000      0.00000000      0.00000000      0.00000000      0.00000000</v>
  </separator>
  <separator name="orbital magnetization" >
   <i type="logical" name="NUCIND"> F  </i>
   <v name="MAGPOS">      0.00000000      0.00000000      0.00000000</v>
   <i type="logical" name="LNICSALL"> T  </i>
   <i type="logical" name="ORBITALMAG"> F  </i>
   <i type="logical" name="LMAGBLOCH"> F  </i>
   <i type="logical" name="LCHIMAG"> F  </i>
   <i type="logical" name="LGAUGE"> T  </i>
   <i type="int" name="MAGATOM">     0</i>
   <v name="MAGDIPOL">      0.00000000      0.00000000      0.00000000</v>
   <v name="AVECCONST">      0.00000000      0.00000000      0.00000000</v>
  </separator>
  <separator name="response functions" >
   <i type="logical" name="LFINITE_TEMPERATURE"> F  </i>
   <i type="logical" name="LADDER"> F  </i>
   <i type="logical" name="LRPAFORCE"> F  </i>
   <i type="logical" name="LFXC"> F  </i>
   <i type="logical" name="LHARTREE"> T  </i>
   <i type="int" name="IBSE">     0</i>
   <v type="int" name="KPOINT">    -1     0     0     0</v>
   <i type="logical" name="LTCTC"> F  </i>
   <i type="logical" name="LTCTE"> F  </i>
   <i type="logical" name="LTETE"> F  </i>
   <i type="logical" name="LTRIPLET"> F  </i>
   <i type="logical" name="LFXCEPS"> F  </i>
   <i type="logical" name="LFXHEG"> F  </i>
   <i type="int" name="NATURALO">     2</i>
   <i type="logical" name="LHOLEGF"> F  </i>
   <i type="logical" name="L2ORDER"> F  </i>
   <i type="logical" name="LDMP1"> F  </i>
   <i type="logical" name="LMP2LT"> F  </i>
   <i type="logical" name="LSMP2LT"> F  </i>
   <i type="logical" name="LGWLF"> F  </i>
   <i name="ENCUTGW">     -2.00000000</i>
   <i name="ENCUTGWSOFT">     -2.00000000</i>
   <i name="ENCUTLF">     -1.00000000</i>
   <i type="logical" name="LESF_SPLINES"> F  </i>
   <i type="int" name="LMAXMP2">    -1</i>
   <i name="SCISSOR">      0.00000000</i>
   <i type="int" name="NOMEGA">     0</i>
   <i type="int" name="NOMEGAR">     0</i>
   <i type="int" name="NBANDSGW">    -1</i>
   <i type="int" name="NBANDSO">    -1</i>
   <i type="int" name="NBANDSV">    -1</i>
   <i type="int" name="NELM">   100</i>
   <i type="int" name="NELMHF">     1</i>
   <i type="int" name="DIM">     3</i>
   <i type="int" name="IESPILON">     4</i>
   <i type="int" name="ANTIRES">     0</i>
   <i name="OMEGAMAX">    -30.00000000</i>
   <i name="OMEGAMIN">    -30.00000000</i>
   <i name="OMEGATL">   -200.00000000</i>
   <i type="int" name="OMEGAGRID">     0</i>
   <i name="CSHIFT">     -0.10000000</i>
   <i type="logical" name="LSELFENERGY"> F  </i>
   <i type="logical" name="LSPECTRAL"> F  </i>
   <i type="logical" name="LSPECTRALGW"> F  </i>
   <i type="logical" name="LSINGLES"> F  </i>
   <i type="logical" name="LFERMIGW"> F  </i>
   <i type="logical" name="ODDONLYGW"> F  </i>
   <i type="logical" name="EVENONLYGW"> F  </i>
   <i type="int" name="NKREDLFX">     1</i>
   <i type="int" name="NKREDLFY">     1</i>
   <i type="int" name="NKREDLFZ">     1</i>
   <i type="int" name="MAXMEM">  2800</i>
   <i type="int" name="TELESCOPE">     0</i>
   <i type="int" name="NTAUPAR">    -1</i>
   <i type="int" name="NOMEGAPAR">    -1</i>
   <i name="DAMP_NEWTON">      0.80000001</i>
   <i name="LAMBDA">      1.00000000</i>
  </separator>
  <separator name="External order field" >
   <i name="OFIELD_KAPPA">      0.00000000</i>
   <v name="OFIELD_K">      0.00000000      0.00000000      0.00000000</v>
   <i name="OFIELD_Q6_NEAR">      0.00000000</i>
   <i name="OFIELD_Q6_FAR">      0.00000000</i>
   <i name="OFIELD_A">      0.00000000</i>
  </separator>
 </parameters>
 <atominfo>
  <atoms>      14 </atoms>
  <types>       3 </types>
  <array name="atoms" >
   <dimension dim="1">ion</dimension>
   <field type="string">element</field>
   <field type="int">atomtype</field>
   <set>
    <rc><c>B </c><c>   1</c></rc>
    <rc><c>B </c><c>   1</c></rc>
    <rc><c>Mo</c><c>   2</c></rc>
    <rc><c>Mo</c><c>   2</c></rc>
    <rc><c>Mo</c><c>   2</c></rc>
    <rc><c>Mo</c><c>   2</c></rc>
    <rc><c>Mo</c><c>   2</c></rc>
    <rc><c>Mo</c><c>   2</c></rc>
    <rc><c>Mo</c><c>   2</c></rc>
    <rc><c>Mo</c><c>   2</c></rc>
    <rc><c>Si</c><c>   3</c></rc>
    <rc><c>Si</c><c>   3</c></rc>
    <rc><c>Si</c><c>   3</c></rc>
    <rc><c>Si</c><c>   3</c></rc>
   </set>
  </array>
  <array name="atomtypes" >
   <dimension dim="1">type</dimension>
   <field type="int">atomspertype</field>
   <field type="string">element</field>
   <field>mass</field>
   <field>valence</field>
   <field type="string">pseudopotential</field>
   <set>
    <rc><c>   2</c><c>B </c><c>     10.81100000</c><c>      3.00000000</c><c>  PAW_PBE B 06Sep2000                   </c></rc>
    <rc><c>   8</c><c>Mo</c><c>     95.94000000</c><c>     14.00000000</c><c>  PAW_PBE Mo_sv 02Feb2006               </c></rc>
    <rc><c>   4</c><c>Si</c><c>     28.08500000</c><c>      4.00000000</c><c>  PAW_PBE Si 05Jan2001                  </c></rc>
   </set>
  </array>
 </atominfo>
 <structure name="initialpos" >
  <crystal>
   <varray name="basis" >
    <v>       5.58785496       0.00000000      -3.72015788 </v>
    <v>      -1.60294215       5.35300845      -3.72015788 </v>
    <v>       0.00000000       0.00000000       6.71295000 </v>
   </varray>
   <i name="volume">    200.79665160 </i>
   <varray name="rec_basis" >
    <v>       0.17895955       0.05358889       0.00000000 </v>
    <v>       0.00000000       0.18681084       0.00000000 </v>
    <v>       0.09917514       0.13322384       0.14896580 </v>
   </varray>
  </crystal>
  <varray name="positions" >
   <v>       0.75000000       0.25000000       0.50000000 </v>
   <v>       0.25000000       0.75000000       0.50000000 </v>
   <v>       0.50000000       0.00000000       0.00000000 </v>
   <v>       0.73985000       0.23985000       0.97971000 </v>
   <v>       0.26015000       0.76015000       0.02029000 </v>
   <v>       0.00000000       0.00000000       0.50000000 </v>
   <v>       0.23985000       0.26015000       0.50000000 </v>
   <v>       0.76015000       0.73985000       0.50000000 </v>
   <v>       0.00000000       0.50000000       0.00000000 </v>
   <v>       0.50000000       0.50000000       0.50000000 </v>
   <v>       0.36791000       0.36791000       0.00000000 </v>
   <v>       0.63209000       0.63209000       0.00000000 </v>
   <v>       0.13209000       0.13209000       0.00000000 </v>
   <v>       0.86791000       0.86791000       0.00000000 </v>
  </varray>
 </structure>
 <calculation>
  <scstep>
   <time name="total">   42.00   42.33</time>
   <energy>
    <i name="alphaZ">    755.82623618 </i>
    <i name="ewald"> -12469.46153516 </i>
    <i name="hartreedc">  -3272.52036845 </i>
    <i name="XCdc">    612.29556802 </i>
    <i name="pawpsdc">  12305.81935783 </i>
    <i name="pawaedc"> -12236.51904542 </i>
    <i name="eentropy">     -0.00078698 </i>
    <i name="bandstr">    326.21708936 </i>
    <i name="atom">  15452.86560585 </i>
    <i name="e_fr_energy">   1474.52212124 </i>
    <i name="e_wo_entrp">   1474.52290822 </i>
    <i name="e_0_energy">   1474.52251473 </i>
   </energy>
  </scstep>
  <scstep>
   <time name="total">   45.91   47.11</time>
   <energy>
    <i name="e_fr_energy">   -231.30109776 </i>
    <i name="e_wo_entrp">   -231.29915253 </i>
    <i name="e_0_energy">   -231.30012514 </i>
   </energy>
  </scstep>
  <scstep>
   <time name="total">   51.75   52.97</time>
   <energy>
    <i name="e_fr_energy">   -303.77544066 </i>
    <i name="e_wo_entrp">   -303.77234922 </i>
    <i name="e_0_energy">   -303.77389494 </i>
   </energy>
  </scstep>
  <scstep>
   <time name="total">   49.77   50.62</time>
   <energy>
    <i name="e_fr_energy">   -305.59924422 </i>
    <i name="e_wo_entrp">   -305.59683741 </i>
    <i name="e_0_energy">   -305.59804082 </i>
   </energy>
  </scstep>
  <scstep>
   <time name="total">   52.19   53.21</time>
   <energy>
    <i name="e_fr_energy">   -305.63545726 </i>
    <i name="e_wo_entrp">   -305.63305090 </i>
    <i name="e_0_energy">   -305.63425408 </i>
   </energy>
  </scstep>
  <scstep>
   <time name="total">   54.54   55.08</time>
   <energy>
    <i name="e_fr_energy">   -226.86836123 </i>
    <i name="e_wo_entrp">   -226.86631427 </i>
    <i name="e_0_energy">   -226.86733775 </i>
   </energy>
  </scstep>
  <scstep>
   <time name="total">   61.78   62.70</time>
   <energy>
    <i name="e_fr_energy">   -246.65424270 </i>
    <i name="e_wo_entrp">   -246.65275885 </i>
    <i name="e_0_energy">   -246.65350078 </i>
   </energy>
  </scstep>
  <scstep>
   <time name="total">   58.04   58.72</time>
   <energy>
    <i name="e_fr_energy">   -249.51891160 </i>
    <i name="e_wo_entrp">   -249.51760154 </i>
    <i name="e_0_energy">   -249.51825657 </i>
   </energy>
  </scstep>
  <scstep>
   <time name="total">   51.31   51.85</time>
   <energy>
    <i name="e_fr_energy">   -250.19919613 </i>
    <i name="e_wo_entrp">   -250.19766746 </i>
    <i name="e_0_energy">   -250.19843180 </i>
   </energy>
  </scstep>
  <scstep>
   <time name="total">   62.63   63.28</time>
   <energy>
    <i name="e_fr_energy">   -250.40922840 </i>
    <i name="e_wo_entrp">   -250.40752237 </i>
    <i name="e_0_energy">   -250.40837539 </i>
   </energy>
  </scstep>
  <scstep>
   <time name="total">   56.38   56.87</time>
   <energy>
    <i name="e_fr_energy">   -250.48051776 </i>
    <i name="e_wo_entrp">   -250.47866536 </i>
    <i name="e_0_energy">   -250.47959156 </i>
   </energy>
  </scstep>
  <scstep>
   <time name="total">   58.50   59.29</time>
   <energy>
    <i name="e_fr_energy">   -250.50578820 </i>
    <i name="e_wo_entrp">   -250.50390301 </i>
    <i name="e_0_energy">   -250.50484561 </i>
   </energy>
  </scstep>
  <scstep>
   <time name="total">   62.22   64.01</time>
   <energy>
    <i name="e_fr_energy">   -250.51681943 </i>
    <i name="e_wo_entrp">   -250.51493975 </i>
    <i name="e_0_energy">   -250.51587959 </i>
   </energy>
  </scstep>
  <scstep>
   <time name="total">   53.56   54.18</time>
   <energy>
    <i name="e_fr_energy">   -250.52206226 </i>
    <i name="e_wo_entrp">   -250.52021070 </i>
    <i name="e_0_energy">   -250.52113648 </i>
   </energy>
  </scstep>
  <scstep>
   <time name="total">   60.25   61.03</time>
   <energy>
    <i name="e_fr_energy">   -250.52436647 </i>
    <i name="e_wo_entrp">   -250.52251005 </i>
    <i name="e_0_energy">   -250.52343826 </i>
   </energy>
  </scstep>
  <scstep>
   <time name="total">   54.26   54.91</time>
   <energy>
    <i name="e_fr_energy">   -250.52541622 </i>
    <i name="e_wo_entrp">   -250.52356523 </i>
    <i name="e_0_energy">   -250.52449073 </i>
   </energy>
  </scstep>
  <scstep>
   <time name="total">   63.37   64.12</time>
   <energy>
    <i name="e_fr_energy">   -250.52587126 </i>
    <i name="e_wo_entrp">   -250.52401632 </i>
    <i name="e_0_energy">   -250.52494379 </i>
   </energy>
  </scstep>
  <scstep>
   <time name="total">   58.69   59.23</time>
   <energy>
    <i name="e_fr_energy">   -250.52606365 </i>
    <i name="e_wo_entrp">   -250.52421033 </i>
    <i name="e_0_energy">   -250.52513699 </i>
   </energy>
  </scstep>
  <scstep>
   <time name="total">   56.83   57.26</time>
   <energy>
    <i name="e_fr_energy">   -250.52613504 </i>
    <i name="e_wo_entrp">   -250.52427912 </i>
    <i name="e_0_energy">   -250.52520708 </i>
   </energy>
  </scstep>
  <scstep>
   <time name="total">   60.81   61.41</time>
   <energy>
    <i name="e_fr_energy">   -250.52617031 </i>
    <i name="e_wo_entrp">   -250.52431440 </i>
    <i name="e_0_energy">   -250.52524235 </i>
   </energy>
  </scstep>
  <scstep>
   <time name="total">   59.14   59.59</time>
   <energy>
    <i name="e_fr_energy">   -250.52618706 </i>
    <i name="e_wo_entrp">   -250.52432992 </i>
    <i name="e_0_energy">   -250.52525849 </i>
   </energy>
  </scstep>
  <scstep>
   <time name="total">   56.46   57.17</time>
   <energy>
    <i name="e_fr_energy">   -250.52619337 </i>
    <i name="e_wo_entrp">   -250.52433665 </i>
    <i name="e_0_energy">   -250.52526501 </i>
   </energy>
  </scstep>
  <scstep>
   <time name="total">   58.52   59.59</time>
   <energy>
    <i name="e_fr_energy">   -250.52619636 </i>
    <i name="e_wo_entrp">   -250.52433942 </i>
    <i name="e_0_energy">   -250.52526789 </i>
   </energy>
  </scstep>
  <scstep>
   <time name="total">   55.54   56.05</time>
   <energy>
    <i name="e_fr_energy">   -250.52619797 </i>
    <i name="e_wo_entrp">   -250.52434147 </i>
    <i name="e_0_energy">   -250.52526972 </i>
   </energy>
  </scstep>
  <scstep>
   <time name="total">   56.63   57.08</time>
   <energy>
    <i name="e_fr_energy">   -250.52619866 </i>
    <i name="e_wo_entrp">   -250.52434209 </i>
    <i name="e_0_energy">   -250.52527037 </i>
   </energy>
  </scstep>
  <scstep>
   <time name="total">   57.94   58.52</time>
   <energy>
    <i name="e_fr_energy">   -250.52619885 </i>
    <i name="e_wo_entrp">   -250.52434229 </i>
    <i name="e_0_energy">   -250.52527057 </i>
   </energy>
  </scstep>
  <scstep>
   <time name="total">   59.18   60.09</time>
   <energy>
    <i name="e_fr_energy">   -250.52619896 </i>
    <i name="e_wo_entrp">   -250.52434253 </i>
    <i name="e_0_energy">   -250.52527075 </i>
   </energy>
  </scstep>
  <scstep>
   <time name="total">   56.65   57.80</time>
   <energy>
    <i name="e_fr_energy">   -250.52619903 </i>
    <i name="e_wo_entrp">   -250.52434270 </i>
    <i name="e_0_energy">   -250.52527086 </i>
   </energy>
  </scstep>
  <scstep>
   <time name="total">   51.84   52.37</time>
   <energy>
    <i name="e_fr_energy">   -250.52619906 </i>
    <i name="e_wo_entrp">   -250.52434274 </i>
    <i name="e_0_energy">   -250.52527090 </i>
   </energy>
  </scstep>
  <scstep>
   <time name="total">   57.12   57.65</time>
   <energy>
    <i name="e_fr_energy">   -250.52619908 </i>
    <i name="e_wo_entrp">   -250.52434276 </i>
    <i name="e_0_energy">   -250.52527092 </i>
   </energy>
  </scstep>
  <scstep>
   <time name="total">   52.02   52.65</time>
   <energy>
    <i name="e_fr_energy">   -250.52619908 </i>
    <i name="e_wo_entrp">   -250.52434277 </i>
    <i name="e_0_energy">   -250.52527093 </i>
   </energy>
  </scstep>
  <scstep>
   <time name="total">   57.61   58.49</time>
   <energy>
    <i name="e_fr_energy">   -250.52619908 </i>
    <i name="e_wo_entrp">   -250.52434276 </i>
    <i name="e_0_energy">   -250.52527092 </i>
   </energy>
  </scstep>
  <scstep>
   <time name="total">   57.24   58.82</time>
   <energy>
    <i name="e_fr_energy">   -250.52619909 </i>
    <i name="e_wo_entrp">   -250.52434278 </i>
    <i name="e_0_energy">   -250.52527093 </i>
   </energy>
  </scstep>
  <scstep>
   <time name="total">   55.95   57.52</time>
   <energy>
    <i name="e_fr_energy">   -250.52619910 </i>
    <i name="e_wo_entrp">   -250.52434277 </i>
    <i name="e_0_energy">   -250.52527093 </i>
   </energy>
  </scstep>
  <scstep>
   <time name="total">   58.34   59.02</time>
   <energy>
    <i name="e_fr_energy">   -250.52619910 </i>
    <i name="e_wo_entrp">   -250.52434278 </i>
    <i name="e_0_energy">   -250.52527094 </i>
   </energy>
  </scstep>
  <scstep>
   <time name="total">   63.14   63.72</time>
   <energy>
    <i name="alphaZ">    755.82623618 </i>
    <i name="ewald"> -12469.46153516 </i>
    <i name="hartreedc">  -3104.11451241 </i>
    <i name="XCdc">    625.40391868 </i>
    <i name="pawpsdc">  18300.85276529 </i>
    <i name="pawaedc"> -18256.03560642 </i>
    <i name="eentropy">     -0.00185632 </i>
    <i name="bandstr">  -1555.86121479 </i>
    <i name="atom">  15452.86560585 </i>
    <i name="e_fr_energy">   -250.52619910 </i>
    <i name="e_wo_entrp">   -250.52434278 </i>
    <i name="e_0_energy">   -250.52527094 </i>
   </energy>
  </scstep>
  <structure>
   <crystal>
    <varray name="basis" >
     <v>       5.58785496       0.00000000      -3.72015788 </v>
     <v>      -1.60294215       5.35300845      -3.72015788 </v>
     <v>       0.00000000       0.00000000       6.71295000 </v>
    </varray>
    <i name="volume">    200.79665160 </i>
    <varray name="rec_basis" >
     <v>       0.17895955       0.05358889       0.00000000 </v>
     <v>       0.00000000       0.18681084       0.00000000 </v>
     <v>       0.09917514       0.13322384       0.14896580 </v>
    </varray>
   </crystal>
   <varray name="positions" >
    <v>       0.75000000       0.25000000       0.50000000 </v>
    <v>       0.25000000       0.75000000       0.50000000 </v>
    <v>       0.50000000       0.00000000       0.00000000 </v>
    <v>       0.73985000       0.23985000       0.97971000 </v>
    <v>       0.26015000       0.76015000       0.02029000 </v>
    <v>       0.00000000       0.00000000       0.50000000 </v>
    <v>       0.23985000       0.26015000       0.50000000 </v>
    <v>       0.76015000       0.73985000       0.50000000 </v>
    <v>       0.00000000       0.50000000       0.00000000 </v>
    <v>       0.50000000       0.50000000       0.50000000 </v>
    <v>       0.36791000       0.36791000       0.00000000 </v>
    <v>       0.63209000       0.63209000       0.00000000 </v>
    <v>       0.13209000       0.13209000       0.00000000 </v>
    <v>       0.86791000       0.86791000       0.00000000 </v>
   </varray>
  </structure>
  <varray name="forces" >
   <v>       0.00000000       0.00000000       0.00000000 </v>
   <v>       0.00000000       0.00000000       0.00000000 </v>
   <v>       0.00000000       0.00000000       0.00000000 </v>
   <v>       0.00000000       0.00000000       0.00000000 </v>
   <v>       0.00000000       0.00000000       0.00000000 </v>
   <v>       0.00000000       0.00000000       0.00000000 </v>
   <v>       0.00000000       0.00000000       0.00000000 </v>
   <v>       0.00000000       0.00000000       0.00000000 </v>
   <v>       0.00000000       0.00000000       0.00000000 </v>
   <v>       0.00000000       0.00000000       0.00000000 </v>
   <v>       0.00000000       0.00000000       0.00000000 </v>
   <v>       0.00000000       0.00000000       0.00000000 </v>
   <v>       0.00000000       0.00000000       0.00000000 </v>
   <v>       0.00000000       0.00000000       0.00000000 </v>
  </varray>
  <varray name="stress" >
   <v>       0.00000000       0.00000000       0.00000000 </v>
   <v>       0.00000000       0.00000000       0.00000000 </v>
   <v>       0.00000000       0.00000000       0.00000000 </v>
  </varray>
  <energy>
   <i name="e_fr_energy">   -250.52619910 </i>
   <i name="e_wo_entrp">   -250.52434278 </i>
   <i name="e_0_energy">   -250.52527094 </i>
  </energy>
  <time name="totalsc"> 2032.55 2060.80</time>
  <eigenvalues>
   <array>
    <dimension dim="1">band</dimension>
    <dimension dim="2">kpoint</dimension>
    <dimension dim="3">spin</dimension>
    <field>eigene</field>
    <field>occ</field>
    <set>
     <set comment="spin 1">
      <set comment="kpoint 1">
       <r>  -51.9112    1.0000 </r>
       <r>  -51.8645    1.0000 </r>
       <r>  -51.7563    1.0000 </r>
       <r>  -51.7561    1.0000 </r>
       <r>  -51.6947    1.0000 </r>
       <r>  -51.6947    1.0000 </r>
       <r>  -51.5793    1.0000 </r>
       <r>  -51.5367    1.0000 </r>
       <r>  -26.3374    1.0000 </r>
       <r>  -26.2531    1.0000 </r>
       <r>  -25.4671    1.0000 </r>
       <r>  -25.4670    1.0000 </r>
       <r>  -25.4428    1.0000 </r>
       <r>  -25.4012    1.0000 </r>
       <r>  -25.3222    1.0000 </r>
       <r>  -25.3220    1.0000 </r>
       <r>  -25.2992    1.0000 </r>
       <r>  -25.2570    1.0000 </r>
       <r>  -25.2570    1.0000 </r>
       <r>  -25.2143    1.0000 </r>
       <r>  -25.1663    1.0000 </r>
       <r>  -25.1661    1.0000 </r>
       <r>  -25.1389    1.0000 </r>
       <r>  -25.1389    1.0000 </r>
       <r>  -25.0866    1.0000 </r>
       <r>  -25.0744    1.0000 </r>
       <r>  -24.9580    1.0000 </r>
       <r>  -24.9440    1.0000 </r>
       <r>  -24.8967    1.0000 </r>
       <r>  -24.8966    1.0000 </r>
       <r>  -24.1961    1.0000 </r>
       <r>  -24.1624    1.0000 </r>
       <r>   -1.6664    1.0000 </r>
       <r>    1.1049    1.0000 </r>
       <r>    1.7049    1.0000 </r>
       <r>    2.2479    1.0000 </r>
       <r>    3.4233    1.0000 </r>
       <r>    4.4082    1.0000 </r>
       <r>    4.8773    1.0000 </r>
       <r>    4.8775    1.0000 </r>
       <r>    5.1984    1.0000 </r>
       <r>    5.1986    1.0000 </r>
       <r>    5.3628    1.0000 </r>
       <r>    6.1042    1.0000 </r>
       <r>    6.1043    1.0000 </r>
       <r>    6.4338    1.0000 </r>
       <r>    6.4606    1.0000 </r>
       <r>    6.9581    1.0000 </r>
       <r>    6.9706    1.0000 </r>
       <r>    7.3257    1.0000 </r>
       <r>    7.3257    1.0000 </r>
       <r>    7.7370    1.0000 </r>
       <r>    7.7371    1.0000 </r>
       <r>    8.0974    1.0000 </r>
       <r>    8.7087    1.0000 </r>
       <r>    8.7488    1.0000 </r>
       <r>    8.8606    1.0000 </r>
       <r>    8.8608    1.0000 </r>
       <r>    9.2139    1.0000 </r>
       <r>    9.9682    1.0000 </r>
       <r>    9.9683    1.0000 </r>
       <r>   10.1187    1.0000 </r>
       <r>   10.1188    1.0000 </r>
       <r>   10.2239    1.0000 </r>
       <r>   10.3644    1.0000 </r>
       <r>   10.4757    1.0000 </r>
       <r>   10.6137    1.0000 </r>
       <r>   10.6137    1.0000 </r>
       <r>   10.9688    0.9985 </r>
       <r>   11.1292    0.0000 </r>
       <r>   11.5846    0.0000 </r>
       <r>   11.9144    0.0000 </r>
       <r>   12.1398    0.0000 </r>
       <r>   12.1399    0.0000 </r>
       <r>   12.3591    0.0000 </r>
       <r>   13.1343    0.0000 </r>
       <r>   13.1343    0.0000 </r>
       <r>   13.3047    0.0000 </r>
       <r>   13.5267    0.0000 </r>
       <r>   13.5269    0.0000 </r>
       <r>   13.9563    0.0000 </r>
       <r>   14.0774    0.0000 </r>
       <r>   14.1839    0.0000 </r>
       <r>   14.2064    0.0000 </r>
      </set>
      <set comment="kpoint 2">
       <r>  -51.9062    1.0000 </r>
       <r>  -51.8618    1.0000 </r>
       <r>  -51.7738    1.0000 </r>
       <r>  -51.7716    1.0000 </r>
       <r>  -51.6791    1.0000 </r>
       <r>  -51.6769    1.0000 </r>
       <r>  -51.5824    1.0000 </r>
       <r>  -51.5418    1.0000 </r>
       <r>  -26.3108    1.0000 </r>
       <r>  -26.2311    1.0000 </r>
       <r>  -25.5230    1.0000 </r>
       <r>  -25.5198    1.0000 </r>
       <r>  -25.4664    1.0000 </r>
       <r>  -25.4562    1.0000 </r>
       <r>  -25.4484    1.0000 </r>
       <r>  -25.3705    1.0000 </r>
       <r>  -25.3015    1.0000 </r>
       <r>  -25.1964    1.0000 </r>
       <r>  -25.1755    1.0000 </r>
       <r>  -25.1595    1.0000 </r>
       <r>  -25.1589    1.0000 </r>
       <r>  -25.1449    1.0000 </r>
       <r>  -25.1196    1.0000 </r>
       <r>  -25.0581    1.0000 </r>
       <r>  -25.0439    1.0000 </r>
       <r>  -25.0424    1.0000 </r>
       <r>  -24.9863    1.0000 </r>
       <r>  -24.9302    1.0000 </r>
       <r>  -24.9109    1.0000 </r>
       <r>  -24.8971    1.0000 </r>
       <r>  -24.2248    1.0000 </r>
       <r>  -24.1920    1.0000 </r>
       <r>   -1.5513    1.0000 </r>
       <r>    0.9565    1.0000 </r>
       <r>    1.7045    1.0000 </r>
       <r>    2.3163    1.0000 </r>
       <r>    3.2505    1.0000 </r>
       <r>    4.0702    1.0000 </r>
       <r>    4.7756    1.0000 </r>
       <r>    4.9311    1.0000 </r>
       <r>    5.1575    1.0000 </r>
       <r>    5.3295    1.0000 </r>
       <r>    5.9895    1.0000 </r>
       <r>    6.0535    1.0000 </r>
       <r>    6.2661    1.0000 </r>
       <r>    6.5206    1.0000 </r>
       <r>    6.5383    1.0000 </r>
       <r>    6.8947    1.0000 </r>
       <r>    6.9388    1.0000 </r>
       <r>    7.1614    1.0000 </r>
       <r>    7.4229    1.0000 </r>
       <r>    7.6139    1.0000 </r>
       <r>    7.7208    1.0000 </r>
       <r>    8.0473    1.0000 </r>
       <r>    8.6983    1.0000 </r>
       <r>    8.8582    1.0000 </r>
       <r>    8.8999    1.0000 </r>
       <r>    9.0474    1.0000 </r>
       <r>    9.2341    1.0000 </r>
       <r>    9.4339    1.0000 </r>
       <r>    9.5377    1.0000 </r>
       <r>    9.8133    1.0000 </r>
       <r>   10.3440    1.0000 </r>
       <r>   10.4134    1.0000 </r>
       <r>   10.5139    1.0000 </r>
       <r>   10.5143    1.0000 </r>
       <r>   10.8088    1.0000 </r>
       <r>   10.8632    1.0000 </r>
       <r>   10.9594    0.9999 </r>
       <r>   11.2066    0.0000 </r>
       <r>   11.6005    0.0000 </r>
       <r>   11.9846    0.0000 </r>
       <r>   12.1731    0.0000 </r>
       <r>   12.2605    0.0000 </r>
       <r>   12.3117    0.0000 </r>
       <r>   13.1136    0.0000 </r>
       <r>   13.1171    0.0000 </r>
       <r>   13.2784    0.0000 </r>
       <r>   13.3457    0.0000 </r>
       <r>   13.3948    0.0000 </r>
       <r>   13.5641    0.0000 </r>
       <r>   13.7931    0.0000 </r>
       <r>   14.1276    0.0000 </r>
       <r>   14.3305    0.0000 </r>
      </set>
      <set comment="kpoint 3">
       <r>  -51.8914    1.0000 </r>
       <r>  -51.8537    1.0000 </r>
       <r>  -51.8059    1.0000 </r>
       <r>  -51.7974    1.0000 </r>
       <r>  -51.6525    1.0000 </r>
       <r>  -51.6441    1.0000 </r>
       <r>  -51.5917    1.0000 </r>
       <r>  -51.5568    1.0000 </r>
       <r>  -26.2322    1.0000 </r>
       <r>  -26.1654    1.0000 </r>
       <r>  -25.7419    1.0000 </r>
       <r>  -25.7283    1.0000 </r>
       <r>  -25.4675    1.0000 </r>
       <r>  -25.4658    1.0000 </r>
       <r>  -25.3993    1.0000 </r>
       <r>  -25.3174    1.0000 </r>
       <r>  -25.2967    1.0000 </r>
       <r>  -25.2036    1.0000 </r>
       <r>  -25.1811    1.0000 </r>
       <r>  -25.1743    1.0000 </r>
       <r>  -25.1520    1.0000 </r>
       <r>  -25.1387    1.0000 </r>
       <r>  -25.1231    1.0000 </r>
       <r>  -25.0551    1.0000 </r>
       <r>  -25.0294    1.0000 </r>
       <r>  -24.9591    1.0000 </r>
       <r>  -24.9211    1.0000 </r>
       <r>  -24.9058    1.0000 </r>
       <r>  -24.8185    1.0000 </r>
       <r>  -24.8100    1.0000 </r>
       <r>  -24.3088    1.0000 </r>
       <r>  -24.2788    1.0000 </r>
       <r>   -1.2185    1.0000 </r>
       <r>    0.5203    1.0000 </r>
       <r>    1.7642    1.0000 </r>
       <r>    2.4894    1.0000 </r>
       <r>    2.8343    1.0000 </r>
       <r>    3.6296    1.0000 </r>
       <r>    4.7613    1.0000 </r>
       <r>    5.0427    1.0000 </r>
       <r>    5.5071    1.0000 </r>
       <r>    5.6631    1.0000 </r>
       <r>    5.8707    1.0000 </r>
       <r>    6.3892    1.0000 </r>
       <r>    6.4640    1.0000 </r>
       <r>    6.5800    1.0000 </r>
       <r>    6.6190    1.0000 </r>
       <r>    6.6993    1.0000 </r>
       <r>    6.9380    1.0000 </r>
       <r>    7.0525    1.0000 </r>
       <r>    7.5877    1.0000 </r>
       <r>    7.6358    1.0000 </r>
       <r>    7.7252    1.0000 </r>
       <r>    8.3054    1.0000 </r>
       <r>    8.5891    1.0000 </r>
       <r>    8.8016    1.0000 </r>
       <r>    8.8856    1.0000 </r>
       <r>    8.9051    1.0000 </r>
       <r>    9.1021    1.0000 </r>
       <r>    9.3560    1.0000 </r>
       <r>    9.4924    1.0000 </r>
       <r>    9.5887    1.0000 </r>
       <r>    9.8148    1.0000 </r>
       <r>   10.4413    1.0000 </r>
       <r>   10.6088    1.0000 </r>
       <r>   10.8425    1.0000 </r>
       <r>   10.9047    1.0000 </r>
       <r>   11.2035    0.0000 </r>
       <r>   11.4285    0.0000 </r>
       <r>   11.4475    0.0000 </r>
       <r>   11.6089    0.0000 </r>
       <r>   11.9173    0.0000 </r>
       <r>   12.1169    0.0000 </r>
       <r>   12.2776    0.0000 </r>
       <r>   12.5546    0.0000 </r>
       <r>   12.7229    0.0000 </r>
       <r>   12.7828    0.0000 </r>
       <r>   12.9191    0.0000 </r>
       <r>   12.9546    0.0000 </r>
       <r>   13.6505    0.0000 </r>
       <r>   13.6795    0.0000 </r>
       <r>   13.6840    0.0000 </r>
       <r>   13.7552    0.0000 </r>
       <r>   14.2527    0.0000 </r>
      </set>
      <set comment="kpoint 4">
       <r>  -51.8683    1.0000 </r>
       <r>  -51.8403    1.0000 </r>
       <r>  -51.8388    1.0000 </r>
       <r>  -51.8212    1.0000 </r>
       <r>  -51.6275    1.0000 </r>
       <r>  -51.6105    1.0000 </r>
       <r>  -51.6068    1.0000 </r>
       <r>  -51.5804    1.0000 </r>
       <r>  -26.1063    1.0000 </r>
       <r>  -26.0575    1.0000 </r>
       <r>  -25.9399    1.0000 </r>
       <r>  -25.9102    1.0000 </r>
       <r>  -25.4687    1.0000 </r>
       <r>  -25.4675    1.0000 </r>
       <r>  -25.3275    1.0000 </r>
       <r>  -25.2794    1.0000 </r>
       <r>  -25.2592    1.0000 </r>
       <r>  -25.2481    1.0000 </r>
       <r>  -25.2427    1.0000 </r>
       <r>  -25.2140    1.0000 </r>
       <r>  -25.1108    1.0000 </r>
       <r>  -25.0960    1.0000 </r>
       <r>  -25.0889    1.0000 </r>
       <r>  -25.0755    1.0000 </r>
       <r>  -25.0673    1.0000 </r>
       <r>  -25.0206    1.0000 </r>
       <r>  -24.9151    1.0000 </r>
       <r>  -24.9092    1.0000 </r>
       <r>  -24.6162    1.0000 </r>
       <r>  -24.5987    1.0000 </r>
       <r>  -24.4423    1.0000 </r>
       <r>  -24.4174    1.0000 </r>
       <r>   -0.7072    1.0000 </r>
       <r>   -0.0885    1.0000 </r>
       <r>    1.9552    1.0000 </r>
       <r>    2.2908    1.0000 </r>
       <r>    2.8703    1.0000 </r>
       <r>    3.2282    1.0000 </r>
       <r>    5.0255    1.0000 </r>
       <r>    5.3445    1.0000 </r>
       <r>    5.4338    1.0000 </r>
       <r>    5.8067    1.0000 </r>
       <r>    5.8930    1.0000 </r>
       <r>    6.1998    1.0000 </r>
       <r>    6.2652    1.0000 </r>
       <r>    6.6139    1.0000 </r>
       <r>    6.6603    1.0000 </r>
       <r>    6.6851    1.0000 </r>
       <r>    7.1803    1.0000 </r>
       <r>    7.2445    1.0000 </r>
       <r>    7.6967    1.0000 </r>
       <r>    7.7607    1.0000 </r>
       <r>    7.8414    1.0000 </r>
       <r>    7.9366    1.0000 </r>
       <r>    8.5527    1.0000 </r>
       <r>    8.7412    1.0000 </r>
       <r>    8.8065    1.0000 </r>
       <r>    8.8526    1.0000 </r>
       <r>    9.2668    1.0000 </r>
       <r>    9.4059    1.0000 </r>
       <r>    9.5193    1.0000 </r>
       <r>    9.7939    1.0000 </r>
       <r>    9.9242    1.0000 </r>
       <r>   10.1337    1.0000 </r>
       <r>   10.3521    1.0000 </r>
       <r>   10.7587    1.0000 </r>
       <r>   11.0956    0.0000 </r>
       <r>   11.2324    0.0000 </r>
       <r>   11.3437    0.0000 </r>
       <r>   11.6273    0.0000 </r>
       <r>   11.8771    0.0000 </r>
       <r>   11.9104    0.0000 </r>
       <r>   12.2174    0.0000 </r>
       <r>   12.3341    0.0000 </r>
       <r>   12.4409    0.0000 </r>
       <r>   12.5726    0.0000 </r>
       <r>   12.8920    0.0000 </r>
       <r>   12.9499    0.0000 </r>
       <r>   13.0838    0.0000 </r>
       <r>   13.3146    0.0000 </r>
       <r>   13.3583    0.0000 </r>
       <r>   13.7735    0.0000 </r>
       <r>   13.8066    0.0000 </r>
       <r>   13.9558    0.0000 </r>
      </set>
      <set comment="kpoint 5">
       <r>  -51.8936    1.0000 </r>
       <r>  -51.8517    1.0000 </r>
       <r>  -51.8017    1.0000 </r>
       <r>  -51.8016    1.0000 </r>
       <r>  -51.6483    1.0000 </r>
       <r>  -51.6483    1.0000 </r>
       <r>  -51.5936    1.0000 </r>
       <r>  -51.5549    1.0000 </r>
       <r>  -26.2361    1.0000 </r>
       <r>  -26.1619    1.0000 </r>
       <r>  -25.7350    1.0000 </r>
       <r>  -25.7347    1.0000 </r>
       <r>  -25.4795    1.0000 </r>
       <r>  -25.4433    1.0000 </r>
       <r>  -25.4407    1.0000 </r>
       <r>  -25.3286    1.0000 </r>
       <r>  -25.3159    1.0000 </r>
       <r>  -25.1717    1.0000 </r>
       <r>  -25.1695    1.0000 </r>
       <r>  -25.1658    1.0000 </r>
       <r>  -25.1562    1.0000 </r>
       <r>  -25.1509    1.0000 </r>
       <r>  -25.1490    1.0000 </r>
       <r>  -25.0371    1.0000 </r>
       <r>  -25.0197    1.0000 </r>
       <r>  -24.9240    1.0000 </r>
       <r>  -24.9230    1.0000 </r>
       <r>  -24.9122    1.0000 </r>
       <r>  -24.8143    1.0000 </r>
       <r>  -24.8142    1.0000 </r>
       <r>  -24.3105    1.0000 </r>
       <r>  -24.2772    1.0000 </r>
       <r>   -1.3794    1.0000 </r>
       <r>    0.7439    1.0000 </r>
       <r>    1.8223    1.0000 </r>
       <r>    2.3645    1.0000 </r>
       <r>    2.7974    1.0000 </r>
       <r>    3.8341    1.0000 </r>
       <r>    4.9407    1.0000 </r>
       <r>    5.0049    1.0000 </r>
       <r>    5.1530    1.0000 </r>
       <r>    5.3776    1.0000 </r>
       <r>    6.2012    1.0000 </r>
       <r>    6.2170    1.0000 </r>
       <r>    6.4532    1.0000 </r>
       <r>    6.5785    1.0000 </r>
       <r>    6.7440    1.0000 </r>
       <r>    6.9251    1.0000 </r>
       <r>    6.9499    1.0000 </r>
       <r>    7.0190    1.0000 </r>
       <r>    7.5243    1.0000 </r>
       <r>    7.6498    1.0000 </r>
       <r>    7.6538    1.0000 </r>
       <r>    7.9554    1.0000 </r>
       <r>    8.6522    1.0000 </r>
       <r>    8.6534    1.0000 </r>
       <r>    8.7943    1.0000 </r>
       <r>    8.8125    1.0000 </r>
       <r>    9.2034    1.0000 </r>
       <r>    9.2260    1.0000 </r>
       <r>    9.4321    1.0000 </r>
       <r>    9.9155    1.0000 </r>
       <r>   10.0104    1.0000 </r>
       <r>   10.2799    1.0000 </r>
       <r>   10.5130    1.0000 </r>
       <r>   10.7663    1.0000 </r>
       <r>   10.8487    1.0000 </r>
       <r>   11.4347    0.0000 </r>
       <r>   11.4637    0.0000 </r>
       <r>   11.5123    0.0000 </r>
       <r>   11.9035    0.0000 </r>
       <r>   11.9059    0.0000 </r>
       <r>   12.0366    0.0000 </r>
       <r>   12.1760    0.0000 </r>
       <r>   12.7077    0.0000 </r>
       <r>   12.9485    0.0000 </r>
       <r>   13.0518    0.0000 </r>
       <r>   13.2722    0.0000 </r>
       <r>   13.3573    0.0000 </r>
       <r>   13.3782    0.0000 </r>
       <r>   13.3892    0.0000 </r>
       <r>   13.6877    0.0000 </r>
       <r>   13.7396    0.0000 </r>
       <r>   14.1009    0.0000 </r>
      </set>
      <set comment="kpoint 6">
       <r>  -51.8719    1.0000 </r>
       <r>  -51.8368    1.0000 </r>
       <r>  -51.8331    1.0000 </r>
       <r>  -51.8268    1.0000 </r>
       <r>  -51.6220    1.0000 </r>
       <r>  -51.6160    1.0000 </r>
       <r>  -51.6101    1.0000 </r>
       <r>  -51.5771    1.0000 </r>
       <r>  -26.1128    1.0000 </r>
       <r>  -26.0519    1.0000 </r>
       <r>  -25.9300    1.0000 </r>
       <r>  -25.9193    1.0000 </r>
       <r>  -25.4853    1.0000 </r>
       <r>  -25.4360    1.0000 </r>
       <r>  -25.3861    1.0000 </r>
       <r>  -25.3147    1.0000 </r>
       <r>  -25.2761    1.0000 </r>
       <r>  -25.2077    1.0000 </r>
       <r>  -25.1967    1.0000 </r>
       <r>  -25.1755    1.0000 </r>
       <r>  -25.1529    1.0000 </r>
       <r>  -25.1299    1.0000 </r>
       <r>  -25.1215    1.0000 </r>
       <r>  -25.0625    1.0000 </r>
       <r>  -25.0347    1.0000 </r>
       <r>  -24.9711    1.0000 </r>
       <r>  -24.9309    1.0000 </r>
       <r>  -24.9069    1.0000 </r>
       <r>  -24.6105    1.0000 </r>
       <r>  -24.6042    1.0000 </r>
       <r>  -24.4454    1.0000 </r>
       <r>  -24.4145    1.0000 </r>
       <r>   -1.0067    1.0000 </r>
       <r>    0.3102    1.0000 </r>
       <r>    2.0044    1.0000 </r>
       <r>    2.2197    1.0000 </r>
       <r>    2.6560    1.0000 </r>
       <r>    3.4670    1.0000 </r>
       <r>    5.0395    1.0000 </r>
       <r>    5.1853    1.0000 </r>
       <r>    5.4081    1.0000 </r>
       <r>    5.7153    1.0000 </r>
       <r>    5.7981    1.0000 </r>
       <r>    6.2706    1.0000 </r>
       <r>    6.3400    1.0000 </r>
       <r>    6.7408    1.0000 </r>
       <r>    6.8600    1.0000 </r>
       <r>    6.9333    1.0000 </r>
       <r>    7.0694    1.0000 </r>
       <r>    7.1800    1.0000 </r>
       <r>    7.5590    1.0000 </r>
       <r>    7.6647    1.0000 </r>
       <r>    7.8709    1.0000 </r>
       <r>    8.0034    1.0000 </r>
       <r>    8.1938    1.0000 </r>
       <r>    8.3736    1.0000 </r>
       <r>    8.6981    1.0000 </r>
       <r>    8.8750    1.0000 </r>
       <r>    9.2128    1.0000 </r>
       <r>    9.3604    1.0000 </r>
       <r>    9.4575    1.0000 </r>
       <r>    9.7275    1.0000 </r>
       <r>    9.9611    1.0000 </r>
       <r>   10.1703    1.0000 </r>
       <r>   10.6656    1.0000 </r>
       <r>   11.0141    0.4099 </r>
       <r>   11.1691    0.0000 </r>
       <r>   11.3439    0.0000 </r>
       <r>   11.4628    0.0000 </r>
       <r>   11.5779    0.0000 </r>
       <r>   11.8498    0.0000 </r>
       <r>   11.9824    0.0000 </r>
       <r>   12.2702    0.0000 </r>
       <r>   12.4549    0.0000 </r>
       <r>   12.5745    0.0000 </r>
       <r>   12.6576    0.0000 </r>
       <r>   12.9421    0.0000 </r>
       <r>   13.0345    0.0000 </r>
       <r>   13.1092    0.0000 </r>
       <r>   13.1774    0.0000 </r>
       <r>   13.4107    0.0000 </r>
       <r>   13.5511    0.0000 </r>
       <r>   13.9738    0.0000 </r>
       <r>   14.0279    0.0000 </r>
      </set>
      <set comment="kpoint 7">
       <r>  -51.8620    1.0000 </r>
       <r>  -51.8464    1.0000 </r>
       <r>  -51.8429    1.0000 </r>
       <r>  -51.8173    1.0000 </r>
       <r>  -51.6313    1.0000 </r>
       <r>  -51.6067    1.0000 </r>
       <r>  -51.6009    1.0000 </r>
       <r>  -51.5862    1.0000 </r>
       <r>  -26.0949    1.0000 </r>
       <r>  -26.0678    1.0000 </r>
       <r>  -25.9471    1.0000 </r>
       <r>  -25.9041    1.0000 </r>
       <r>  -25.4806    1.0000 </r>
       <r>  -25.4309    1.0000 </r>
       <r>  -25.3097    1.0000 </r>
       <r>  -25.2924    1.0000 </r>
       <r>  -25.2747    1.0000 </r>
       <r>  -25.2346    1.0000 </r>
       <r>  -25.2257    1.0000 </r>
       <r>  -25.2119    1.0000 </r>
       <r>  -25.1271    1.0000 </r>
       <r>  -25.1036    1.0000 </r>
       <r>  -25.0999    1.0000 </r>
       <r>  -25.0645    1.0000 </r>
       <r>  -25.0527    1.0000 </r>
       <r>  -25.0379    1.0000 </r>
       <r>  -24.9404    1.0000 </r>
       <r>  -24.9062    1.0000 </r>
       <r>  -24.6203    1.0000 </r>
       <r>  -24.5950    1.0000 </r>
       <r>  -24.4366    1.0000 </r>
       <r>  -24.4228    1.0000 </r>
       <r>   -0.4823    1.0000 </r>
       <r>   -0.2491    1.0000 </r>
       <r>    1.8654    1.0000 </r>
       <r>    2.3146    1.0000 </r>
       <r>    2.8959    1.0000 </r>
       <r>    3.1347    1.0000 </r>
       <r>    5.1894    1.0000 </r>
       <r>    5.3122    1.0000 </r>
       <r>    5.4146    1.0000 </r>
       <r>    5.8493    1.0000 </r>
       <r>    5.8829    1.0000 </r>
       <r>    6.1692    1.0000 </r>
       <r>    6.3819    1.0000 </r>
       <r>    6.4968    1.0000 </r>
       <r>    6.6279    1.0000 </r>
       <r>    6.9165    1.0000 </r>
       <r>    7.1983    1.0000 </r>
       <r>    7.3844    1.0000 </r>
       <r>    7.5344    1.0000 </r>
       <r>    7.6794    1.0000 </r>
       <r>    7.8095    1.0000 </r>
       <r>    8.0847    1.0000 </r>
       <r>    8.1979    1.0000 </r>
       <r>    8.5920    1.0000 </r>
       <r>    8.6396    1.0000 </r>
       <r>    8.7413    1.0000 </r>
       <r>    9.2716    1.0000 </r>
       <r>    9.5295    1.0000 </r>
       <r>    9.6363    1.0000 </r>
       <r>    9.7473    1.0000 </r>
       <r>   10.0024    1.0000 </r>
       <r>   10.1526    1.0000 </r>
       <r>   10.5879    1.0000 </r>
       <r>   10.8278    1.0000 </r>
       <r>   11.1524    0.0000 </r>
       <r>   11.1748    0.0000 </r>
       <r>   11.2742    0.0000 </r>
       <r>   11.3926    0.0000 </r>
       <r>   11.8461    0.0000 </r>
       <r>   12.1697    0.0000 </r>
       <r>   12.1874    0.0000 </r>
       <r>   12.3462    0.0000 </r>
       <r>   12.5263    0.0000 </r>
       <r>   12.5490    0.0000 </r>
       <r>   12.8407    0.0000 </r>
       <r>   13.0764    0.0000 </r>
       <r>   13.1878    0.0000 </r>
       <r>   13.3874    0.0000 </r>
       <r>   13.4280    0.0000 </r>
       <r>   13.5269    0.0000 </r>
       <r>   13.7637    0.0000 </r>
       <r>   14.1951    0.0000 </r>
      </set>
      <set comment="kpoint 8">
       <r>  -51.8856    1.0000 </r>
       <r>  -51.8595    1.0000 </r>
       <r>  -51.8094    1.0000 </r>
       <r>  -51.7941    1.0000 </r>
       <r>  -51.6560    1.0000 </r>
       <r>  -51.6408    1.0000 </r>
       <r>  -51.5863    1.0000 </r>
       <r>  -51.5622    1.0000 </r>
       <r>  -26.2214    1.0000 </r>
       <r>  -26.1751    1.0000 </r>
       <r>  -25.7479    1.0000 </r>
       <r>  -25.7234    1.0000 </r>
       <r>  -25.4728    1.0000 </r>
       <r>  -25.4270    1.0000 </r>
       <r>  -25.3485    1.0000 </r>
       <r>  -25.2830    1.0000 </r>
       <r>  -25.2527    1.0000 </r>
       <r>  -25.2469    1.0000 </r>
       <r>  -25.2268    1.0000 </r>
       <r>  -25.1861    1.0000 </r>
       <r>  -25.1366    1.0000 </r>
       <r>  -25.1098    1.0000 </r>
       <r>  -25.1022    1.0000 </r>
       <r>  -25.0839    1.0000 </r>
       <r>  -25.0607    1.0000 </r>
       <r>  -25.0029    1.0000 </r>
       <r>  -24.9489    1.0000 </r>
       <r>  -24.9080    1.0000 </r>
       <r>  -24.8222    1.0000 </r>
       <r>  -24.8067    1.0000 </r>
       <r>  -24.3041    1.0000 </r>
       <r>  -24.2834    1.0000 </r>
       <r>   -0.8009    1.0000 </r>
       <r>    0.1085    1.0000 </r>
       <r>    1.6262    1.0000 </r>
       <r>    2.7269    1.0000 </r>
       <r>    2.8765    1.0000 </r>
       <r>    3.2031    1.0000 </r>
       <r>    4.7697    1.0000 </r>
       <r>    5.5363    1.0000 </r>
       <r>    5.6186    1.0000 </r>
       <r>    5.7742    1.0000 </r>
       <r>    5.9403    1.0000 </r>
       <r>    6.0099    1.0000 </r>
       <r>    6.3006    1.0000 </r>
       <r>    6.4726    1.0000 </r>
       <r>    6.5214    1.0000 </r>
       <r>    6.9902    1.0000 </r>
       <r>    7.0573    1.0000 </r>
       <r>    7.2362    1.0000 </r>
       <r>    7.4505    1.0000 </r>
       <r>    7.7029    1.0000 </r>
       <r>    7.8859    1.0000 </r>
       <r>    8.2462    1.0000 </r>
       <r>    8.4984    1.0000 </r>
       <r>    8.5192    1.0000 </r>
       <r>    8.6904    1.0000 </r>
       <r>    8.9773    1.0000 </r>
       <r>    9.2860    1.0000 </r>
       <r>    9.4648    1.0000 </r>
       <r>    9.5888    1.0000 </r>
       <r>    9.9036    1.0000 </r>
       <r>    9.9994    1.0000 </r>
       <r>   10.2208    1.0000 </r>
       <r>   10.3967    1.0000 </r>
       <r>   10.6816    1.0000 </r>
       <r>   10.9487    1.0000 </r>
       <r>   11.1317    0.0000 </r>
       <r>   11.2995    0.0000 </r>
       <r>   11.4063    0.0000 </r>
       <r>   11.6077    0.0000 </r>
       <r>   11.7980    0.0000 </r>
       <r>   12.1465    0.0000 </r>
       <r>   12.2392    0.0000 </r>
       <r>   12.4786    0.0000 </r>
       <r>   12.6967    0.0000 </r>
       <r>   12.7508    0.0000 </r>
       <r>   12.8662    0.0000 </r>
       <r>   12.9382    0.0000 </r>
       <r>   13.2882    0.0000 </r>
       <r>   13.7672    0.0000 </r>
       <r>   13.8124    0.0000 </r>
       <r>   13.9673    0.0000 </r>
       <r>   14.0583    0.0000 </r>
      </set>
      <set comment="kpoint 9">
       <r>  -51.9017    1.0000 </r>
       <r>  -51.8661    1.0000 </r>
       <r>  -51.7758    1.0000 </r>
       <r>  -51.7697    1.0000 </r>
       <r>  -51.6812    1.0000 </r>
       <r>  -51.6749    1.0000 </r>
       <r>  -51.5784    1.0000 </r>
       <r>  -51.5458    1.0000 </r>
       <r>  -26.3024    1.0000 </r>
       <r>  -26.2385    1.0000 </r>
       <r>  -25.5264    1.0000 </r>
       <r>  -25.5173    1.0000 </r>
       <r>  -25.4643    1.0000 </r>
       <r>  -25.4235    1.0000 </r>
       <r>  -25.4134    1.0000 </r>
       <r>  -25.3400    1.0000 </r>
       <r>  -25.2683    1.0000 </r>
       <r>  -25.2077    1.0000 </r>
       <r>  -25.1699    1.0000 </r>
       <r>  -25.1614    1.0000 </r>
       <r>  -25.1600    1.0000 </r>
       <r>  -25.1528    1.0000 </r>
       <r>  -25.1212    1.0000 </r>
       <r>  -25.0898    1.0000 </r>
       <r>  -25.0466    1.0000 </r>
       <r>  -25.0425    1.0000 </r>
       <r>  -25.0141    1.0000 </r>
       <r>  -24.9555    1.0000 </r>
       <r>  -24.9407    1.0000 </r>
       <r>  -24.9031    1.0000 </r>
       <r>  -24.2215    1.0000 </r>
       <r>  -24.1952    1.0000 </r>
       <r>   -1.2409    1.0000 </r>
       <r>    0.6317    1.0000 </r>
       <r>    1.5372    1.0000 </r>
       <r>    2.5445    1.0000 </r>
       <r>    3.3597    1.0000 </r>
       <r>    3.5402    1.0000 </r>
       <r>    4.3874    1.0000 </r>
       <r>    5.3600    1.0000 </r>
       <r>    5.4817    1.0000 </r>
       <r>    5.6816    1.0000 </r>
       <r>    5.9690    1.0000 </r>
       <r>    6.0752    1.0000 </r>
       <r>    6.3105    1.0000 </r>
       <r>    6.3769    1.0000 </r>
       <r>    6.5840    1.0000 </r>
       <r>    6.8459    1.0000 </r>
       <r>    7.0472    1.0000 </r>
       <r>    7.0620    1.0000 </r>
       <r>    7.4453    1.0000 </r>
       <r>    7.6242    1.0000 </r>
       <r>    7.7201    1.0000 </r>
       <r>    8.2963    1.0000 </r>
       <r>    8.6202    1.0000 </r>
       <r>    8.8446    1.0000 </r>
       <r>    9.0517    1.0000 </r>
       <r>    9.1601    1.0000 </r>
       <r>    9.3003    1.0000 </r>
       <r>    9.4757    1.0000 </r>
       <r>    9.4845    1.0000 </r>
       <r>    9.7017    1.0000 </r>
       <r>    9.8758    1.0000 </r>
       <r>   10.2258    1.0000 </r>
       <r>   10.5106    1.0000 </r>
       <r>   10.7452    1.0000 </r>
       <r>   10.8244    1.0000 </r>
       <r>   10.9008    1.0000 </r>
       <r>   11.2057    0.0000 </r>
       <r>   11.3479    0.0000 </r>
       <r>   11.4357    0.0000 </r>
       <r>   11.8239    0.0000 </r>
       <r>   11.8944    0.0000 </r>
       <r>   12.2432    0.0000 </r>
       <r>   12.4403    0.0000 </r>
       <r>   12.5100    0.0000 </r>
       <r>   12.9890    0.0000 </r>
       <r>   13.0039    0.0000 </r>
       <r>   13.0435    0.0000 </r>
       <r>   13.5322    0.0000 </r>
       <r>   13.5600    0.0000 </r>
       <r>   13.7374    0.0000 </r>
       <r>   14.0520    0.0000 </r>
       <r>   14.3105    0.0000 </r>
      </set>
      <set comment="kpoint 10">
       <r>  -51.9089    1.0000 </r>
       <r>  -51.8668    1.0000 </r>
       <r>  -51.7563    1.0000 </r>
       <r>  -51.7562    1.0000 </r>
       <r>  -51.6948    1.0000 </r>
       <r>  -51.6947    1.0000 </r>
       <r>  -51.5772    1.0000 </r>
       <r>  -51.5388    1.0000 </r>
       <r>  -26.3330    1.0000 </r>
       <r>  -26.2570    1.0000 </r>
       <r>  -25.4582    1.0000 </r>
       <r>  -25.4558    1.0000 </r>
       <r>  -25.4248    1.0000 </r>
       <r>  -25.3847    1.0000 </r>
       <r>  -25.3227    1.0000 </r>
       <r>  -25.3220    1.0000 </r>
       <r>  -25.2822    1.0000 </r>
       <r>  -25.2577    1.0000 </r>
       <r>  -25.2573    1.0000 </r>
       <r>  -25.2008    1.0000 </r>
       <r>  -25.1698    1.0000 </r>
       <r>  -25.1689    1.0000 </r>
       <r>  -25.1396    1.0000 </r>
       <r>  -25.1385    1.0000 </r>
       <r>  -25.1034    1.0000 </r>
       <r>  -25.0898    1.0000 </r>
       <r>  -24.9751    1.0000 </r>
       <r>  -24.9572    1.0000 </r>
       <r>  -24.9070    1.0000 </r>
       <r>  -24.9065    1.0000 </r>
       <r>  -24.1944    1.0000 </r>
       <r>  -24.1640    1.0000 </r>
       <r>   -1.5026    1.0000 </r>
       <r>    0.9294    1.0000 </r>
       <r>    1.5908    1.0000 </r>
       <r>    2.3729    1.0000 </r>
       <r>    3.5948    1.0000 </r>
       <r>    3.8840    1.0000 </r>
       <r>    4.4136    1.0000 </r>
       <r>    5.1151    1.0000 </r>
       <r>    5.2762    1.0000 </r>
       <r>    5.4460    1.0000 </r>
       <r>    5.9514    1.0000 </r>
       <r>    6.0866    1.0000 </r>
       <r>    6.1623    1.0000 </r>
       <r>    6.3765    1.0000 </r>
       <r>    6.5997    1.0000 </r>
       <r>    6.8949    1.0000 </r>
       <r>    6.9037    1.0000 </r>
       <r>    7.1533    1.0000 </r>
       <r>    7.4037    1.0000 </r>
       <r>    7.5567    1.0000 </r>
       <r>    7.7214    1.0000 </r>
       <r>    8.3582    1.0000 </r>
       <r>    8.7401    1.0000 </r>
       <r>    8.7686    1.0000 </r>
       <r>    8.8884    1.0000 </r>
       <r>    8.9697    1.0000 </r>
       <r>    9.3107    1.0000 </r>
       <r>    9.8881    1.0000 </r>
       <r>    9.9465    1.0000 </r>
       <r>   10.0574    1.0000 </r>
       <r>   10.0835    1.0000 </r>
       <r>   10.1079    1.0000 </r>
       <r>   10.4010    1.0000 </r>
       <r>   10.4109    1.0000 </r>
       <r>   10.4406    1.0000 </r>
       <r>   10.5399    1.0000 </r>
       <r>   10.9550    1.0000 </r>
       <r>   11.4056    0.0000 </r>
       <r>   11.5447    0.0000 </r>
       <r>   12.0024    0.0000 </r>
       <r>   12.0361    0.0000 </r>
       <r>   12.0607    0.0000 </r>
       <r>   12.4686    0.0000 </r>
       <r>   13.0399    0.0000 </r>
       <r>   13.1259    0.0000 </r>
       <r>   13.1631    0.0000 </r>
       <r>   13.2521    0.0000 </r>
       <r>   13.3627    0.0000 </r>
       <r>   13.3812    0.0000 </r>
       <r>   13.7387    0.0000 </r>
       <r>   14.1906    0.0000 </r>
       <r>   14.5686    0.0000 </r>
      </set>
      <set comment="kpoint 11">
       <r>  -51.8542    1.0000 </r>
       <r>  -51.8540    1.0000 </r>
       <r>  -51.8443    1.0000 </r>
       <r>  -51.8159    1.0000 </r>
       <r>  -51.6327    1.0000 </r>
       <r>  -51.6054    1.0000 </r>
       <r>  -51.5937    1.0000 </r>
       <r>  -51.5934    1.0000 </r>
       <r>  -26.0816    1.0000 </r>
       <r>  -26.0807    1.0000 </r>
       <r>  -25.9497    1.0000 </r>
       <r>  -25.9020    1.0000 </r>
       <r>  -25.4822    1.0000 </r>
       <r>  -25.3792    1.0000 </r>
       <r>  -25.3710    1.0000 </r>
       <r>  -25.3139    1.0000 </r>
       <r>  -25.2513    1.0000 </r>
       <r>  -25.2266    1.0000 </r>
       <r>  -25.1872    1.0000 </r>
       <r>  -25.1824    1.0000 </r>
       <r>  -25.1524    1.0000 </r>
       <r>  -25.1483    1.0000 </r>
       <r>  -25.1069    1.0000 </r>
       <r>  -25.0831    1.0000 </r>
       <r>  -25.0319    1.0000 </r>
       <r>  -24.9854    1.0000 </r>
       <r>  -24.9827    1.0000 </r>
       <r>  -24.9095    1.0000 </r>
       <r>  -24.6217    1.0000 </r>
       <r>  -24.5937    1.0000 </r>
       <r>  -24.4297    1.0000 </r>
       <r>  -24.4296    1.0000 </r>
       <r>   -0.6343    1.0000 </r>
       <r>    0.0052    1.0000 </r>
       <r>    1.8165    1.0000 </r>
       <r>    2.3058    1.0000 </r>
       <r>    2.7627    1.0000 </r>
       <r>    3.1755    1.0000 </r>
       <r>    5.2423    1.0000 </r>
       <r>    5.4552    1.0000 </r>
       <r>    5.6027    1.0000 </r>
       <r>    5.6314    1.0000 </r>
       <r>    5.8552    1.0000 </r>
       <r>    6.0582    1.0000 </r>
       <r>    6.2029    1.0000 </r>
       <r>    6.8186    1.0000 </r>
       <r>    6.9231    1.0000 </r>
       <r>    6.9716    1.0000 </r>
       <r>    7.1587    1.0000 </r>
       <r>    7.2207    1.0000 </r>
       <r>    7.6258    1.0000 </r>
       <r>    7.6592    1.0000 </r>
       <r>    7.6650    1.0000 </r>
       <r>    7.9841    1.0000 </r>
       <r>    8.1553    1.0000 </r>
       <r>    8.1929    1.0000 </r>
       <r>    8.5740    1.0000 </r>
       <r>    8.7113    1.0000 </r>
       <r>    9.1252    1.0000 </r>
       <r>    9.4523    1.0000 </r>
       <r>    9.6794    1.0000 </r>
       <r>    9.7546    1.0000 </r>
       <r>   10.0168    1.0000 </r>
       <r>   10.2181    1.0000 </r>
       <r>   10.8532    1.0000 </r>
       <r>   11.0143    0.4028 </r>
       <r>   11.1525    0.0000 </r>
       <r>   11.1653    0.0000 </r>
       <r>   11.2335    0.0000 </r>
       <r>   11.8476    0.0000 </r>
       <r>   11.9451    0.0000 </r>
       <r>   12.0782    0.0000 </r>
       <r>   12.1566    0.0000 </r>
       <r>   12.3963    0.0000 </r>
       <r>   12.4026    0.0000 </r>
       <r>   12.5448    0.0000 </r>
       <r>   12.6554    0.0000 </r>
       <r>   12.7934    0.0000 </r>
       <r>   13.2715    0.0000 </r>
       <r>   13.3578    0.0000 </r>
       <r>   13.4980    0.0000 </r>
       <r>   13.6252    0.0000 </r>
       <r>   13.9555    0.0000 </r>
       <r>   14.3242    0.0000 </r>
      </set>
      <set comment="kpoint 12">
       <r>  -51.8771    1.0000 </r>
       <r>  -51.8678    1.0000 </r>
       <r>  -51.8113    1.0000 </r>
       <r>  -51.7923    1.0000 </r>
       <r>  -51.6579    1.0000 </r>
       <r>  -51.6390    1.0000 </r>
       <r>  -51.5785    1.0000 </r>
       <r>  -51.5699    1.0000 </r>
       <r>  -26.2061    1.0000 </r>
       <r>  -26.1896    1.0000 </r>
       <r>  -25.7513    1.0000 </r>
       <r>  -25.7209    1.0000 </r>
       <r>  -25.4663    1.0000 </r>
       <r>  -25.3675    1.0000 </r>
       <r>  -25.3083    1.0000 </r>
       <r>  -25.2966    1.0000 </r>
       <r>  -25.2907    1.0000 </r>
       <r>  -25.2294    1.0000 </r>
       <r>  -25.1823    1.0000 </r>
       <r>  -25.1778    1.0000 </r>
       <r>  -25.1651    1.0000 </r>
       <r>  -25.1494    1.0000 </r>
       <r>  -25.1136    1.0000 </r>
       <r>  -25.0548    1.0000 </r>
       <r>  -25.0476    1.0000 </r>
       <r>  -25.0367    1.0000 </r>
       <r>  -24.9951    1.0000 </r>
       <r>  -24.9206    1.0000 </r>
       <r>  -24.8245    1.0000 </r>
       <r>  -24.8049    1.0000 </r>
       <r>  -24.2974    1.0000 </r>
       <r>  -24.2900    1.0000 </r>
       <r>   -0.3764    1.0000 </r>
       <r>   -0.1651    1.0000 </r>
       <r>    1.5094    1.0000 </r>
       <r>    2.7147    1.0000 </r>
       <r>    2.9292    1.0000 </r>
       <r>    2.9468    1.0000 </r>
       <r>    5.0791    1.0000 </r>
       <r>    5.2890    1.0000 </r>
       <r>    5.7755    1.0000 </r>
       <r>    5.9919    1.0000 </r>
       <r>    6.0179    1.0000 </r>
       <r>    6.1581    1.0000 </r>
       <r>    6.2827    1.0000 </r>
       <r>    6.2972    1.0000 </r>
       <r>    6.6490    1.0000 </r>
       <r>    7.0510    1.0000 </r>
       <r>    7.1866    1.0000 </r>
       <r>    7.2411    1.0000 </r>
       <r>    7.4375    1.0000 </r>
       <r>    7.5395    1.0000 </r>
       <r>    7.8625    1.0000 </r>
       <r>    7.8967    1.0000 </r>
       <r>    8.1664    1.0000 </r>
       <r>    8.3819    1.0000 </r>
       <r>    8.5497    1.0000 </r>
       <r>    8.9672    1.0000 </r>
       <r>    9.2086    1.0000 </r>
       <r>    9.3429    1.0000 </r>
       <r>    9.8417    1.0000 </r>
       <r>    9.9884    1.0000 </r>
       <r>   10.0465    1.0000 </r>
       <r>   10.2007    1.0000 </r>
       <r>   10.5613    1.0000 </r>
       <r>   10.8405    1.0000 </r>
       <r>   10.9298    1.0000 </r>
       <r>   11.1975    0.0000 </r>
       <r>   11.3536    0.0000 </r>
       <r>   11.3615    0.0000 </r>
       <r>   11.5828    0.0000 </r>
       <r>   11.7432    0.0000 </r>
       <r>   12.0811    0.0000 </r>
       <r>   12.2208    0.0000 </r>
       <r>   12.3893    0.0000 </r>
       <r>   12.6968    0.0000 </r>
       <r>   12.7206    0.0000 </r>
       <r>   12.9541    0.0000 </r>
       <r>   13.1247    0.0000 </r>
[...]
       <r>   14.2348    0.0000 </r>
       <r>   14.3755    0.0000 </r>
      </set>
      <set comment="kpoint 116">
       <r>  -51.8875    1.0000 </r>
       <r>  -51.8875    1.0000 </r>
       <r>  -51.7772    1.0000 </r>
       <r>  -51.7358    1.0000 </r>
       <r>  -51.7178    1.0000 </r>
       <r>  -51.6720    1.0000 </r>
       <r>  -51.5579    1.0000 </r>
       <r>  -51.5579    1.0000 </r>
       <r>  -26.2926    1.0000 </r>
       <r>  -26.2926    1.0000 </r>
       <r>  -25.5851    1.0000 </r>
       <r>  -25.4030    1.0000 </r>
       <r>  -25.3527    1.0000 </r>
       <r>  -25.3345    1.0000 </r>
       <r>  -25.3340    1.0000 </r>
       <r>  -25.2942    1.0000 </r>
       <r>  -25.2916    1.0000 </r>
       <r>  -25.2905    1.0000 </r>
       <r>  -25.2864    1.0000 </r>
       <r>  -25.2447    1.0000 </r>
       <r>  -25.2270    1.0000 </r>
       <r>  -25.2177    1.0000 </r>
       <r>  -25.0899    1.0000 </r>
       <r>  -25.0704    1.0000 </r>
       <r>  -25.0479    1.0000 </r>
       <r>  -25.0478    1.0000 </r>
       <r>  -25.0137    1.0000 </r>
       <r>  -25.0134    1.0000 </r>
       <r>  -24.9482    1.0000 </r>
       <r>  -24.8311    1.0000 </r>
       <r>  -24.1791    1.0000 </r>
       <r>  -24.1790    1.0000 </r>
       <r>   -0.5328    1.0000 </r>
       <r>    0.5153    1.0000 </r>
       <r>    0.5489    1.0000 </r>
       <r>    2.3552    1.0000 </r>
       <r>    2.4975    1.0000 </r>
       <r>    3.7623    1.0000 </r>
       <r>    4.0016    1.0000 </r>
       <r>    4.6343    1.0000 </r>
       <r>    5.6016    1.0000 </r>
       <r>    6.0157    1.0000 </r>
       <r>    6.3916    1.0000 </r>
       <r>    6.4198    1.0000 </r>
       <r>    6.4727    1.0000 </r>
       <r>    6.5199    1.0000 </r>
       <r>    6.6439    1.0000 </r>
       <r>    6.6482    1.0000 </r>
       <r>    7.1851    1.0000 </r>
       <r>    7.4136    1.0000 </r>
       <r>    7.4519    1.0000 </r>
       <r>    7.6096    1.0000 </r>
       <r>    8.1781    1.0000 </r>
       <r>    8.2392    1.0000 </r>
       <r>    8.4481    1.0000 </r>
       <r>    8.5818    1.0000 </r>
       <r>    8.7092    1.0000 </r>
       <r>    8.9633    1.0000 </r>
       <r>    9.6420    1.0000 </r>
       <r>   10.2552    1.0000 </r>
       <r>   10.4520    1.0000 </r>
       <r>   10.5501    1.0000 </r>
       <r>   10.5824    1.0000 </r>
       <r>   10.6469    1.0000 </r>
       <r>   10.7238    1.0000 </r>
       <r>   10.9076    1.0000 </r>
       <r>   10.9456    1.0000 </r>
       <r>   10.9483    1.0000 </r>
       <r>   10.9739    0.9955 </r>
       <r>   11.2713    0.0000 </r>
       <r>   11.8419    0.0000 </r>
       <r>   12.0645    0.0000 </r>
       <r>   12.1045    0.0000 </r>
       <r>   12.3611    0.0000 </r>
       <r>   12.7779    0.0000 </r>
       <r>   13.1113    0.0000 </r>
       <r>   13.2858    0.0000 </r>
       <r>   13.5089    0.0000 </r>
       <r>   13.5215    0.0000 </r>
       <r>   13.7183    0.0000 </r>
       <r>   13.7550    0.0000 </r>
       <r>   14.0260    0.0000 </r>
       <r>   14.0520    0.0000 </r>
       <r>   14.5737    0.0000 </r>
      </set>
     </set>
    </set>
   </array>
  </eigenvalues>
  <separator name="orbital magnetization" >
   <v name="MAGDIPOLOUT">      0.00000000      0.00000000      0.00000000</v>
  </separator>
  <dos>
   <i name="efermi">     11.01084992 </i>
   <total>
    <array>
     <dimension dim="1">gridpoints</dimension>
     <dimension dim="2">spin</dimension>
     <field>energy</field>
     <field>total</field>
     <field>integrated</field>
     <set>
      <set comment="spin 1">
       <r>   -55.2583     0.0000     0.0000 </r>
       <r>   -55.0129     0.0000     0.0000 </r>
       <r>   -54.7674     0.0000     0.0000 </r>
       <r>   -54.5219     0.0000     0.0000 </r>
       <r>   -54.2765     0.0000     0.0000 </r>
       <r>   -54.0310     0.0000     0.0000 </r>
       <r>   -53.7856     0.0000     0.0000 </r>
       <r>   -53.5401     0.0000     0.0000 </r>
       <r>   -53.2947     0.0000     0.0000 </r>
       <r>   -53.0492     0.0000     0.0000 </r>
       <r>   -52.8038     0.0000     0.0000 </r>
       <r>   -52.5583     0.0000     0.0000 </r>
       <r>   -52.3129     0.0000     0.0000 </r>
       <r>   -52.0674     0.0000     0.0000 </r>
       <r>   -51.8220    19.8533     4.8730 </r>
       <r>   -51.5765    23.5696    13.7750 </r>
       <r>   -51.3311     0.0000    16.0000 </r>
       <r>   -51.0856     0.0000    16.0000 </r>
       <r>   -50.8402     0.0000    16.0000 </r>
       <r>   -50.5947     0.0000    16.0000 </r>
       <r>   -50.3493     0.0000    16.0000 </r>
       <r>   -50.1038     0.0000    16.0000 </r>
       <r>   -49.8584     0.0000    16.0000 </r>
       <r>   -49.6129     0.0000    16.0000 </r>
       <r>   -49.3675     0.0000    16.0000 </r>
       <r>   -49.1220     0.0000    16.0000 </r>
       <r>   -48.8766     0.0000    16.0000 </r>
       <r>   -48.6311     0.0000    16.0000 </r>
       <r>   -48.3857     0.0000    16.0000 </r>
       <r>   -48.1402     0.0000    16.0000 </r>
       <r>   -47.8948     0.0000    16.0000 </r>
       <r>   -47.6493     0.0000    16.0000 </r>
       <r>   -47.4039     0.0000    16.0000 </r>
       <r>   -47.1584     0.0000    16.0000 </r>
       <r>   -46.9130     0.0000    16.0000 </r>
       <r>   -46.6675     0.0000    16.0000 </r>
       <r>   -46.4221     0.0000    16.0000 </r>
       <r>   -46.1766     0.0000    16.0000 </r>
       <r>   -45.9312     0.0000    16.0000 </r>
       <r>   -45.6857     0.0000    16.0000 </r>
       <r>   -45.4403     0.0000    16.0000 </r>
       <r>   -45.1948     0.0000    16.0000 </r>
       <r>   -44.9494     0.0000    16.0000 </r>
       <r>   -44.7039     0.0000    16.0000 </r>
       <r>   -44.4585     0.0000    16.0000 </r>
       <r>   -44.2130     0.0000    16.0000 </r>
       <r>   -43.9676     0.0000    16.0000 </r>
       <r>   -43.7221     0.0000    16.0000 </r>
       <r>   -43.4767     0.0000    16.0000 </r>
       <r>   -43.2312     0.0000    16.0000 </r>
       <r>   -42.9858     0.0000    16.0000 </r>
       <r>   -42.7403     0.0000    16.0000 </r>
       <r>   -42.4949     0.0000    16.0000 </r>
       <r>   -42.2494     0.0000    16.0000 </r>
       <r>   -42.0040     0.0000    16.0000 </r>
       <r>   -41.7585     0.0000    16.0000 </r>
       <r>   -41.5131     0.0000    16.0000 </r>
       <r>   -41.2676     0.0000    16.0000 </r>
       <r>   -41.0222     0.0000    16.0000 </r>
       <r>   -40.7767     0.0000    16.0000 </r>
       <r>   -40.5313     0.0000    16.0000 </r>
       <r>   -40.2858     0.0000    16.0000 </r>
       <r>   -40.0404     0.0000    16.0000 </r>
       <r>   -39.7949     0.0000    16.0000 </r>
       <r>   -39.5495     0.0000    16.0000 </r>
       <r>   -39.3040     0.0000    16.0000 </r>
       <r>   -39.0586     0.0000    16.0000 </r>
       <r>   -38.8131     0.0000    16.0000 </r>
       <r>   -38.5677     0.0000    16.0000 </r>
       <r>   -38.3222     0.0000    16.0000 </r>
       <r>   -38.0768     0.0000    16.0000 </r>
       <r>   -37.8313     0.0000    16.0000 </r>
       <r>   -37.5859     0.0000    16.0000 </r>
       <r>   -37.3404     0.0000    16.0000 </r>
       <r>   -37.0950     0.0000    16.0000 </r>
       <r>   -36.8495     0.0000    16.0000 </r>
       <r>   -36.6040     0.0000    16.0000 </r>
       <r>   -36.3586     0.0000    16.0000 </r>
       <r>   -36.1131     0.0000    16.0000 </r>
       <r>   -35.8677     0.0000    16.0000 </r>
       <r>   -35.6222     0.0000    16.0000 </r>
       <r>   -35.3768     0.0000    16.0000 </r>
       <r>   -35.1313     0.0000    16.0000 </r>
       <r>   -34.8859     0.0000    16.0000 </r>
       <r>   -34.6404     0.0000    16.0000 </r>
       <r>   -34.3950     0.0000    16.0000 </r>
       <r>   -34.1495     0.0000    16.0000 </r>
       <r>   -33.9041     0.0000    16.0000 </r>
       <r>   -33.6586     0.0000    16.0000 </r>
       <r>   -33.4132     0.0000    16.0000 </r>
       <r>   -33.1677     0.0000    16.0000 </r>
       <r>   -32.9223     0.0000    16.0000 </r>
       <r>   -32.6768     0.0000    16.0000 </r>
       <r>   -32.4314     0.0000    16.0000 </r>
       <r>   -32.1859     0.0000    16.0000 </r>
       <r>   -31.9405     0.0000    16.0000 </r>
       <r>   -31.6950     0.0000    16.0000 </r>
       <r>   -31.4496     0.0000    16.0000 </r>
       <r>   -31.2041     0.0000    16.0000 </r>
       <r>   -30.9587     0.0000    16.0000 </r>
       <r>   -30.7132     0.0000    16.0000 </r>
       <r>   -30.4678     0.0000    16.0000 </r>
       <r>   -30.2223     0.0000    16.0000 </r>
       <r>   -29.9769     0.0000    16.0000 </r>
       <r>   -29.7314     0.0000    16.0000 </r>
       <r>   -29.4860     0.0000    16.0000 </r>
       <r>   -29.2405     0.0000    16.0000 </r>
       <r>   -28.9951     0.0000    16.0000 </r>
       <r>   -28.7496     0.0000    16.0000 </r>
       <r>   -28.5042     0.0000    16.0000 </r>
       <r>   -28.2587     0.0000    16.0000 </r>
       <r>   -28.0133     0.0000    16.0000 </r>
       <r>   -27.7678     0.0000    16.0000 </r>
       <r>   -27.5224     0.0000    16.0000 </r>
       <r>   -27.2769     0.0000    16.0000 </r>
       <r>   -27.0315     0.0000    16.0000 </r>
       <r>   -26.7860     0.0000    16.0000 </r>
       <r>   -26.5406     0.0000    16.0000 </r>
       <r>   -26.2951     1.8895    16.4638 </r>
       <r>   -26.0497     7.5638    19.8872 </r>
       <r>   -25.8042     4.6173    21.1435 </r>
       <r>   -25.5588     1.5786    22.4691 </r>
       <r>   -25.3133    24.5753    30.5932 </r>
       <r>   -25.0679    48.9365    47.9554 </r>
       <r>   -24.8224    18.6283    58.0723 </r>
       <r>   -24.5770     4.4476    59.9488 </r>
       <r>   -24.3315     4.7132    61.1569 </r>
       <r>   -24.0861     6.9842    64.0000 </r>
       <r>   -23.8406     0.0000    64.0000 </r>
       <r>   -23.5952     0.0000    64.0000 </r>
       <r>   -23.3497     0.0000    64.0000 </r>
       <r>   -23.1043     0.0000    64.0000 </r>
       <r>   -22.8588     0.0000    64.0000 </r>
       <r>   -22.6134     0.0000    64.0000 </r>
       <r>   -22.3679     0.0000    64.0000 </r>
       <r>   -22.1225     0.0000    64.0000 </r>
       <r>   -21.8770     0.0000    64.0000 </r>
       <r>   -21.6316     0.0000    64.0000 </r>
       <r>   -21.3861     0.0000    64.0000 </r>
       <r>   -21.1407     0.0000    64.0000 </r>
       <r>   -20.8952     0.0000    64.0000 </r>
       <r>   -20.6498     0.0000    64.0000 </r>
       <r>   -20.4043     0.0000    64.0000 </r>
       <r>   -20.1589     0.0000    64.0000 </r>
       <r>   -19.9134     0.0000    64.0000 </r>
       <r>   -19.6680     0.0000    64.0000 </r>
       <r>   -19.4225     0.0000    64.0000 </r>
       <r>   -19.1771     0.0000    64.0000 </r>
       <r>   -18.9316     0.0000    64.0000 </r>
       <r>   -18.6861     0.0000    64.0000 </r>
       <r>   -18.4407     0.0000    64.0000 </r>
       <r>   -18.1952     0.0000    64.0000 </r>
       <r>   -17.9498     0.0000    64.0000 </r>
       <r>   -17.7043     0.0000    64.0000 </r>
       <r>   -17.4589     0.0000    64.0000 </r>
       <r>   -17.2134     0.0000    64.0000 </r>
       <r>   -16.9680     0.0000    64.0000 </r>
       <r>   -16.7225     0.0000    64.0000 </r>
       <r>   -16.4771     0.0000    64.0000 </r>
       <r>   -16.2316     0.0000    64.0000 </r>
       <r>   -15.9862     0.0000    64.0000 </r>
       <r>   -15.7407     0.0000    64.0000 </r>
       <r>   -15.4953     0.0000    64.0000 </r>
       <r>   -15.2498     0.0000    64.0000 </r>
       <r>   -15.0044     0.0000    64.0000 </r>
       <r>   -14.7589     0.0000    64.0000 </r>
       <r>   -14.5135     0.0000    64.0000 </r>
       <r>   -14.2680     0.0000    64.0000 </r>
       <r>   -14.0226     0.0000    64.0000 </r>
       <r>   -13.7771     0.0000    64.0000 </r>
       <r>   -13.5317     0.0000    64.0000 </r>
       <r>   -13.2862     0.0000    64.0000 </r>
       <r>   -13.0408     0.0000    64.0000 </r>
       <r>   -12.7953     0.0000    64.0000 </r>
       <r>   -12.5499     0.0000    64.0000 </r>
       <r>   -12.3044     0.0000    64.0000 </r>
       <r>   -12.0590     0.0000    64.0000 </r>
       <r>   -11.8135     0.0000    64.0000 </r>
       <r>   -11.5681     0.0000    64.0000 </r>
       <r>   -11.3226     0.0000    64.0000 </r>
       <r>   -11.0772     0.0000    64.0000 </r>
       <r>   -10.8317     0.0000    64.0000 </r>
       <r>   -10.5863     0.0000    64.0000 </r>
       <r>   -10.3408     0.0000    64.0000 </r>
       <r>   -10.0954     0.0000    64.0000 </r>
       <r>    -9.8499     0.0000    64.0000 </r>
       <r>    -9.6045     0.0000    64.0000 </r>
       <r>    -9.3590     0.0000    64.0000 </r>
       <r>    -9.1136     0.0000    64.0000 </r>
       <r>    -8.8681     0.0000    64.0000 </r>
       <r>    -8.6227     0.0000    64.0000 </r>
       <r>    -8.3772     0.0000    64.0000 </r>
       <r>    -8.1318     0.0000    64.0000 </r>
       <r>    -7.8863     0.0000    64.0000 </r>
       <r>    -7.6409     0.0000    64.0000 </r>
       <r>    -7.3954     0.0000    64.0000 </r>
       <r>    -7.1500     0.0000    64.0000 </r>
       <r>    -6.9045     0.0000    64.0000 </r>
       <r>    -6.6591     0.0000    64.0000 </r>
       <r>    -6.4136     0.0000    64.0000 </r>
       <r>    -6.1682     0.0000    64.0000 </r>
       <r>    -5.9227     0.0000    64.0000 </r>
       <r>    -5.6773     0.0000    64.0000 </r>
       <r>    -5.4318     0.0000    64.0000 </r>
       <r>    -5.1864     0.0000    64.0000 </r>
       <r>    -4.9409     0.0000    64.0000 </r>
       <r>    -4.6955     0.0000    64.0000 </r>
       <r>    -4.4500     0.0000    64.0000 </r>
       <r>    -4.2046     0.0000    64.0000 </r>
       <r>    -3.9591     0.0000    64.0000 </r>
       <r>    -3.7137     0.0000    64.0000 </r>
       <r>    -3.4682     0.0000    64.0000 </r>
       <r>    -3.2228     0.0000    64.0000 </r>
       <r>    -2.9773     0.0000    64.0000 </r>
       <r>    -2.7319     0.0000    64.0000 </r>
       <r>    -2.4864     0.0000    64.0000 </r>
       <r>    -2.2410     0.0000    64.0000 </r>
       <r>    -1.9955     0.0000    64.0000 </r>
       <r>    -1.7501     0.0000    64.0000 </r>
       <r>    -1.5046     0.2672    64.0707 </r>
       <r>    -1.2592     0.6675    64.2506 </r>
       <r>    -1.0137     0.5939    64.4570 </r>
       <r>    -0.7683     0.9317    64.8664 </r>
       <r>    -0.5228     1.8185    65.4004 </r>
       <r>    -0.2773     1.2054    65.9591 </r>
       <r>    -0.0319     1.8871    66.5856 </r>
       <r>     0.2136     1.3980    67.0880 </r>
       <r>     0.4590     1.2863    67.5402 </r>
       <r>     0.7045     0.9087    67.8608 </r>
       <r>     0.9499     0.5596    68.1323 </r>
       <r>     1.1954     1.0001    68.4751 </r>
       <r>     1.4408     1.0042    68.8536 </r>
       <r>     1.6863     1.4778    69.3168 </r>
       <r>     1.9317     0.9419    69.6904 </r>
       <r>     2.1772     0.3495    70.0858 </r>
       <r>     2.4226     2.1631    70.7911 </r>
       <r>     2.6681     2.1351    71.6312 </r>
       <r>     2.9135     4.5351    73.1744 </r>
       <r>     3.1590     2.7512    74.2977 </r>
       <r>     3.4044     2.4471    75.1874 </r>
       <r>     3.6499     1.0648    75.5828 </r>
       <r>     3.8953     0.4965    75.8515 </r>
       <r>     4.1408     0.6800    76.0904 </r>
       <r>     4.3862     0.5770    76.2896 </r>
       <r>     4.6317     1.3011    76.7581 </r>
       <r>     4.8771     1.9566    77.4037 </r>
       <r>     5.1226     2.5838    78.3536 </r>
       <r>     5.3680     3.7159    79.6723 </r>
       <r>     5.6135     4.6251    81.3444 </r>
       <r>     5.8589     6.4865    83.6737 </r>
       <r>     6.1044     7.1006    86.4010 </r>
       <r>     6.3498     7.3315    89.0087 </r>
       <r>     6.5953     6.9366    91.7944 </r>
       <r>     6.8407     6.5737    94.1288 </r>
       <r>     7.0862     6.8704    96.9874 </r>
       <r>     7.3316     6.4272    99.4602 </r>
       <r>     7.5771     8.2898   102.1878 </r>
       <r>     7.8225     6.6130   105.3272 </r>
       <r>     8.0680     3.9073   107.1172 </r>
       <r>     8.3134     5.3139   108.8451 </r>
       <r>     8.5589     6.0690   111.1733 </r>
       <r>     8.8043     5.9951   113.5685 </r>
       <r>     9.0498     4.4284   115.3012 </r>
       <r>     9.2952     5.2719   117.1001 </r>
       <r>     9.5407     6.7508   119.6009 </r>
       <r>     9.7861     5.5279   121.5609 </r>
       <r>    10.0316     6.7290   123.9016 </r>
       <r>    10.2770     7.2940   126.5352 </r>
       <r>    10.5225     5.4598   128.5187 </r>
       <r>    10.7679     7.9506   131.3698 </r>
       <r>    11.0134     6.4559   134.0234 </r>
       <r>    11.2588     8.2720   136.7906 </r>
       <r>    11.5043     9.2786   139.7519 </r>
       <r>    11.7497     6.3015   142.1743 </r>
       <r>    11.9952     7.7246   144.7480 </r>
       <r>    12.2406     7.0262   147.0256 </r>
       <r>    12.4861     5.7815   149.1589 </r>
       <r>    12.7315     5.7043   151.4460 </r>
       <r>    12.9770     7.0712   153.8938 </r>
       <r>    13.2224     7.5622   156.9429 </r>
       <r>    13.4679     7.6191   159.5895 </r>
       <r>    13.7133     6.5826   162.0647 </r>
       <r>    13.9588     5.0011   164.2479 </r>
       <r>    14.2042     4.3624   165.9636 </r>
       <r>    14.4497     3.1311   167.2175 </r>
       <r>    14.6951     1.4433   167.7828 </r>
       <r>    14.9406     0.3398   167.9559 </r>
       <r>    15.1860     0.0416   168.0000 </r>
       <r>    15.4315     0.0000   168.0000 </r>
       <r>    15.6769     0.0000   168.0000 </r>
       <r>    15.9224     0.0000   168.0000 </r>
       <r>    16.1678     0.0000   168.0000 </r>
       <r>    16.4133     0.0000   168.0000 </r>
       <r>    16.6587     0.0000   168.0000 </r>
       <r>    16.9042     0.0000   168.0000 </r>
       <r>    17.1496     0.0000   168.0000 </r>
       <r>    17.3951     0.0000   168.0000 </r>
       <r>    17.6406     0.0000   168.0000 </r>
       <r>    17.8860     0.0000   168.0000 </r>
       <r>    18.1315     0.0000   168.0000 </r>
       <r>    18.3769     0.0000   168.0000 </r>
      </set>
     </set>
    </array>
   </total>
  </dos>
 </calculation>
 <structure name="finalpos" >
  <crystal>
   <varray name="basis" >
    <v>       5.58785496       0.00000000      -3.72015788 </v>
    <v>      -1.60294215       5.35300845      -3.72015788 </v>
    <v>       0.00000000       0.00000000       6.71295000 </v>
   </varray>
   <i name="volume">    200.79665160 </i>
   <varray name="rec_basis" >
    <v>       0.17895955       0.05358889       0.00000000 </v>
    <v>       0.00000000       0.18681084       0.00000000 </v>
    <v>       0.09917514       0.13322384       0.14896580 </v>
   </varray>
  </crystal>
  <varray name="positions" >
   <v>       0.75000000       0.25000000       0.50000000 </v>
   <v>       0.25000000       0.75000000       0.50000000 </v>
   <v>       0.50000000       0.00000000       0.00000000 </v>
   <v>       0.73985000       0.23985000       0.97971000 </v>
   <v>       0.26015000       0.76015000       0.02029000 </v>
   <v>       0.00000000       0.00000000       0.50000000 </v>
   <v>       0.23985000       0.26015000       0.50000000 </v>
   <v>       0.76015000       0.73985000       0.50000000 </v>
   <v>       0.00000000       0.50000000       0.00000000 </v>
   <v>       0.50000000       0.50000000       0.50000000 </v>
   <v>       0.36791000       0.36791000       0.00000000 </v>
   <v>       0.63209000       0.63209000       0.00000000 </v>
   <v>       0.13209000       0.13209000       0.00000000 </v>
   <v>       0.86791000       0.86791000       0.00000000 </v>
  </varray>
 </structure>
</modeling>
