<?xml version="1.0" encoding="ISO-8859-1"?>
<modeling>
 <generator>
  <i name="program" type="string">vasp </i>
  <i name="version" type="string">6.2.0  </i>
  <i name="subversion" type="string">18Jan21 (build Jan 05 2022 15:41:44) complex                          parallel </i>
  <i name="platform" type="string">LinuxIFC </i>
  <i name="date" type="string">2025 05 07 </i>
  <i name="time" type="string">18:11:46 </i>
 </generator>
 <incar>
  <i type="string" name="SYSTEM">routine with relax: pwdword</i>
  <i type="string" name="PREC">Acc</i>
  <i type="int" name="IALGO">    38</i>
  <i type="string" name="ALGO">A</i>
  <i type="logical" name="ADDGRID"> T  </i>
  <i type="int" name="ICHARG">     2</i>
  <i type="int" name="NELM">   100</i>
  <i type="int" name="NELMIN">     6</i>
  <i name="EDIFF">      0.00000000</i>
  <i type="int" name="NSW">     0</i>
  <i type="int" name="ISIF">    -1</i>
  <i name="ENCUT">    600.00000000</i>
  <i type="logical" name="LREAL"> F  </i>
  <i type="int" name="ISMEAR">     0</i>
  <i name="SIGMA">      0.02000000</i>
  <i type="logical" name="LASPH"> T  </i>
  <i type="string" name="METAGGA">R2SCAN</i>
  <i type="logical" name="LMIXTAU"> F  </i>
 </incar>
 <primitive_cell>
  <structure name="primitive_cell" >
   <crystal>
    <varray name="basis" >
     <v>       6.14981608       0.00000000      -1.84912884 </v>
     <v>      -3.39996268       5.12449915      -1.84912884 </v>
     <v>       0.00000000       0.00000000       6.42180000 </v>
    </varray>
    <i name="volume">    202.38127553 </i>
    <varray name="rec_basis" >
     <v>       0.16260649       0.10788488       0.00000000 </v>
     <v>       0.00000000       0.19514102       0.00000000 </v>
     <v>       0.04682182       0.08725497       0.15571958 </v>
    </varray>
   </crystal>
   <varray name="positions" >
    <v>       1.00000000       0.50000000       0.50000000 </v>
    <v>       0.50000000       0.00000000       0.50000000 </v>
    <v>       0.23540000       0.26460000       0.50000000 </v>
    <v>       0.25000000       0.25000000       0.00000000 </v>
    <v>       0.76460000       0.73540000       0.50000000 </v>
    <v>       0.75000000       0.75000000       0.00000000 </v>
    <v>       0.26460000       0.76460000       0.02920000 </v>
    <v>       0.73540000       0.23540000       0.97080000 </v>
    <v>       0.25000000       0.94919000       0.69919000 </v>
    <v>       0.75000000       0.05081000       0.30081000 </v>
    <v>       0.94919000       0.25000000       0.69919000 </v>
    <v>       0.05081000       0.75000000       0.30081000 </v>
    <v>       0.25000000       0.55081000       0.30081000 </v>
    <v>       0.75000000       0.44919000       0.69919000 </v>
    <v>       0.55081000       0.25000000       0.30081000 </v>
    <v>       0.44919000       0.75000000       0.69919000 </v>
   </varray>
  </structure>
  <varray name="primitive_index" >
   <v type="int" >        1 </v>
   <v type="int" >        2 </v>
   <v type="int" >        3 </v>
   <v type="int" >        4 </v>
   <v type="int" >        5 </v>
   <v type="int" >        6 </v>
   <v type="int" >        7 </v>
   <v type="int" >        8 </v>
   <v type="int" >        9 </v>
   <v type="int" >       10 </v>
   <v type="int" >       11 </v>
   <v type="int" >       12 </v>
   <v type="int" >       13 </v>
   <v type="int" >       14 </v>
   <v type="int" >       15 </v>
   <v type="int" >       16 </v>
  </varray>
 </primitive_cell>
 <kpoints>
  <generation param="Gamma">
   <v type="int" name="divisions">       7        7        7 </v>
   <v name="usershift">      0.00000000       0.00000000       0.00000000 </v>
   <v name="genvec1">      0.14285714      -0.00000000       0.00000000 </v>
   <v name="genvec2">      0.00000000       0.14285714       0.00000000 </v>
   <v name="genvec3">      0.00000000       0.00000000       0.14285714 </v>
   <v name="shift">      0.00000000       0.00000000       0.00000000 </v>
  </generation>
  <varray name="kpointlist" >
   <v>       0.00000000       0.00000000       0.00000000 </v>
   <v>       0.14285714      -0.00000000       0.00000000 </v>
   <v>       0.28571429       0.00000000       0.00000000 </v>
   <v>       0.42857143       0.00000000       0.00000000 </v>
   <v>       0.14285714       0.14285714       0.00000000 </v>
   <v>       0.28571429       0.14285714       0.00000000 </v>
   <v>       0.42857143       0.14285714       0.00000000 </v>
   <v>      -0.42857143       0.14285714       0.00000000 </v>
   <v>      -0.28571429       0.14285714       0.00000000 </v>
   <v>      -0.14285714       0.14285714       0.00000000 </v>
   <v>       0.28571429       0.28571429       0.00000000 </v>
   <v>       0.42857143       0.28571429       0.00000000 </v>
   <v>      -0.42857143       0.28571429       0.00000000 </v>
   <v>      -0.28571429       0.28571429       0.00000000 </v>
   <v>       0.42857143       0.42857143       0.00000000 </v>
   <v>      -0.42857143       0.42857143       0.00000000 </v>
   <v>       0.14285714       0.14285714       0.14285714 </v>
   <v>       0.28571429       0.14285714       0.14285714 </v>
   <v>      -0.14285714       0.14285714       0.14285714 </v>
   <v>       0.28571429       0.28571429       0.14285714 </v>
   <v>       0.42857143       0.28571429       0.14285714 </v>
   <v>      -0.28571429       0.28571429       0.14285714 </v>
   <v>      -0.14285714       0.28571429       0.14285714 </v>
   <v>      -0.42857143       0.42857143       0.14285714 </v>
   <v>      -0.28571429       0.42857143       0.14285714 </v>
   <v>      -0.14285714       0.42857143       0.14285714 </v>
   <v>      -0.42857143      -0.42857143       0.14285714 </v>
   <v>      -0.28571429      -0.42857143       0.14285714 </v>
   <v>      -0.14285714      -0.42857143       0.14285714 </v>
   <v>      -0.28571429      -0.28571429       0.14285714 </v>
   <v>      -0.14285714      -0.28571429       0.14285714 </v>
   <v>      -0.14285714      -0.14285714       0.14285714 </v>
   <v>      -0.28571429       0.28571429       0.28571429 </v>
   <v>      -0.42857143       0.42857143       0.28571429 </v>
   <v>      -0.28571429       0.42857143       0.28571429 </v>
   <v>      -0.42857143      -0.42857143       0.28571429 </v>
   <v>      -0.28571429      -0.42857143       0.28571429 </v>
   <v>      -0.28571429      -0.28571429       0.28571429 </v>
   <v>      -0.42857143       0.42857143       0.42857143 </v>
   <v>      -0.42857143      -0.42857143       0.42857143 </v>
  </varray>
  <varray name="weights" >
   <v>       0.00291545 </v>
   <v>       0.02332362 </v>
   <v>       0.02332362 </v>
   <v>       0.02332362 </v>
   <v>       0.02332362 </v>
   <v>       0.04664723 </v>
   <v>       0.04664723 </v>
   <v>       0.04664723 </v>
   <v>       0.04664723 </v>
   <v>       0.01166181 </v>
   <v>       0.02332362 </v>
   <v>       0.04664723 </v>
   <v>       0.04664723 </v>
   <v>       0.01166181 </v>
   <v>       0.02332362 </v>
   <v>       0.01166181 </v>
   <v>       0.02332362 </v>
   <v>       0.04664723 </v>
   <v>       0.01166181 </v>
   <v>       0.02332362 </v>
   <v>       0.02332362 </v>
   <v>       0.02332362 </v>
   <v>       0.02332362 </v>
   <v>       0.02332362 </v>
   <v>       0.04664723 </v>
   <v>       0.02332362 </v>
   <v>       0.02332362 </v>
   <v>       0.04664723 </v>
   <v>       0.02332362 </v>
   <v>       0.02332362 </v>
   <v>       0.02332362 </v>
   <v>       0.00583090 </v>
   <v>       0.01166181 </v>
   <v>       0.02332362 </v>
   <v>       0.02332362 </v>
   <v>       0.02332362 </v>
   <v>       0.02332362 </v>
   <v>       0.00583090 </v>
   <v>       0.01166181 </v>
   <v>       0.00583090 </v>
  </varray>
 </kpoints>
 <parameters>
  <separator name="general" >
   <i type="string" name="SYSTEM">routine with relax: pwdword</i>
   <i type="logical" name="LCOMPAT"> F  </i>
  </separator>
  <separator name="electronic" >
   <i type="string" name="PREC">acc</i>
   <i name="ENMAX">    600.00000000</i>
   <i name="ENAUG">    535.51400000</i>
   <i name="EDIFF">      0.00000000</i>
   <i type="int" name="IALGO">    58</i>
   <i type="int" name="IWAVPR">    10</i>
   <i type="int" name="NBANDS">    78</i>
   <i type="int" name="NBANDSLOW">    -1</i>
   <i type="int" name="NBANDSHIGH">    -1</i>
   <i name="NELECT">    122.00000000</i>
   <i type="int" name="TURBO">     0</i>
   <i type="int" name="IRESTART">     0</i>
   <i type="int" name="NREBOOT">     0</i>
   <i type="int" name="NMIN">     0</i>
   <i name="EREF">      0.00000000</i>
   <separator name="electronic smearing" >
    <i type="int" name="ISMEAR">     0</i>
    <i name="SIGMA">      0.02000000</i>
    <i name="KSPACING">      0.50000000</i>
    <i type="logical" name="KGAMMA"> T  </i>
    <i type="logical" name="KBLOWUP"> T  </i>
   </separator>
   <separator name="electronic projectors" >
    <i type="logical" name="LREAL"> F  </i>
    <v name="ROPT">      0.00000000      0.00000000      0.00000000</v>
    <i type="int" name="LMAXPAW">  -100</i>
    <i type="int" name="LMAXMIX">     2</i>
    <i type="logical" name="NLSPLINE"> F  </i>
   </separator>
   <separator name="electronic startup" >
    <i type="int" name="ISTART">     0</i>
    <i type="int" name="ICHARG">     2</i>
    <i type="int" name="INIWAV">     1</i>
   </separator>
   <separator name="electronic spin" >
    <i type="int" name="ISPIN">     1</i>
    <i type="logical" name="LNONCOLLINEAR"> F  </i>
    <v name="MAGMOM">      1.00000000      1.00000000      1.00000000      1.00000000      1.00000000      1.00000000      1.00000000      1.00000000      1.00000000      1.00000000      1.00000000      1.00000000      1.00000000      1.00000000      1.00000000      1.00000000</v>
    <i name="NUPDOWN">     -1.00000000</i>
    <i type="logical" name="LSORBIT"> F  </i>
    <v name="SAXIS">      0.00000000      0.00000000      1.00000000</v>
    <i type="logical" name="LSPIRAL"> F  </i>
    <v name="QSPIRAL">      0.00000000      0.00000000      0.00000000</v>
    <i type="logical" name="LZEROZ"> F  </i>
   </separator>
   <separator name="electronic exchange-correlation" >
    <i type="logical" name="LASPH"> T  </i>
    <i type="logical" name="LMETAGGA"> F  </i>
   </separator>
   <separator name="electronic convergence" >
    <i type="int" name="NELM">   100</i>
    <i type="int" name="NELMDL">    -5</i>
    <i type="int" name="NELMIN">     6</i>
    <i name="ENINI">    600.00000000</i>
    <separator name="electronic convergence detail" >
     <i type="logical" name="LDIAG"> T  </i>
     <i type="logical" name="LSUBROT"> F  </i>
     <i name="WEIMIN">      0.00000000</i>
     <i name="EBREAK">      0.00000000</i>
     <i name="DEPER">      0.30000000</i>
     <i type="int" name="NRMM">     4</i>
     <i name="TIME">      0.40000000</i>
    </separator>
   </separator>
   <separator name="electronic mixer" >
    <i name="AMIX">      0.40000000</i>
    <i name="BMIX">      1.00000000</i>
    <i name="AMIN">      0.10000000</i>
    <i name="AMIX_MAG">      1.60000000</i>
    <i name="BMIX_MAG">      1.00000000</i>
    <separator name="electronic mixer details" >
     <i type="int" name="IMIX">     4</i>
     <i type="logical" name="MIXFIRST"> F  </i>
     <i type="int" name="MAXMIX">   -45</i>
     <i name="WC">    100.00000000</i>
     <i type="int" name="INIMIX">     1</i>
     <i type="int" name="MIXPRE">     1</i>
     <i type="int" name="MREMOVE">     5</i>
    </separator>
   </separator>
   <separator name="electronic dipolcorrection" >
    <i type="logical" name="LDIPOL"> F  </i>
    <i type="logical" name="LMONO"> F  </i>
    <i type="int" name="IDIPOL">     0</i>
    <i name="EPSILON">      1.00000000</i>
    <v name="DIPOL">   -100.00000000   -100.00000000   -100.00000000</v>
    <i name="EFIELD">      0.00000000</i>
   </separator>
  </separator>
  <separator name="grids" >
   <i type="int" name="NGX">    54</i>
   <i type="int" name="NGY">    54</i>
   <i type="int" name="NGZ">    54</i>
   <i type="int" name="NGXF">   108</i>
   <i type="int" name="NGYF">   108</i>
   <i type="int" name="NGZF">   108</i>
   <i type="logical" name="ADDGRID"> T  </i>
  </separator>
  <separator name="ionic" >
   <i type="int" name="NSW">     0</i>
   <i type="int" name="IBRION">    -1</i>
   <i type="int" name="MDALGO">     0</i>
   <i type="int" name="ISIF">    -1</i>
   <i name="PSTRESS">      0.00000000</i>
   <i name="EDIFFG">      0.00000001</i>
   <i type="int" name="NFREE">     0</i>
   <i name="POTIM">      0.50000000</i>
   <i name="SMASS">     -3.00000000</i>
   <i name="SCALEE">      1.00000000</i>
  </separator>
  <separator name="ionic md" >
   <i name="TEBEG">      0.00010000</i>
   <i name="TEEND">      0.00010000</i>
   <i type="int" name="NBLOCK">     1</i>
   <i type="int" name="KBLOCK">     1</i>
   <i type="int" name="NPACO">   256</i>
   <i name="APACO">     16.00000000</i>
  </separator>
  <separator name="symmetry" >
   <i type="int" name="ISYM">     2</i>
   <i name="SYMPREC">      0.00001000</i>
  </separator>
  <separator name="dos" >
   <i type="int" name="LORBIT">     0</i>
   <v name="RWIGS">     -1.00000000     -1.00000000     -1.00000000</v>
   <i type="int" name="NEDOS">   301</i>
   <i name="EMIN">     10.00000000</i>
   <i name="EMAX">    -10.00000000</i>
   <i name="EFERMI">      0.00000000</i>
  </separator>
  <separator name="writing" >
   <i type="int" name="NWRITE">     2</i>
   <i type="logical" name="LWAVE"> T  </i>
   <i type="logical" name="LDOWNSAMPLE"> F  </i>
   <i type="logical" name="LCHARG"> T  </i>
   <i type="logical" name="LPARD"> F  </i>
   <i type="logical" name="LVTOT"> F  </i>
   <i type="logical" name="LVHAR"> F  </i>
   <i type="logical" name="LELF"> F  </i>
   <i type="logical" name="LOPTICS"> F  </i>
   <v name="STM">      0.00000000      0.00000000      0.00000000      0.00000000      0.00000000      0.00000000      0.00000000</v>
  </separator>
  <separator name="performance" >
   <i type="int" name="NPAR">     6</i>
   <i type="int" name="NSIM">     4</i>
   <i type="int" name="NBLK">    -1</i>
   <i type="logical" name="LPLANE"> T  </i>
   <i type="logical" name="LSCALAPACK"> T  </i>
   <i type="logical" name="LSCAAWARE"> F  </i>
   <i type="logical" name="LSCALU"> F  </i>
   <i type="logical" name="LASYNC"> F  </i>
   <i type="logical" name="LORBITALREAL"> F  </i>
  </separator>
  <separator name="miscellaneous" >
   <i type="int" name="IDIOT">     3</i>
   <i type="int" name="PHON_NSTRUCT">    -1</i>
   <i type="logical" name="LMUSIC"> F  </i>
   <v name="POMASS">     10.81100000     95.94000000     28.08500000</v>
   <v name="DARWINR">      0.00000000      0.00000000      0.00000000</v>
   <v name="DARWINV">      1.00000000      1.00000000      1.00000000</v>
   <i type="logical" name="LCORR"> T  </i>
  </separator>
  <i type="logical" name="GGA_COMPAT"> T  </i>
  <i type="logical" name="LBERRY"> F  </i>
  <i type="int" name="ICORELEVEL">     0</i>
  <i type="logical" name="LDAU"> F  </i>
  <i type="int" name="I_CONSTRAINED_M">     0</i>
  <separator name="electronic exchange-correlation" >
   <i type="string" name="GGA">--</i>
   <i type="int" name="VOSKOWN">     0</i>
   <i type="logical" name="LHFCALC"> F  </i>
   <i type="string" name="PRECFOCK"></i>
   <i type="logical" name="LSYMGRAD"> F  </i>
   <i type="logical" name="LHFONE"> F  </i>
   <i type="logical" name="LRHFCALC"> F  </i>
   <i type="logical" name="LTHOMAS"> F  </i>
   <i type="logical" name="LMODELHF"> F  </i>
   <i type="logical" name="LFOCKACE"> F  </i>
   <i name="ENCUT4O">     -1.00000000</i>
   <i type="int" name="EXXOEP">     0</i>
   <i type="int" name="FOURORBIT">     0</i>
   <i name="AEXX">      0.00000000</i>
   <i name="HFALPHA">      0.00000000</i>
   <i name="MCALPHA">      0.00000000</i>
   <i name="ALDAX">      1.00000000</i>
   <i name="AGGAX">      1.00000000</i>
   <i name="ALDAC">      1.00000000</i>
   <i name="AGGAC">      1.00000000</i>
   <i type="int" name="NKREDX">     1</i>
   <i type="int" name="NKREDY">     1</i>
   <i type="int" name="NKREDZ">     1</i>
   <i type="logical" name="SHIFTRED"> F  </i>
   <i type="logical" name="ODDONLY"> F  </i>
   <i type="logical" name="EVENONLY"> F  </i>
   <i type="int" name="LMAXFOCK">     0</i>
   <i type="int" name="NMAXFOCKAE">     0</i>
   <i type="logical" name="LFOCKAEDFT"> F  </i>
   <i name="HFSCREEN">      0.00000000</i>
   <i name="HFSCREENC">      0.00000000</i>
   <i type="int" name="NBANDSGWLOW">     0</i>
  </separator>
  <separator name="vdW DFT" >
   <i type="logical" name="LUSE_VDW"> F  </i>
   <i name="Zab_VDW">     -0.84910000</i>
   <i name="PARAM1">      0.12340000</i>
   <i name="PARAM2">      1.00000000</i>
   <i name="PARAM3">      0.00000000</i>
  </separator>
  <separator name="model GW" >
   <i type="int" name="MODEL_GW">     0</i>
   <i name="MODEL_EPS0">      7.58929783</i>
   <i name="MODEL_ALPHA">      1.00000000</i>
  </separator>
  <separator name="linear response parameters" >
   <i type="logical" name="LEPSILON"> F  </i>
   <i type="logical" name="LRPA"> F  </i>
   <i type="logical" name="LNABLA"> F  </i>
   <i type="logical" name="LVEL"> F  </i>
   <i type="int" name="KINTER">     0</i>
   <i name="CSHIFT">      0.10000000</i>
   <i name="OMEGAMAX">     -1.00000000</i>
   <i name="DEG_THRESHOLD">      0.00200000</i>
   <i name="RTIME">     -0.10000000</i>
   <i name="WPLASMAI">      0.00000000</i>
   <v name="DFIELD">      0.00000000      0.00000000      0.00000000</v>
   <v name="WPLASMA">      0.00000000      0.00000000      0.00000000      0.00000000      0.00000000      0.00000000      0.00000000      0.00000000      0.00000000</v>
  </separator>
  <separator name="orbital magnetization" >
   <i type="logical" name="NUCIND"> F  </i>
   <v name="MAGPOS">      0.00000000      0.00000000      0.00000000</v>
   <i type="logical" name="LNICSALL"> T  </i>
   <i type="logical" name="ORBITALMAG"> F  </i>
   <i type="logical" name="LMAGBLOCH"> F  </i>
   <i type="logical" name="LCHIMAG"> F  </i>
   <i type="logical" name="LGAUGE"> T  </i>
   <i type="int" name="MAGATOM">     0</i>
   <v name="MAGDIPOL">      0.00000000      0.00000000      0.00000000</v>
   <v name="AVECCONST">      0.00000000      0.00000000      0.00000000</v>
  </separator>
  <separator name="response functions" >
   <i type="logical" name="LFINITE_TEMPERATURE"> F  </i>
   <i type="logical" name="LADDER"> F  </i>
   <i type="logical" name="LRPAFORCE"> F  </i>
   <i type="logical" name="LFXC"> F  </i>
   <i type="logical" name="LHARTREE"> T  </i>
   <i type="int" name="IBSE">     0</i>
   <v type="int" name="KPOINT">    -1     0     0     0</v>
   <i type="logical" name="LTCTC"> F  </i>
   <i type="logical" name="LTCTE"> F  </i>
   <i type="logical" name="LTETE"> F  </i>
   <i type="logical" name="LTRIPLET"> F  </i>
   <i type="logical" name="LFXCEPS"> F  </i>
   <i type="logical" name="LFXHEG"> F  </i>
   <i type="int" name="NATURALO">     2</i>
   <i type="logical" name="LHOLEGF"> F  </i>
   <i type="logical" name="L2ORDER"> F  </i>
   <i type="logical" name="LDMP1"> F  </i>
   <i type="logical" name="LMP2LT"> F  </i>
   <i type="logical" name="LSMP2LT"> F  </i>
   <i type="logical" name="LGWLF"> F  </i>
   <i name="ENCUTGW">     -2.00000000</i>
   <i name="ENCUTGWSOFT">     -2.00000000</i>
   <i name="ENCUTLF">     -1.00000000</i>
   <i type="logical" name="LESF_SPLINES"> F  </i>
   <i type="int" name="LMAXMP2">    -1</i>
   <i name="SCISSOR">      0.00000000</i>
   <i type="int" name="NOMEGA">     0</i>
   <i type="int" name="NOMEGAR">     0</i>
   <i type="int" name="NBANDSGW">    -1</i>
   <i type="int" name="NBANDSO">    -1</i>
   <i type="int" name="NBANDSV">    -1</i>
   <i type="int" name="NELM">   100</i>
   <i type="int" name="NELMHF">     1</i>
   <i type="int" name="DIM">     3</i>
   <i type="int" name="IESPILON">     4</i>
   <i type="int" name="ANTIRES">     0</i>
   <i name="OMEGAMAX">    -30.00000000</i>
   <i name="OMEGAMIN">    -30.00000000</i>
   <i name="OMEGATL">   -200.00000000</i>
   <i type="int" name="OMEGAGRID">     0</i>
   <i name="CSHIFT">     -0.10000000</i>
   <i type="logical" name="LSELFENERGY"> F  </i>
   <i type="logical" name="LSPECTRAL"> F  </i>
   <i type="logical" name="LSPECTRALGW"> F  </i>
   <i type="logical" name="LSINGLES"> F  </i>
   <i type="logical" name="LFERMIGW"> F  </i>
   <i type="logical" name="ODDONLYGW"> F  </i>
   <i type="logical" name="EVENONLYGW"> F  </i>
   <i type="int" name="NKREDLFX">     1</i>
   <i type="int" name="NKREDLFY">     1</i>
   <i type="int" name="NKREDLFZ">     1</i>
   <i type="int" name="MAXMEM">  2800</i>
   <i type="int" name="TELESCOPE">     0</i>
   <i type="int" name="NTAUPAR">    -1</i>
   <i type="int" name="NOMEGAPAR">    -1</i>
   <i name="DAMP_NEWTON">      0.80000001</i>
   <i name="LAMBDA">      1.00000000</i>
  </separator>
  <separator name="External order field" >
   <i name="OFIELD_KAPPA">      0.00000000</i>
   <v name="OFIELD_K">      0.00000000      0.00000000      0.00000000</v>
   <i name="OFIELD_Q6_NEAR">      0.00000000</i>
   <i name="OFIELD_Q6_FAR">      0.00000000</i>
   <i name="OFIELD_A">      0.00000000</i>
  </separator>
 </parameters>
 <atominfo>
  <atoms>      16 </atoms>
  <types>       3 </types>
  <array name="atoms" >
   <dimension dim="1">ion</dimension>
   <field type="string">element</field>
   <field type="int">atomtype</field>
   <set>
    <rc><c>B </c><c>   1</c></rc>
    <rc><c>B </c><c>   1</c></rc>
    <rc><c>Mo</c><c>   2</c></rc>
    <rc><c>Mo</c><c>   2</c></rc>
    <rc><c>Mo</c><c>   2</c></rc>
    <rc><c>Mo</c><c>   2</c></rc>
    <rc><c>Mo</c><c>   2</c></rc>
    <rc><c>Mo</c><c>   2</c></rc>
    <rc><c>Si</c><c>   3</c></rc>
    <rc><c>Si</c><c>   3</c></rc>
    <rc><c>Si</c><c>   3</c></rc>
    <rc><c>Si</c><c>   3</c></rc>
    <rc><c>Si</c><c>   3</c></rc>
    <rc><c>Si</c><c>   3</c></rc>
    <rc><c>Si</c><c>   3</c></rc>
    <rc><c>Si</c><c>   3</c></rc>
   </set>
  </array>
  <array name="atomtypes" >
   <dimension dim="1">type</dimension>
   <field type="int">atomspertype</field>
   <field type="string">element</field>
   <field>mass</field>
   <field>valence</field>
   <field type="string">pseudopotential</field>
   <set>
    <rc><c>   2</c><c>B </c><c>     10.81100000</c><c>      3.00000000</c><c>  PAW_PBE B 06Sep2000                   </c></rc>
    <rc><c>   6</c><c>Mo</c><c>     95.94000000</c><c>     14.00000000</c><c>  PAW_PBE Mo_sv 02Feb2006               </c></rc>
    <rc><c>   8</c><c>Si</c><c>     28.08500000</c><c>      4.00000000</c><c>  PAW_PBE Si 05Jan2001                  </c></rc>
   </set>
  </array>
 </atominfo>
 <structure name="initialpos" >
  <crystal>
   <varray name="basis" >
    <v>       6.14981608       0.00000000      -1.84912884 </v>
    <v>      -3.39996268       5.12449915      -1.84912884 </v>
    <v>       0.00000000       0.00000000       6.42180000 </v>
   </varray>
   <i name="volume">    202.38127553 </i>
   <varray name="rec_basis" >
    <v>       0.16260649       0.10788488       0.00000000 </v>
    <v>       0.00000000       0.19514102       0.00000000 </v>
    <v>       0.04682182       0.08725497       0.15571958 </v>
   </varray>
  </crystal>
  <varray name="positions" >
   <v>       0.00000000       0.50000000       0.50000000 </v>
   <v>       0.50000000       0.00000000       0.50000000 </v>
   <v>       0.23540000       0.26460000       0.50000000 </v>
   <v>       0.25000000       0.25000000       0.00000000 </v>
   <v>       0.76460000       0.73540000       0.50000000 </v>
   <v>       0.75000000       0.75000000       0.00000000 </v>
   <v>       0.26460000       0.76460000       0.02920000 </v>
   <v>       0.73540000       0.23540000       0.97080000 </v>
   <v>       0.25000000       0.94919000       0.69919000 </v>
   <v>       0.75000000       0.05081000       0.30081000 </v>
   <v>       0.94919000       0.25000000       0.69919000 </v>
   <v>       0.05081000       0.75000000       0.30081000 </v>
   <v>       0.25000000       0.55081000       0.30081000 </v>
   <v>       0.75000000       0.44919000       0.69919000 </v>
   <v>       0.55081000       0.25000000       0.30081000 </v>
   <v>       0.44919000       0.75000000       0.69919000 </v>
  </varray>
 </structure>
 <calculation>
  <scstep>
   <time name="total">   13.34   13.65</time>
   <energy>
    <i name="alphaZ">    544.34217070 </i>
    <i name="ewald"> -10132.41382910 </i>
    <i name="hartreedc">  -2532.06534555 </i>
    <i name="XCdc">    447.64778796 </i>
    <i name="pawpsdc">   9666.54758295 </i>
    <i name="pawaedc">  -9560.21215315 </i>
    <i name="eentropy">     -0.00148686 </i>
    <i name="bandstr">    542.30518863 </i>
    <i name="atom">  12140.56680252 </i>
    <i name="e_fr_energy">   1116.71671809 </i>
    <i name="e_wo_entrp">   1116.71820495 </i>
    <i name="e_0_energy">   1116.71746152 </i>
   </energy>
  </scstep>
  <scstep>
   <time name="total">   13.21   13.46</time>
   <energy>
    <i name="e_fr_energy">   -213.48434213 </i>
    <i name="e_wo_entrp">   -213.48187244 </i>
    <i name="e_0_energy">   -213.48310728 </i>
   </energy>
  </scstep>
  <scstep>
   <time name="total">   14.42   14.80</time>
   <energy>
    <i name="e_fr_energy">   -273.15981462 </i>
    <i name="e_wo_entrp">   -273.15700064 </i>
    <i name="e_0_energy">   -273.15840763 </i>
   </energy>
  </scstep>
  <scstep>
   <time name="total">   14.15   14.45</time>
   <energy>
    <i name="e_fr_energy">   -274.45544647 </i>
    <i name="e_wo_entrp">   -274.45286159 </i>
    <i name="e_0_energy">   -274.45415403 </i>
   </energy>
  </scstep>
  <scstep>
   <time name="total">   15.16   15.47</time>
   <energy>
    <i name="e_fr_energy">   -274.48089177 </i>
    <i name="e_wo_entrp">   -274.47831882 </i>
    <i name="e_0_energy">   -274.47960530 </i>
   </energy>
  </scstep>
  <scstep>
   <time name="total">   17.19   17.38</time>
   <energy>
    <i name="e_fr_energy">   -200.72110231 </i>
    <i name="e_wo_entrp">   -200.71884234 </i>
    <i name="e_0_energy">   -200.71997232 </i>
   </energy>
  </scstep>
  <scstep>
   <time name="total">   18.34   18.55</time>
   <energy>
    <i name="e_fr_energy">   -225.07221628 </i>
    <i name="e_wo_entrp">   -225.06966536 </i>
    <i name="e_0_energy">   -225.07094082 </i>
   </energy>
  </scstep>
  <scstep>
   <time name="total">   18.24   18.52</time>
   <energy>
    <i name="e_fr_energy">   -227.99410377 </i>
    <i name="e_wo_entrp">   -227.99110450 </i>
    <i name="e_0_energy">   -227.99260413 </i>
   </energy>
  </scstep>
  <scstep>
   <time name="total">   17.63   17.84</time>
   <energy>
    <i name="e_fr_energy">   -228.75495927 </i>
    <i name="e_wo_entrp">   -228.75170539 </i>
    <i name="e_0_energy">   -228.75333233 </i>
   </energy>
  </scstep>
  <scstep>
   <time name="total">   18.01   18.21</time>
   <energy>
    <i name="e_fr_energy">   -228.96321824 </i>
    <i name="e_wo_entrp">   -228.95990991 </i>
    <i name="e_0_energy">   -228.96156407 </i>
   </energy>
  </scstep>
  <scstep>
   <time name="total">   17.51   17.65</time>
   <energy>
    <i name="e_fr_energy">   -229.02254061 </i>
    <i name="e_wo_entrp">   -229.01925460 </i>
    <i name="e_0_energy">   -229.02089761 </i>
   </energy>
  </scstep>
  <scstep>
   <time name="total">   17.78   18.02</time>
   <energy>
    <i name="e_fr_energy">   -229.04489931 </i>
    <i name="e_wo_entrp">   -229.04170976 </i>
    <i name="e_0_energy">   -229.04330454 </i>
   </energy>
  </scstep>
  <scstep>
   <time name="total">   18.02   18.24</time>
   <energy>
    <i name="e_fr_energy">   -229.05286554 </i>
    <i name="e_wo_entrp">   -229.04972002 </i>
    <i name="e_0_energy">   -229.05129278 </i>
   </energy>
  </scstep>
  <scstep>
   <time name="total">   18.28   18.55</time>
   <energy>
    <i name="e_fr_energy">   -229.05744344 </i>
    <i name="e_wo_entrp">   -229.05437005 </i>
    <i name="e_0_energy">   -229.05590674 </i>
   </energy>
  </scstep>
  <scstep>
   <time name="total">   18.84   19.06</time>
   <energy>
    <i name="e_fr_energy">   -229.05943557 </i>
    <i name="e_wo_entrp">   -229.05637328 </i>
    <i name="e_0_energy">   -229.05790442 </i>
   </energy>
  </scstep>
  <scstep>
   <time name="total">   17.36   17.54</time>
   <energy>
    <i name="e_fr_energy">   -229.06010824 </i>
    <i name="e_wo_entrp">   -229.05706277 </i>
    <i name="e_0_energy">   -229.05858551 </i>
   </energy>
  </scstep>
  <scstep>
   <time name="total">   18.13   18.37</time>
   <energy>
    <i name="e_fr_energy">   -229.06032612 </i>
    <i name="e_wo_entrp">   -229.05727571 </i>
    <i name="e_0_energy">   -229.05880091 </i>
   </energy>
  </scstep>
  <scstep>
   <time name="total">   18.84   19.06</time>
   <energy>
    <i name="e_fr_energy">   -229.06043083 </i>
    <i name="e_wo_entrp">   -229.05738382 </i>
    <i name="e_0_energy">   -229.05890732 </i>
   </energy>
  </scstep>
  <scstep>
   <time name="total">   17.66   17.81</time>
   <energy>
    <i name="e_fr_energy">   -229.06047175 </i>
    <i name="e_wo_entrp">   -229.05742232 </i>
    <i name="e_0_energy">   -229.05894703 </i>
   </energy>
  </scstep>
  <scstep>
   <time name="total">   17.60   17.87</time>
   <energy>
    <i name="e_fr_energy">   -229.06048544 </i>
    <i name="e_wo_entrp">   -229.05743785 </i>
    <i name="e_0_energy">   -229.05896165 </i>
   </energy>
  </scstep>
  <scstep>
   <time name="total">   18.68   19.05</time>
   <energy>
    <i name="e_fr_energy">   -229.06049206 </i>
    <i name="e_wo_entrp">   -229.05744346 </i>
    <i name="e_0_energy">   -229.05896776 </i>
   </energy>
  </scstep>
  <scstep>
   <time name="total">   18.64   18.97</time>
   <energy>
    <i name="e_fr_energy">   -229.06049503 </i>
    <i name="e_wo_entrp">   -229.05744722 </i>
    <i name="e_0_energy">   -229.05897113 </i>
   </energy>
  </scstep>
  <scstep>
   <time name="total">   17.96   18.25</time>
   <energy>
    <i name="e_fr_energy">   -229.06049587 </i>
    <i name="e_wo_entrp">   -229.05744730 </i>
    <i name="e_0_energy">   -229.05897158 </i>
   </energy>
  </scstep>
  <scstep>
   <time name="total">   18.58   18.75</time>
   <energy>
    <i name="e_fr_energy">   -229.06049658 </i>
    <i name="e_wo_entrp">   -229.05744805 </i>
    <i name="e_0_energy">   -229.05897232 </i>
   </energy>
  </scstep>
  <scstep>
   <time name="total">   18.63   18.88</time>
   <energy>
    <i name="e_fr_energy">   -229.06049666 </i>
    <i name="e_wo_entrp">   -229.05744818 </i>
    <i name="e_0_energy">   -229.05897242 </i>
   </energy>
  </scstep>
  <scstep>
   <time name="total">   17.90   18.12</time>
   <energy>
    <i name="e_fr_energy">   -229.06049675 </i>
    <i name="e_wo_entrp">   -229.05744813 </i>
    <i name="e_0_energy">   -229.05897244 </i>
   </energy>
  </scstep>
  <scstep>
   <time name="total">   18.51   18.78</time>
   <energy>
    <i name="e_fr_energy">   -229.06049687 </i>
    <i name="e_wo_entrp">   -229.05744832 </i>
    <i name="e_0_energy">   -229.05897259 </i>
   </energy>
  </scstep>
  <scstep>
   <time name="total">   18.77   19.00</time>
   <energy>
    <i name="e_fr_energy">   -229.06049689 </i>
    <i name="e_wo_entrp">   -229.05744831 </i>
    <i name="e_0_energy">   -229.05897260 </i>
   </energy>
  </scstep>
  <scstep>
   <time name="total">   17.97   18.16</time>
   <energy>
    <i name="e_fr_energy">   -229.06049689 </i>
    <i name="e_wo_entrp">   -229.05744832 </i>
    <i name="e_0_energy">   -229.05897260 </i>
   </energy>
  </scstep>
  <scstep>
   <time name="total">   18.19   18.56</time>
   <energy>
    <i name="e_fr_energy">   -229.06049689 </i>
    <i name="e_wo_entrp">   -229.05744831 </i>
    <i name="e_0_energy">   -229.05897260 </i>
   </energy>
  </scstep>
  <scstep>
   <time name="total">   17.27   17.42</time>
   <energy>
    <i name="e_fr_energy">   -229.06049689 </i>
    <i name="e_wo_entrp">   -229.05744831 </i>
    <i name="e_0_energy">   -229.05897260 </i>
   </energy>
  </scstep>
  <scstep>
   <time name="total">   17.93   18.19</time>
   <energy>
    <i name="e_fr_energy">   -229.06049690 </i>
    <i name="e_wo_entrp">   -229.05744830 </i>
    <i name="e_0_energy">   -229.05897260 </i>
   </energy>
  </scstep>
  <scstep>
   <time name="total">   17.96   18.31</time>
   <energy>
    <i name="e_fr_energy">   -229.06049690 </i>
    <i name="e_wo_entrp">   -229.05744830 </i>
    <i name="e_0_energy">   -229.05897260 </i>
   </energy>
  </scstep>
  <scstep>
   <time name="total">   18.20   18.49</time>
   <energy>
    <i name="e_fr_energy">   -229.06049690 </i>
    <i name="e_wo_entrp">   -229.05744830 </i>
    <i name="e_0_energy">   -229.05897260 </i>
   </energy>
  </scstep>
  <scstep>
   <time name="total">   18.28   18.43</time>
   <energy>
    <i name="e_fr_energy">   -229.06049689 </i>
    <i name="e_wo_entrp">   -229.05744829 </i>
    <i name="e_0_energy">   -229.05897259 </i>
   </energy>
  </scstep>
  <scstep>
   <time name="total">   20.94   21.25</time>
   <energy>
    <i name="alphaZ">    544.34217070 </i>
    <i name="ewald"> -10132.41382910 </i>
    <i name="hartreedc">  -2389.81609455 </i>
    <i name="XCdc">    460.22439328 </i>
    <i name="pawpsdc">  20273.44450611 </i>
    <i name="pawaedc"> -20182.72231345 </i>
    <i name="eentropy">     -0.00304860 </i>
    <i name="bandstr">   -942.68308380 </i>
    <i name="atom">  12140.56680252 </i>
    <i name="e_fr_energy">   -229.06049690 </i>
    <i name="e_wo_entrp">   -229.05744829 </i>
    <i name="e_0_energy">   -229.05897259 </i>
   </energy>
  </scstep>
  <structure>
   <crystal>
    <varray name="basis" >
     <v>       6.14981608       0.00000000      -1.84912884 </v>
     <v>      -3.39996268       5.12449915      -1.84912884 </v>
     <v>       0.00000000       0.00000000       6.42180000 </v>
    </varray>
    <i name="volume">    202.38127553 </i>
    <varray name="rec_basis" >
     <v>       0.16260649       0.10788488       0.00000000 </v>
     <v>       0.00000000       0.19514102       0.00000000 </v>
     <v>       0.04682182       0.08725497       0.15571958 </v>
    </varray>
   </crystal>
   <varray name="positions" >
    <v>       0.00000000       0.50000000       0.50000000 </v>
    <v>       0.50000000       0.00000000       0.50000000 </v>
    <v>       0.23540000       0.26460000       0.50000000 </v>
    <v>       0.25000000       0.25000000       0.00000000 </v>
    <v>       0.76460000       0.73540000       0.50000000 </v>
    <v>       0.75000000       0.75000000       0.00000000 </v>
    <v>       0.26460000       0.76460000       0.02920000 </v>
    <v>       0.73540000       0.23540000       0.97080000 </v>
    <v>       0.25000000       0.94919000       0.69919000 </v>
    <v>       0.75000000       0.05081000       0.30081000 </v>
    <v>       0.94919000       0.25000000       0.69919000 </v>
    <v>       0.05081000       0.75000000       0.30081000 </v>
    <v>       0.25000000       0.55081000       0.30081000 </v>
    <v>       0.75000000       0.44919000       0.69919000 </v>
    <v>       0.55081000       0.25000000       0.30081000 </v>
    <v>       0.44919000       0.75000000       0.69919000 </v>
   </varray>
  </structure>
  <varray name="forces" >
   <v>       0.00000000       0.00000000       0.00000000 </v>
   <v>       0.00000000       0.00000000       0.00000000 </v>
   <v>       0.00000000       0.00000000       0.00000000 </v>
   <v>       0.00000000       0.00000000       0.00000000 </v>
   <v>       0.00000000       0.00000000       0.00000000 </v>
   <v>       0.00000000       0.00000000       0.00000000 </v>
   <v>       0.00000000       0.00000000       0.00000000 </v>
   <v>       0.00000000       0.00000000       0.00000000 </v>
   <v>       0.00000000       0.00000000       0.00000000 </v>
   <v>       0.00000000       0.00000000       0.00000000 </v>
   <v>       0.00000000       0.00000000       0.00000000 </v>
   <v>       0.00000000       0.00000000       0.00000000 </v>
   <v>       0.00000000       0.00000000       0.00000000 </v>
   <v>       0.00000000       0.00000000       0.00000000 </v>
   <v>       0.00000000       0.00000000       0.00000000 </v>
   <v>       0.00000000       0.00000000       0.00000000 </v>
  </varray>
  <varray name="stress" >
   <v>       0.00000000       0.00000000       0.00000000 </v>
   <v>       0.00000000       0.00000000       0.00000000 </v>
   <v>       0.00000000       0.00000000       0.00000000 </v>
  </varray>
  <energy>
   <i name="e_fr_energy">   -229.06049690 </i>
   <i name="e_wo_entrp">   -229.05744829 </i>
   <i name="e_0_energy">   -229.05897259 </i>
  </energy>
  <time name="totalsc">  636.95  645.96</time>
  <eigenvalues>
   <array>
    <dimension dim="1">band</dimension>
    <dimension dim="2">kpoint</dimension>
    <dimension dim="3">spin</dimension>
    <field>eigene</field>
    <field>occ</field>
    <set>
     <set comment="spin 1">
      <set comment="kpoint 1">
       <r>  -50.7121    1.0000 </r>
       <r>  -50.7076    1.0000 </r>
       <r>  -50.7018    1.0000 </r>
       <r>  -50.7018    1.0000 </r>
       <r>  -49.8936    1.0000 </r>
       <r>  -49.8880    1.0000 </r>
       <r>  -24.4847    1.0000 </r>
       <r>  -24.4847    1.0000 </r>
       <r>  -24.3407    1.0000 </r>
       <r>  -24.3303    1.0000 </r>
       <r>  -24.1776    1.0000 </r>
       <r>  -24.1775    1.0000 </r>
       <r>  -24.1773    1.0000 </r>
       <r>  -24.1276    1.0000 </r>
       <r>  -24.0204    1.0000 </r>
       <r>  -24.0204    1.0000 </r>
       <r>  -24.0038    1.0000 </r>
       <r>  -23.9294    1.0000 </r>
       <r>  -23.5177    1.0000 </r>
       <r>  -23.5177    1.0000 </r>
       <r>  -23.4831    1.0000 </r>
       <r>  -23.4830    1.0000 </r>
       <r>  -23.2126    1.0000 </r>
       <r>  -23.1410    1.0000 </r>
       <r>   -3.8533    1.0000 </r>
       <r>   -2.0098    1.0000 </r>
       <r>    1.5445    1.0000 </r>
       <r>    2.2123    1.0000 </r>
       <r>    2.2123    1.0000 </r>
       <r>    2.9855    1.0000 </r>
       <r>    2.9855    1.0000 </r>
       <r>    3.3195    1.0000 </r>
       <r>    3.7692    1.0000 </r>
       <r>    3.8090    1.0000 </r>
       <r>    4.7192    1.0000 </r>
       <r>    4.7548    1.0000 </r>
       <r>    4.7548    1.0000 </r>
       <r>    5.9909    1.0000 </r>
       <r>    6.5448    1.0000 </r>
       <r>    7.0095    1.0000 </r>
       <r>    7.5186    1.0000 </r>
       <r>    7.6354    1.0000 </r>
       <r>    8.4540    1.0000 </r>
       <r>    8.4540    1.0000 </r>
       <r>    8.8633    1.0000 </r>
       <r>    8.8633    1.0000 </r>
       <r>    9.4493    1.0000 </r>
       <r>    9.4493    1.0000 </r>
       <r>    9.6597    1.0000 </r>
       <r>   10.0149    1.0000 </r>
       <r>   10.2052    1.0000 </r>
       <r>   10.3898    1.0000 </r>
       <r>   10.3899    1.0000 </r>
       <r>   10.9608    1.0000 </r>
       <r>   11.2363    1.0000 </r>
       <r>   11.6505    1.0000 </r>
       <r>   11.8066    1.0000 </r>
       <r>   11.8254    1.0000 </r>
       <r>   11.8772    1.0000 </r>
       <r>   11.8773    1.0000 </r>
       <r>   12.1345    1.0000 </r>
       <r>   12.1345    1.0000 </r>
       <r>   12.4132    0.0000 </r>
       <r>   12.4132    0.0000 </r>
       <r>   13.4434    0.0000 </r>
       <r>   13.8081    0.0000 </r>
       <r>   13.8081    0.0000 </r>
       <r>   14.0647    0.0000 </r>
       <r>   14.0647    0.0000 </r>
       <r>   14.1899    0.0000 </r>
       <r>   14.2180    0.0000 </r>
       <r>   14.3657    0.0000 </r>
       <r>   14.7498    0.0000 </r>
       <r>   14.7498    0.0000 </r>
       <r>   15.4716    0.0000 </r>
       <r>   15.4717    0.0000 </r>
       <r>   15.5173    0.0000 </r>
       <r>   15.8767    0.0000 </r>
      </set>
      <set comment="kpoint 2">
       <r>  -50.7116    1.0000 </r>
       <r>  -50.7074    1.0000 </r>
       <r>  -50.7023    1.0000 </r>
       <r>  -50.7021    1.0000 </r>
       <r>  -49.8933    1.0000 </r>
       <r>  -49.8883    1.0000 </r>
       <r>  -24.4770    1.0000 </r>
       <r>  -24.4762    1.0000 </r>
       <r>  -24.3471    1.0000 </r>
       <r>  -24.3370    1.0000 </r>
       <r>  -24.1772    1.0000 </r>
       <r>  -24.1772    1.0000 </r>
       <r>  -24.1743    1.0000 </r>
       <r>  -24.1295    1.0000 </r>
       <r>  -24.0164    1.0000 </r>
       <r>  -24.0144    1.0000 </r>
       <r>  -24.0004    1.0000 </r>
       <r>  -23.9312    1.0000 </r>
       <r>  -23.5201    1.0000 </r>
       <r>  -23.5200    1.0000 </r>
       <r>  -23.4883    1.0000 </r>
       <r>  -23.4880    1.0000 </r>
       <r>  -23.2111    1.0000 </r>
       <r>  -23.1466    1.0000 </r>
       <r>   -3.7598    1.0000 </r>
       <r>   -2.0876    1.0000 </r>
       <r>    1.6619    1.0000 </r>
       <r>    1.9700    1.0000 </r>
       <r>    2.0568    1.0000 </r>
       <r>    2.5765    1.0000 </r>
       <r>    2.6916    1.0000 </r>
       <r>    3.6469    1.0000 </r>
       <r>    4.0200    1.0000 </r>
       <r>    4.0809    1.0000 </r>
       <r>    4.8645    1.0000 </r>
       <r>    5.1380    1.0000 </r>
       <r>    5.1780    1.0000 </r>
       <r>    5.9091    1.0000 </r>
       <r>    6.3708    1.0000 </r>
       <r>    6.5979    1.0000 </r>
       <r>    7.5574    1.0000 </r>
       <r>    7.9722    1.0000 </r>
       <r>    8.3207    1.0000 </r>
       <r>    8.3898    1.0000 </r>
       <r>    8.7536    1.0000 </r>
       <r>    8.8932    1.0000 </r>
       <r>    9.2072    1.0000 </r>
       <r>    9.2165    1.0000 </r>
       <r>    9.6156    1.0000 </r>
       <r>    9.9161    1.0000 </r>
       <r>   10.2489    1.0000 </r>
       <r>   10.5363    1.0000 </r>
       <r>   10.5589    1.0000 </r>
       <r>   10.5740    1.0000 </r>
       <r>   11.1722    1.0000 </r>
       <r>   11.5606    1.0000 </r>
       <r>   11.8038    1.0000 </r>
       <r>   11.8494    1.0000 </r>
       <r>   11.9352    1.0000 </r>
       <r>   11.9465    1.0000 </r>
       <r>   12.1225    1.0000 </r>
       <r>   12.2113    0.9976 </r>
       <r>   12.3316    0.0000 </r>
       <r>   12.4900    0.0000 </r>
       <r>   13.4691    0.0000 </r>
       <r>   13.5437    0.0000 </r>
       <r>   13.7144    0.0000 </r>
       <r>   13.9865    0.0000 </r>
       <r>   14.1839    0.0000 </r>
       <r>   14.2075    0.0000 </r>
       <r>   14.4189    0.0000 </r>
       <r>   14.7450    0.0000 </r>
       <r>   14.9878    0.0000 </r>
       <r>   15.0492    0.0000 </r>
       <r>   15.2614    0.0000 </r>
       <r>   15.3144    0.0000 </r>
       <r>   15.8555    0.0000 </r>
       <r>   15.9510    0.0000 </r>
      </set>
      <set comment="kpoint 3">
       <r>  -50.7100    1.0000 </r>
       <r>  -50.7066    1.0000 </r>
       <r>  -50.7036    1.0000 </r>
       <r>  -50.7030    1.0000 </r>
       <r>  -49.8927    1.0000 </r>
       <r>  -49.8892    1.0000 </r>
       <r>  -24.4557    1.0000 </r>
       <r>  -24.4530    1.0000 </r>
       <r>  -24.3655    1.0000 </r>
       <r>  -24.3564    1.0000 </r>
       <r>  -24.1768    1.0000 </r>
       <r>  -24.1764    1.0000 </r>
       <r>  -24.1657    1.0000 </r>
       <r>  -24.1351    1.0000 </r>
       <r>  -24.0060    1.0000 </r>
       <r>  -23.9978    1.0000 </r>
       <r>  -23.9932    1.0000 </r>
       <r>  -23.9383    1.0000 </r>
       <r>  -23.5247    1.0000 </r>
       <r>  -23.5240    1.0000 </r>
       <r>  -23.5018    1.0000 </r>
       <r>  -23.5006    1.0000 </r>
       <r>  -23.2057    1.0000 </r>
       <r>  -23.1610    1.0000 </r>
       <r>   -3.4953    1.0000 </r>
       <r>   -2.3200    1.0000 </r>
       <r>    1.6339    1.0000 </r>
       <r>    1.7835    1.0000 </r>
       <r>    1.8341    1.0000 </r>
       <r>    2.2194    1.0000 </r>
       <r>    2.2665    1.0000 </r>
       <r>    4.0788    1.0000 </r>
       <r>    4.3969    1.0000 </r>
       <r>    4.7474    1.0000 </r>
       <r>    5.0239    1.0000 </r>
       <r>    5.3957    1.0000 </r>
       <r>    5.8249    1.0000 </r>
       <r>    5.9463    1.0000 </r>
       <r>    6.3425    1.0000 </r>
       <r>    6.6711    1.0000 </r>
       <r>    7.6417    1.0000 </r>
       <r>    7.8182    1.0000 </r>
       <r>    7.9127    1.0000 </r>
       <r>    7.9288    1.0000 </r>
       <r>    8.3846    1.0000 </r>
       <r>    8.7856    1.0000 </r>
       <r>    9.0781    1.0000 </r>
       <r>    9.3222    1.0000 </r>
       <r>    9.4145    1.0000 </r>
       <r>    9.6938    1.0000 </r>
       <r>    9.7829    1.0000 </r>
       <r>    9.9104    1.0000 </r>
       <r>   10.9750    1.0000 </r>
       <r>   11.1362    1.0000 </r>
       <r>   11.2758    1.0000 </r>
       <r>   11.4931    1.0000 </r>
       <r>   11.6833    1.0000 </r>
       <r>   11.6920    1.0000 </r>
       <r>   12.0211    1.0000 </r>
       <r>   12.0580    1.0000 </r>
       <r>   12.0838    1.0000 </r>
       <r>   12.3021    0.0002 </r>
       <r>   12.4980    0.0000 </r>
       <r>   12.5692    0.0000 </r>
       <r>   13.3732    0.0000 </r>
       <r>   13.4889    0.0000 </r>
       <r>   13.6523    0.0000 </r>
       <r>   14.0267    0.0000 </r>
       <r>   14.1674    0.0000 </r>
       <r>   14.2289    0.0000 </r>
       <r>   14.3041    0.0000 </r>
       <r>   14.6115    0.0000 </r>
       <r>   14.8511    0.0000 </r>
       <r>   15.1097    0.0000 </r>
       <r>   15.5212    0.0000 </r>
       <r>   15.5897    0.0000 </r>
       <r>   15.7599    0.0000 </r>
       <r>   16.0314    0.0000 </r>
      </set>
      <set comment="kpoint 4">
       <r>  -50.7079    1.0000 </r>
       <r>  -50.7056    1.0000 </r>
       <r>  -50.7054    1.0000 </r>
       <r>  -50.7041    1.0000 </r>
       <r>  -49.8916    1.0000 </r>
       <r>  -49.8904    1.0000 </r>
       <r>  -24.4257    1.0000 </r>
       <r>  -24.4204    1.0000 </r>
       <r>  -24.3934    1.0000 </r>
       <r>  -24.3859    1.0000 </r>
       <r>  -24.1763    1.0000 </r>
       <r>  -24.1761    1.0000 </r>
       <r>  -24.1546    1.0000 </r>
       <r>  -24.1438    1.0000 </r>
       <r>  -23.9948    1.0000 </r>
       <r>  -23.9899    1.0000 </r>
       <r>  -23.9747    1.0000 </r>
       <r>  -23.9530    1.0000 </r>
       <r>  -23.5251    1.0000 </r>
       <r>  -23.5234    1.0000 </r>
       <r>  -23.5166    1.0000 </r>
       <r>  -23.5147    1.0000 </r>
       <r>  -23.1949    1.0000 </r>
       <r>  -23.1789    1.0000 </r>
       <r>   -3.1091    1.0000 </r>
       <r>   -2.6844    1.0000 </r>
       <r>    1.4594    1.0000 </r>
       <r>    1.5237    1.0000 </r>
       <r>    1.7506    1.0000 </r>
       <r>    1.8806    1.0000 </r>
       <r>    2.8178    1.0000 </r>
       <r>    3.6251    1.0000 </r>
       <r>    4.7844    1.0000 </r>
       <r>    4.8829    1.0000 </r>
       <r>    5.4594    1.0000 </r>
       <r>    5.8562    1.0000 </r>
       <r>    6.1629    1.0000 </r>
       <r>    6.3840    1.0000 </r>
       <r>    6.6838    1.0000 </r>
       <r>    6.8508    1.0000 </r>
       <r>    7.3173    1.0000 </r>
       <r>    7.3265    1.0000 </r>
       <r>    7.5138    1.0000 </r>
       <r>    7.7424    1.0000 </r>
       <r>    7.9809    1.0000 </r>
       <r>    8.3693    1.0000 </r>
       <r>    9.1696    1.0000 </r>
       <r>    9.2022    1.0000 </r>
       <r>    9.3725    1.0000 </r>
       <r>    9.4514    1.0000 </r>
       <r>    9.6058    1.0000 </r>
       <r>    9.7036    1.0000 </r>
       <r>   11.3599    1.0000 </r>
       <r>   11.4624    1.0000 </r>
       <r>   11.5148    1.0000 </r>
       <r>   11.6396    1.0000 </r>
       <r>   11.7455    1.0000 </r>
       <r>   11.7869    1.0000 </r>
       <r>   12.0068    1.0000 </r>
       <r>   12.0879    1.0000 </r>
       <r>   12.1335    1.0000 </r>
       <r>   12.3509    0.0000 </r>
       <r>   12.4025    0.0000 </r>
       <r>   12.5837    0.0000 </r>
       <r>   12.6890    0.0000 </r>
       <r>   13.2552    0.0000 </r>
       <r>   13.7030    0.0000 </r>
       <r>   13.8805    0.0000 </r>
       <r>   14.2162    0.0000 </r>
       <r>   14.2546    0.0000 </r>
       <r>   14.2749    0.0000 </r>
       <r>   14.4231    0.0000 </r>
       <r>   14.8275    0.0000 </r>
       <r>   14.9783    0.0000 </r>
       <r>   15.2498    0.0000 </r>
       <r>   15.4983    0.0000 </r>
       <r>   16.1227    0.0000 </r>
       <r>   16.3409    0.0000 </r>
      </set>
      <set comment="kpoint 5">
       <r>  -50.7102    1.0000 </r>
       <r>  -50.7064    1.0000 </r>
       <r>  -50.7033    1.0000 </r>
       <r>  -50.7033    1.0000 </r>
       <r>  -49.8926    1.0000 </r>
       <r>  -49.8892    1.0000 </r>
       <r>  -24.4572    1.0000 </r>
       <r>  -24.4543    1.0000 </r>
       <r>  -24.3658    1.0000 </r>
       <r>  -24.3556    1.0000 </r>
       <r>  -24.1790    1.0000 </r>
       <r>  -24.1719    1.0000 </r>
       <r>  -24.1717    1.0000 </r>
       <r>  -24.1328    1.0000 </r>
       <r>  -24.0095    1.0000 </r>
       <r>  -24.0010    1.0000 </r>
       <r>  -23.9966    1.0000 </r>
       <r>  -23.9353    1.0000 </r>
       <r>  -23.5244    1.0000 </r>
       <r>  -23.5235    1.0000 </r>
       <r>  -23.5010    1.0000 </r>
       <r>  -23.4923    1.0000 </r>
       <r>  -23.2032    1.0000 </r>
       <r>  -23.1613    1.0000 </r>
       <r>   -3.5539    1.0000 </r>
       <r>   -2.3106    1.0000 </r>
       <r>    1.7250    1.0000 </r>
       <r>    1.9811    1.0000 </r>
       <r>    1.9974    1.0000 </r>
       <r>    2.2204    1.0000 </r>
       <r>    2.3760    1.0000 </r>
       <r>    3.8092    1.0000 </r>
       <r>    4.1561    1.0000 </r>
       <r>    4.4772    1.0000 </r>
       <r>    5.0833    1.0000 </r>
       <r>    5.1221    1.0000 </r>
       <r>    5.8268    1.0000 </r>
       <r>    5.8525    1.0000 </r>
       <r>    6.3617    1.0000 </r>
       <r>    6.6506    1.0000 </r>
       <r>    7.6859    1.0000 </r>
       <r>    7.9086    1.0000 </r>
       <r>    7.9533    1.0000 </r>
       <r>    8.1061    1.0000 </r>
       <r>    8.5800    1.0000 </r>
       <r>    8.8337    1.0000 </r>
       <r>    8.8995    1.0000 </r>
       <r>    9.1465    1.0000 </r>
       <r>    9.5075    1.0000 </r>
       <r>    9.8495    1.0000 </r>
       <r>   10.0392    1.0000 </r>
       <r>   10.3697    1.0000 </r>
       <r>   10.7447    1.0000 </r>
       <r>   11.0909    1.0000 </r>
       <r>   11.2067    1.0000 </r>
       <r>   11.5118    1.0000 </r>
       <r>   11.6051    1.0000 </r>
       <r>   11.7699    1.0000 </r>
       <r>   11.7954    1.0000 </r>
       <r>   11.8552    1.0000 </r>
       <r>   12.2520    0.4789 </r>
       <r>   12.3878    0.0000 </r>
       <r>   12.4501    0.0000 </r>
       <r>   12.7599    0.0000 </r>
       <r>   13.1855    0.0000 </r>
       <r>   13.5929    0.0000 </r>
       <r>   13.9061    0.0000 </r>
       <r>   13.9922    0.0000 </r>
       <r>   14.1319    0.0000 </r>
       <r>   14.2097    0.0000 </r>
       <r>   14.3854    0.0000 </r>
       <r>   14.5747    0.0000 </r>
       <r>   14.9850    0.0000 </r>
       <r>   15.1775    0.0000 </r>
       <r>   15.4270    0.0000 </r>
       <r>   15.4843    0.0000 </r>
       <r>   15.8006    0.0000 </r>
       <r>   16.0033    0.0000 </r>
      </set>
      <set comment="kpoint 6">
       <r>  -50.7082    1.0000 </r>
       <r>  -50.7052    1.0000 </r>
       <r>  -50.7051    1.0000 </r>
       <r>  -50.7046    1.0000 </r>
       <r>  -49.8915    1.0000 </r>
       <r>  -49.8905    1.0000 </r>
       <r>  -24.4272    1.0000 </r>
       <r>  -24.4227    1.0000 </r>
       <r>  -24.3933    1.0000 </r>
       <r>  -24.3835    1.0000 </r>
       <r>  -24.1800    1.0000 </r>
       <r>  -24.1700    1.0000 </r>
       <r>  -24.1623    1.0000 </r>
       <r>  -24.1395    1.0000 </r>
       <r>  -23.9962    1.0000 </r>
       <r>  -23.9924    1.0000 </r>
       <r>  -23.9829    1.0000 </r>
       <r>  -23.9457    1.0000 </r>
       <r>  -23.5290    1.0000 </r>
       <r>  -23.5245    1.0000 </r>
       <r>  -23.5153    1.0000 </r>
       <r>  -23.5044    1.0000 </r>
       <r>  -23.1918    1.0000 </r>
       <r>  -23.1809    1.0000 </r>
       <r>   -3.1990    1.0000 </r>
       <r>   -2.6195    1.0000 </r>
       <r>    1.4126    1.0000 </r>
       <r>    1.5442    1.0000 </r>
       <r>    1.8024    1.0000 </r>
       <r>    2.1598    1.0000 </r>
       <r>    2.8870    1.0000 </r>
       <r>    3.5992    1.0000 </r>
       <r>    4.5080    1.0000 </r>
       <r>    4.6245    1.0000 </r>
       <r>    5.2859    1.0000 </r>
       <r>    5.5885    1.0000 </r>
       <r>    6.1458    1.0000 </r>
       <r>    6.5894    1.0000 </r>
       <r>    6.6983    1.0000 </r>
       <r>    6.7619    1.0000 </r>
       <r>    7.3650    1.0000 </r>
       <r>    7.4949    1.0000 </r>
       <r>    7.6431    1.0000 </r>
       <r>    7.8113    1.0000 </r>
       <r>    8.2505    1.0000 </r>
       <r>    8.4247    1.0000 </r>
       <r>    8.8633    1.0000 </r>
       <r>    9.2890    1.0000 </r>
       <r>    9.3330    1.0000 </r>
       <r>    9.4808    1.0000 </r>
       <r>    9.6762    1.0000 </r>
       <r>   10.0714    1.0000 </r>
       <r>   11.2490    1.0000 </r>
       <r>   11.3216    1.0000 </r>
       <r>   11.3695    1.0000 </r>
       <r>   11.5451    1.0000 </r>
       <r>   11.6075    1.0000 </r>
       <r>   11.6613    1.0000 </r>
       <r>   11.8148    1.0000 </r>
       <r>   11.9972    1.0000 </r>
       <r>   12.1862    1.0000 </r>
       <r>   12.4492    0.0000 </r>
       <r>   12.6387    0.0000 </r>
       <r>   12.7303    0.0000 </r>
       <r>   12.9860    0.0000 </r>
       <r>   13.3209    0.0000 </r>
       <r>   13.7151    0.0000 </r>
       <r>   13.9704    0.0000 </r>
       <r>   14.0325    0.0000 </r>
       <r>   14.2185    0.0000 </r>
       <r>   14.3727    0.0000 </r>
       <r>   14.4207    0.0000 </r>
       <r>   14.6795    0.0000 </r>
       <r>   15.3610    0.0000 </r>
       <r>   15.4785    0.0000 </r>
       <r>   15.5741    0.0000 </r>
       <r>   15.8821    0.0000 </r>
       <r>   15.9776    0.0000 </r>
      </set>
      <set comment="kpoint 7">
       <r>  -50.7073    1.0000 </r>
       <r>  -50.7059    1.0000 </r>
       <r>  -50.7059    1.0000 </r>
       <r>  -50.7039    1.0000 </r>
       <r>  -49.8918    1.0000 </r>
       <r>  -49.8903    1.0000 </r>
       <r>  -24.4252    1.0000 </r>
       <r>  -24.4159    1.0000 </r>
       <r>  -24.3938    1.0000 </r>
       <r>  -24.3885    1.0000 </r>
       <r>  -24.1799    1.0000 </r>
       <r>  -24.1695    1.0000 </r>
       <r>  -24.1515    1.0000 </r>
       <r>  -24.1489    1.0000 </r>
       <r>  -23.9951    1.0000 </r>
       <r>  -23.9853    1.0000 </r>
       <r>  -23.9639    1.0000 </r>
       <r>  -23.9621    1.0000 </r>
       <r>  -23.5300    1.0000 </r>
       <r>  -23.5240    1.0000 </r>
       <r>  -23.5184    1.0000 </r>
       <r>  -23.5156    1.0000 </r>
       <r>  -23.1991    1.0000 </r>
       <r>  -23.1768    1.0000 </r>
       <r>   -2.9855    1.0000 </r>
       <r>   -2.7606    1.0000 </r>
       <r>    1.0636    1.0000 </r>
       <r>    1.5510    1.0000 </r>
       <r>    1.6758    1.0000 </r>
       <r>    2.1310    1.0000 </r>
       <r>    2.7550    1.0000 </r>
       <r>    3.6891    1.0000 </r>
       <r>    4.8439    1.0000 </r>
       <r>    5.0605    1.0000 </r>
       <r>    5.6281    1.0000 </r>
       <r>    5.7405    1.0000 </r>
       <r>    6.3333    1.0000 </r>
       <r>    6.6095    1.0000 </r>
       <r>    6.7494    1.0000 </r>
       <r>    6.9657    1.0000 </r>
       <r>    7.2172    1.0000 </r>
       <r>    7.3564    1.0000 </r>
       <r>    7.3797    1.0000 </r>
       <r>    7.4990    1.0000 </r>
       <r>    8.0575    1.0000 </r>
       <r>    8.3166    1.0000 </r>
       <r>    8.9788    1.0000 </r>
       <r>    9.0555    1.0000 </r>
       <r>    9.2238    1.0000 </r>
       <r>    9.4344    1.0000 </r>
       <r>    9.4615    1.0000 </r>
       <r>    9.9778    1.0000 </r>
       <r>   11.3328    1.0000 </r>
       <r>   11.4288    1.0000 </r>
       <r>   11.5447    1.0000 </r>
       <r>   11.6841    1.0000 </r>
       <r>   11.7630    1.0000 </r>
       <r>   11.8794    1.0000 </r>
       <r>   11.9542    1.0000 </r>
       <r>   12.0784    1.0000 </r>
       <r>   12.1437    1.0000 </r>
       <r>   12.1903    1.0000 </r>
       <r>   12.2920    0.0020 </r>
       <r>   12.3941    0.0000 </r>
       <r>   12.8392    0.0000 </r>
       <r>   13.1145    0.0000 </r>
       <r>   13.6286    0.0000 </r>
       <r>   13.8895    0.0000 </r>
       <r>   14.1187    0.0000 </r>
       <r>   14.3309    0.0000 </r>
       <r>   14.4274    0.0000 </r>
       <r>   14.4694    0.0000 </r>
       <r>   14.6905    0.0000 </r>
       <r>   14.8279    0.0000 </r>
       <r>   15.2545    0.0000 </r>
       <r>   15.8136    0.0000 </r>
       <r>   16.1751    0.0000 </r>
       <r>   16.3049    0.0000 </r>
      </set>
      <set comment="kpoint 8">
       <r>  -50.7094    1.0000 </r>
       <r>  -50.7070    1.0000 </r>
       <r>  -50.7039    1.0000 </r>
       <r>  -50.7027    1.0000 </r>
       <r>  -49.8928    1.0000 </r>
       <r>  -49.8892    1.0000 </r>
       <r>  -24.4553    1.0000 </r>
       <r>  -24.4469    1.0000 </r>
       <r>  -24.3648    1.0000 </r>
       <r>  -24.3583    1.0000 </r>
       <r>  -24.1791    1.0000 </r>
       <r>  -24.1705    1.0000 </r>
       <r>  -24.1598    1.0000 </r>
       <r>  -24.1416    1.0000 </r>
       <r>  -24.0063    1.0000 </r>
       <r>  -23.9850    1.0000 </r>
       <r>  -23.9805    1.0000 </r>
       <r>  -23.9468    1.0000 </r>
       <r>  -23.5262    1.0000 </r>
       <r>  -23.5242    1.0000 </r>
       <r>  -23.5221    1.0000 </r>
       <r>  -23.5015    1.0000 </r>
       <r>  -23.2115    1.0000 </r>
       <r>  -23.1605    1.0000 </r>
       <r>   -3.3509    1.0000 </r>
       <r>   -2.3417    1.0000 </r>
       <r>    0.9952    1.0000 </r>
       <r>    1.6962    1.0000 </r>
       <r>    1.7435    1.0000 </r>
       <r>    2.0412    1.0000 </r>
       <r>    2.3898    1.0000 </r>
       <r>    4.3251    1.0000 </r>
       <r>    4.9265    1.0000 </r>
       <r>    4.9769    1.0000 </r>
       <r>    5.3555    1.0000 </r>
       <r>    5.8020    1.0000 </r>
       <r>    6.0631    1.0000 </r>
       <r>    6.1123    1.0000 </r>
       <r>    6.3973    1.0000 </r>
       <r>    6.7685    1.0000 </r>
       <r>    7.2582    1.0000 </r>
       <r>    7.4970    1.0000 </r>
       <r>    7.8444    1.0000 </r>
       <r>    7.9335    1.0000 </r>
       <r>    8.1095    1.0000 </r>
       <r>    8.6067    1.0000 </r>
       <r>    8.9968    1.0000 </r>
       <r>    9.2547    1.0000 </r>
       <r>    9.2966    1.0000 </r>
       <r>    9.4296    1.0000 </r>
       <r>    9.5368    1.0000 </r>
       <r>    9.7926    1.0000 </r>
       <r>   10.9634    1.0000 </r>
       <r>   11.2503    1.0000 </r>
       <r>   11.3079    1.0000 </r>
       <r>   11.4286    1.0000 </r>
       <r>   11.5950    1.0000 </r>
       <r>   11.6631    1.0000 </r>
       <r>   11.9153    1.0000 </r>
       <r>   12.0914    1.0000 </r>
       <r>   12.2247    0.9696 </r>
       <r>   12.3372    0.0000 </r>
       <r>   12.5498    0.0000 </r>
       <r>   12.8058    0.0000 </r>
       <r>   12.9797    0.0000 </r>
       <r>   13.4296    0.0000 </r>
       <r>   13.5571    0.0000 </r>
       <r>   13.7174    0.0000 </r>
       <r>   14.0478    0.0000 </r>
       <r>   14.2081    0.0000 </r>
       <r>   14.3056    0.0000 </r>
       <r>   14.5722    0.0000 </r>
       <r>   14.7842    0.0000 </r>
       <r>   15.1639    0.0000 </r>
       <r>   15.4493    0.0000 </r>
       <r>   15.7623    0.0000 </r>
       <r>   16.2663    0.0000 </r>
       <r>   16.4133    0.0000 </r>
      </set>
      <set comment="kpoint 9">
       <r>  -50.7111    1.0000 </r>
       <r>  -50.7077    1.0000 </r>
       <r>  -50.7024    1.0000 </r>
       <r>  -50.7020    1.0000 </r>
       <r>  -49.8935    1.0000 </r>
       <r>  -49.8883    1.0000 </r>
       <r>  -24.4769    1.0000 </r>
       <r>  -24.4703    1.0000 </r>
       <r>  -24.3459    1.0000 </r>
       <r>  -24.3378    1.0000 </r>
       <r>  -24.1780    1.0000 </r>
       <r>  -24.1725    1.0000 </r>
       <r>  -24.1699    1.0000 </r>
       <r>  -24.1342    1.0000 </r>
       <r>  -24.0178    1.0000 </r>
       <r>  -23.9986    1.0000 </r>
       <r>  -23.9917    1.0000 </r>
       <r>  -23.9360    1.0000 </r>
       <r>  -23.5259    1.0000 </r>
       <r>  -23.5200    1.0000 </r>
       <r>  -23.5079    1.0000 </r>
       <r>  -23.4884    1.0000 </r>
       <r>  -23.2167    1.0000 </r>
       <r>  -23.1471    1.0000 </r>
       <r>   -3.6392    1.0000 </r>
       <r>   -2.0601    1.0000 </r>
       <r>    1.1841    1.0000 </r>
       <r>    1.4962    1.0000 </r>
       <r>    1.9577    1.0000 </r>
       <r>    2.3054    1.0000 </r>
       <r>    2.6569    1.0000 </r>
       <r>    3.9702    1.0000 </r>
       <r>    4.5722    1.0000 </r>
       <r>    4.8808    1.0000 </r>
       <r>    5.2151    1.0000 </r>
       <r>    5.2912    1.0000 </r>
       <r>    5.4859    1.0000 </r>
       <r>    5.9206    1.0000 </r>
       <r>    6.3097    1.0000 </r>
       <r>    6.7510    1.0000 </r>
       <r>    7.4478    1.0000 </r>
       <r>    7.5894    1.0000 </r>
       <r>    8.3212    1.0000 </r>
       <r>    8.3461    1.0000 </r>
       <r>    8.5095    1.0000 </r>
       <r>    8.8886    1.0000 </r>
       <r>    9.0396    1.0000 </r>
       <r>    9.3124    1.0000 </r>
       <r>    9.5195    1.0000 </r>
       <r>    9.6115    1.0000 </r>
       <r>    9.7830    1.0000 </r>
       <r>    9.9875    1.0000 </r>
       <r>   10.4297    1.0000 </r>
       <r>   10.8861    1.0000 </r>
       <r>   11.1255    1.0000 </r>
       <r>   11.2489    1.0000 </r>
       <r>   11.4017    1.0000 </r>
       <r>   11.7221    1.0000 </r>
       <r>   11.9057    1.0000 </r>
       <r>   12.0502    1.0000 </r>
       <r>   12.2100    0.9982 </r>
       <r>   12.4448    0.0000 </r>
       <r>   12.6261    0.0000 </r>
       <r>   12.8308    0.0000 </r>
       <r>   13.2403    0.0000 </r>
       <r>   13.4576    0.0000 </r>
       <r>   13.6727    0.0000 </r>
       <r>   13.8741    0.0000 </r>
       <r>   14.1962    0.0000 </r>
       <r>   14.3575    0.0000 </r>
       <r>   14.3817    0.0000 </r>
       <r>   14.7080    0.0000 </r>
       <r>   15.0110    0.0000 </r>
       <r>   15.1991    0.0000 </r>
       <r>   15.2892    0.0000 </r>
       <r>   15.5074    0.0000 </r>
       <r>   15.8895    0.0000 </r>
       <r>   16.0723    0.0000 </r>
      </set>
      <set comment="kpoint 10">
       <r>  -50.7119    1.0000 </r>
       <r>  -50.7078    1.0000 </r>
       <r>  -50.7018    1.0000 </r>
       <r>  -50.7018    1.0000 </r>
       <r>  -49.8936    1.0000 </r>
       <r>  -49.8880    1.0000 </r>
       <r>  -24.4848    1.0000 </r>
       <r>  -24.4812    1.0000 </r>
       <r>  -24.3400    1.0000 </r>
       <r>  -24.3306    1.0000 </r>
       <r>  -24.1766    1.0000 </r>
       <r>  -24.1763    1.0000 </r>
       <r>  -24.1748    1.0000 </r>
       <r>  -24.1300    1.0000 </r>
       <r>  -24.0217    1.0000 </r>
       <r>  -24.0113    1.0000 </r>
       <r>  -23.9987    1.0000 </r>
       <r>  -23.9315    1.0000 </r>
       <r>  -23.5218    1.0000 </r>
       <r>  -23.5177    1.0000 </r>
       <r>  -23.4943    1.0000 </r>
       <r>  -23.4831    1.0000 </r>
       <r>  -23.2159    1.0000 </r>
       <r>  -23.1415    1.0000 </r>
       <r>   -3.7872    1.0000 </r>
       <r>   -1.9841    1.0000 </r>
       <r>    1.4370    1.0000 </r>
       <r>    1.5711    1.0000 </r>
       <r>    2.1461    1.0000 </r>
       <r>    2.6975    1.0000 </r>
       <r>    2.8922    1.0000 </r>
       <r>    3.6120    1.0000 </r>
       <r>    4.2642    1.0000 </r>
       <r>    4.3396    1.0000 </r>
       <r>    4.8113    1.0000 </r>
       <r>    4.8986    1.0000 </r>
       <r>    5.0122    1.0000 </r>
       <r>    6.0224    1.0000 </r>
       <r>    6.6235    1.0000 </r>
       <r>    6.8300    1.0000 </r>
       <r>    7.4688    1.0000 </r>
       <r>    7.5979    1.0000 </r>
       <r>    8.5083    1.0000 </r>
       <r>    8.6749    1.0000 </r>
       <r>    8.7528    1.0000 </r>
       <r>    8.7756    1.0000 </r>
       <r>    9.1628    1.0000 </r>
       <r>    9.1779    1.0000 </r>
       <r>    9.7099    1.0000 </r>
       <r>    9.7942    1.0000 </r>
       <r>   10.2547    1.0000 </r>
       <r>   10.2984    1.0000 </r>
       <r>   10.3597    1.0000 </r>
       <r>   10.5521    1.0000 </r>
       <r>   11.1630    1.0000 </r>
       <r>   11.3640    1.0000 </r>
       <r>   11.5966    1.0000 </r>
       <r>   11.7543    1.0000 </r>
       <r>   11.8137    1.0000 </r>
       <r>   11.9448    1.0000 </r>
       <r>   12.0592    1.0000 </r>
       <r>   12.4692    0.0000 </r>
       <r>   12.5850    0.0000 </r>
       <r>   12.6754    0.0000 </r>
       <r>   13.5174    0.0000 </r>
       <r>   13.5748    0.0000 </r>
       <r>   13.7306    0.0000 </r>
       <r>   13.8605    0.0000 </r>
       <r>   14.2087    0.0000 </r>
       <r>   14.3893    0.0000 </r>
       <r>   14.4069    0.0000 </r>
       <r>   14.6111    0.0000 </r>
       <r>   14.8030    0.0000 </r>
       <r>   14.8628    0.0000 </r>
       <r>   15.2338    0.0000 </r>
       <r>   15.4847    0.0000 </r>
       <r>   15.7851    0.0000 </r>
       <r>   16.0073    0.0000 </r>
      </set>
      <set comment="kpoint 11">
       <r>  -50.7067    1.0000 </r>
       <r>  -50.7065    1.0000 </r>
       <r>  -50.7061    1.0000 </r>
       <r>  -50.7038    1.0000 </r>
       <r>  -49.8918    1.0000 </r>
       <r>  -49.8903    1.0000 </r>
       <r>  -24.4251    1.0000 </r>
       <r>  -24.4137    1.0000 </r>
       <r>  -24.3940    1.0000 </r>
       <r>  -24.3895    1.0000 </r>
       <r>  -24.1812    1.0000 </r>
       <r>  -24.1611    1.0000 </r>
       <r>  -24.1604    1.0000 </r>
       <r>  -24.1468    1.0000 </r>
       <r>  -23.9954    1.0000 </r>
       <r>  -23.9811    1.0000 </r>
       <r>  -23.9709    1.0000 </r>
       <r>  -23.9561    1.0000 </r>
       <r>  -23.5363    1.0000 </r>
       <r>  -23.5238    1.0000 </r>
       <r>  -23.5171    1.0000 </r>
       <r>  -23.5142    1.0000 </r>
       <r>  -23.2011    1.0000 </r>
       <r>  -23.1759    1.0000 </r>
       <r>   -2.9254    1.0000 </r>
       <r>   -2.7930    1.0000 </r>
       <r>    0.8749    1.0000 </r>
       <r>    1.5396    1.0000 </r>
       <r>    1.6779    1.0000 </r>
       <r>    2.3145    1.0000 </r>
       <r>    2.7013    1.0000 </r>
       <r>    3.7320    1.0000 </r>
       <r>    4.8314    1.0000 </r>
       <r>    5.0301    1.0000 </r>
       <r>    5.6340    1.0000 </r>
       <r>    5.8541    1.0000 </r>
       <r>    6.1042    1.0000 </r>
       <r>    6.7192    1.0000 </r>
       <r>    6.9961    1.0000 </r>
       <r>    7.1145    1.0000 </r>
       <r>    7.1367    1.0000 </r>
       <r>    7.3249    1.0000 </r>
       <r>    7.3550    1.0000 </r>
       <r>    7.5694    1.0000 </r>
       <r>    8.1538    1.0000 </r>
       <r>    8.4570    1.0000 </r>
       <r>    8.5383    1.0000 </r>
       <r>    8.9668    1.0000 </r>
       <r>    9.1850    1.0000 </r>
       <r>    9.3165    1.0000 </r>
       <r>    9.4898    1.0000 </r>
       <r>   10.2406    1.0000 </r>
       <r>   11.3026    1.0000 </r>
       <r>   11.3675    1.0000 </r>
       <r>   11.4933    1.0000 </r>
       <r>   11.6293    1.0000 </r>
       <r>   11.6769    1.0000 </r>
       <r>   11.7085    1.0000 </r>
       <r>   11.8735    1.0000 </r>
       <r>   12.0397    1.0000 </r>
       <r>   12.0700    1.0000 </r>
       <r>   12.3250    0.0000 </r>
       <r>   12.4123    0.0000 </r>
       <r>   12.4569    0.0000 </r>
       <r>   12.5794    0.0000 </r>
       <r>   13.3904    0.0000 </r>
       <r>   13.6476    0.0000 </r>
       <r>   13.8726    0.0000 </r>
       <r>   14.0178    0.0000 </r>
       <r>   14.2955    0.0000 </r>
       <r>   14.3945    0.0000 </r>
       <r>   14.6378    0.0000 </r>
       <r>   14.6462    0.0000 </r>
       <r>   14.9328    0.0000 </r>
       <r>   15.2121    0.0000 </r>
       <r>   15.9851    0.0000 </r>
       <r>   16.0573    0.0000 </r>
       <r>   16.3145    0.0000 </r>
      </set>
      <set comment="kpoint 12">
       <r>  -50.7086    1.0000 </r>
       <r>  -50.7077    1.0000 </r>
       <r>  -50.7040    1.0000 </r>
       <r>  -50.7026    1.0000 </r>
       <r>  -49.8930    1.0000 </r>
       <r>  -49.8892    1.0000 </r>
       <r>  -24.4554    1.0000 </r>
       <r>  -24.4415    1.0000 </r>
       <r>  -24.3635    1.0000 </r>
       <r>  -24.3603    1.0000 </r>
       <r>  -24.1803    1.0000 </r>
       <r>  -24.1613    1.0000 </r>
       <r>  -24.1561    1.0000 </r>
       <r>  -24.1510    1.0000 </r>
       <r>  -24.0075    1.0000 </r>
       <r>  -23.9727    1.0000 </r>
       <r>  -23.9650    1.0000 </r>
       <r>  -23.9591    1.0000 </r>
       <r>  -23.5400    1.0000 </r>
       <r>  -23.5273    1.0000 </r>
       <r>  -23.5240    1.0000 </r>
       <r>  -23.5016    1.0000 </r>
       <r>  -23.2163    1.0000 </r>
       <r>  -23.1602    1.0000 </r>
       <r>   -3.2188    1.0000 </r>
       <r>   -2.3595    1.0000 </r>
       <r>    0.5456    1.0000 </r>
       <r>    1.6816    1.0000 </r>
       <r>    1.7228    1.0000 </r>
       <r>    1.9349    1.0000 </r>
       <r>    2.4055    1.0000 </r>
       <r>    4.5725    1.0000 </r>
       <r>    5.0541    1.0000 </r>
       <r>    5.3478    1.0000 </r>
       <r>    5.4713    1.0000 </r>
       <r>    5.9506    1.0000 </r>
       <r>    6.1677    1.0000 </r>
       <r>    6.5846    1.0000 </r>
       <r>    6.6821    1.0000 </r>
       <r>    6.8888    1.0000 </r>
       <r>    7.0696    1.0000 </r>
       <r>    7.1551    1.0000 </r>
       <r>    7.6339    1.0000 </r>
       <r>    8.0050    1.0000 </r>
       <r>    8.0585    1.0000 </r>
       <r>    8.3562    1.0000 </r>
       <r>    8.6554    1.0000 </r>
       <r>    8.9487    1.0000 </r>
       <r>    9.1079    1.0000 </r>
       <r>    9.2744    1.0000 </r>
       <r>    9.4506    1.0000 </r>
       <r>   10.3597    1.0000 </r>
       <r>   10.7278    1.0000 </r>
       <r>   11.1274    1.0000 </r>
       <r>   11.2885    1.0000 </r>
       <r>   11.3328    1.0000 </r>
       <r>   11.5304    1.0000 </r>
       <r>   11.6137    1.0000 </r>
       <r>   12.0010    1.0000 </r>
       <r>   12.0745    1.0000 </r>
       <r>   12.2758    0.0411 </r>
       <r>   12.3613    0.0000 </r>
       <r>   12.4970    0.0000 </r>
       <r>   12.6236    0.0000 </r>
       <r>   12.8942    0.0000 </r>
       <r>   13.3729    0.0000 </r>
       <r>   13.4205    0.0000 </r>
       <r>   13.6770    0.0000 </r>
       <r>   13.8743    0.0000 </r>
       <r>   14.2586    0.0000 </r>
       <r>   14.2919    0.0000 </r>
       <r>   14.6356    0.0000 </r>
       <r>   14.8983    0.0000 </r>
       <r>   15.1050    0.0000 </r>
       <r>   15.2889    0.0000 </r>
       <r>   16.0454    0.0000 </r>
       <r>   16.1208    0.0000 </r>
       <r>   16.6939    0.0000 </r>
      </set>
      <set comment="kpoint 13">
       <r>  -50.7103    1.0000 </r>
       <r>  -50.7084    1.0000 </r>
       <r>  -50.7025    1.0000 </r>
       <r>  -50.7019    1.0000 </r>
       <r>  -49.8937    1.0000 </r>
       <r>  -49.8883    1.0000 </r>
       <r>  -24.4771    1.0000 </r>
       <r>  -24.4626    1.0000 </r>
       <r>  -24.3440    1.0000 </r>
       <r>  -24.3394    1.0000 </r>
       <r>  -24.1777    1.0000 </r>
       <r>  -24.1659    1.0000 </r>
       <r>  -24.1639    1.0000 </r>
       <r>  -24.1427    1.0000 </r>
       <r>  -24.0204    1.0000 </r>
       <r>  -23.9779    1.0000 </r>
       <r>  -23.9756    1.0000 </r>
       <r>  -23.9452    1.0000 </r>
       <r>  -23.5345    1.0000 </r>
       <r>  -23.5331    1.0000 </r>
       <r>  -23.5199    1.0000 </r>
       <r>  -23.4886    1.0000 </r>
       <r>  -23.2237    1.0000 </r>
       <r>  -23.1478    1.0000 </r>
       <r>   -3.4675    1.0000 </r>
       <r>   -2.0258    1.0000 </r>
       <r>    0.5036    1.0000 </r>
       <r>    1.3461    1.0000 </r>
       <r>    1.8772    1.0000 </r>
       <r>    2.0819    1.0000 </r>
       <r>    2.5451    1.0000 </r>
       <r>    4.3131    1.0000 </r>
       <r>    5.1627    1.0000 </r>
       <r>    5.4808    1.0000 </r>
       <r>    5.6504    1.0000 </r>
       <r>    5.6947    1.0000 </r>
       <r>    5.9617    1.0000 </r>
       <r>    6.1836    1.0000 </r>
       <r>    6.3560    1.0000 </r>
       <r>    6.9551    1.0000 </r>
       <r>    7.0647    1.0000 </r>
       <r>    7.1280    1.0000 </r>
       <r>    8.0727    1.0000 </r>
       <r>    8.1670    1.0000 </r>
       <r>    8.4239    1.0000 </r>
       <r>    8.5310    1.0000 </r>
       <r>    8.7715    1.0000 </r>
       <r>    8.9788    1.0000 </r>
       <r>    9.2563    1.0000 </r>
       <r>    9.5649    1.0000 </r>
       <r>    9.7229    1.0000 </r>
       <r>    9.9578    1.0000 </r>
       <r>   10.1835    1.0000 </r>
       <r>   10.6945    1.0000 </r>
       <r>   11.1135    1.0000 </r>
       <r>   11.1708    1.0000 </r>
       <r>   11.3481    1.0000 </r>
       <r>   11.6564    1.0000 </r>
       <r>   11.9938    1.0000 </r>
       <r>   12.0871    1.0000 </r>
       <r>   12.1224    1.0000 </r>
       <r>   12.5228    0.0000 </r>
       <r>   12.7476    0.0000 </r>
       <r>   12.9125    0.0000 </r>
       <r>   13.0529    0.0000 </r>
       <r>   13.3632    0.0000 </r>
       <r>   13.5598    0.0000 </r>
       <r>   13.6223    0.0000 </r>
       <r>   13.8500    0.0000 </r>
       <r>   14.1605    0.0000 </r>
       <r>   14.4311    0.0000 </r>
       <r>   14.7424    0.0000 </r>
       <r>   15.0445    0.0000 </r>
       <r>   15.1806    0.0000 </r>
       <r>   15.5551    0.0000 </r>
       <r>   15.7860    0.0000 </r>
       <r>   16.5680    0.0000 </r>
       <r>   16.5968    0.0000 </r>
      </set>
      <set comment="kpoint 14">
       <r>  -50.7112    1.0000 </r>
       <r>  -50.7084    1.0000 </r>
       <r>  -50.7018    1.0000 </r>
       <r>  -50.7018    1.0000 </r>
       <r>  -49.8938    1.0000 </r>
       <r>  -49.8880    1.0000 </r>
       <r>  -24.4849    1.0000 </r>
       <r>  -24.4731    1.0000 </r>
       <r>  -24.3381    1.0000 </r>
       <r>  -24.3315    1.0000 </r>
       <r>  -24.1747    1.0000 </r>
       <r>  -24.1733    1.0000 </r>
       <r>  -24.1679    1.0000 </r>
       <r>  -24.1368    1.0000 </r>
       <r>  -24.0245    1.0000 </r>
       <r>  -23.9888    1.0000 </r>
       <r>  -23.9858    1.0000 </r>
       <r>  -23.9379    1.0000 </r>
       <r>  -23.5310    1.0000 </r>
       <r>  -23.5214    1.0000 </r>
       <r>  -23.5177    1.0000 </r>
       <r>  -23.4833    1.0000 </r>
       <r>  -23.2233    1.0000 </r>
       <r>  -23.1426    1.0000 </r>
       <r>   -3.6226    1.0000 </r>
       <r>   -1.9242    1.0000 </r>
       <r>    0.7386    1.0000 </r>
       <r>    1.2360    1.0000 </r>
       <r>    2.0162    1.0000 </r>
       <r>    2.3540    1.0000 </r>
       <r>    2.6904    1.0000 </r>
       <r>    3.9535    1.0000 </r>
       <r>    4.9541    1.0000 </r>
       <r>    5.0868    1.0000 </r>
       <r>    5.3295    1.0000 </r>
       <r>    5.4487    1.0000 </r>
       <r>    5.6268    1.0000 </r>
       <r>    6.0828    1.0000 </r>
       <r>    6.4840    1.0000 </r>
       <r>    6.9395    1.0000 </r>
       <r>    7.2393    1.0000 </r>
       <r>    7.2709    1.0000 </r>
       <r>    8.2647    1.0000 </r>
       <r>    8.5627    1.0000 </r>
       <r>    8.5992    1.0000 </r>
       <r>    8.6523    1.0000 </r>
       <r>    8.9067    1.0000 </r>
       <r>    9.1898    1.0000 </r>
       <r>    9.2102    1.0000 </r>
       <r>    9.7539    1.0000 </r>
       <r>    9.8656    1.0000 </r>
       <r>    9.9258    1.0000 </r>
       <r>   10.1848    1.0000 </r>
       <r>   10.7494    1.0000 </r>
       <r>   10.9745    1.0000 </r>
       <r>   10.9995    1.0000 </r>
       <r>   11.1807    1.0000 </r>
       <r>   11.6429    1.0000 </r>
       <r>   11.8177    1.0000 </r>
       <r>   12.1198    1.0000 </r>
       <r>   12.1548    1.0000 </r>
       <r>   12.6261    0.0000 </r>
       <r>   12.7645    0.0000 </r>
       <r>   12.8268    0.0000 </r>
       <r>   13.2732    0.0000 </r>
       <r>   13.4811    0.0000 </r>
       <r>   13.4907    0.0000 </r>
       <r>   13.8713    0.0000 </r>
       <r>   13.9125    0.0000 </r>
       <r>   14.4818    0.0000 </r>
       <r>   14.6177    0.0000 </r>
       <r>   14.7709    0.0000 </r>
       <r>   14.9421    0.0000 </r>
       <r>   15.2777    0.0000 </r>
       <r>   15.3191    0.0000 </r>
       <r>   15.6702    0.0000 </r>
       <r>   15.9124    0.0000 </r>
       <r>   16.3418    0.0000 </r>
      </set>
      <set comment="kpoint 15">
       <r>  -50.7095    1.0000 </r>
       <r>  -50.7091    1.0000 </r>
       <r>  -50.7026    1.0000 </r>
       <r>  -50.7019    1.0000 </r>
       <r>  -49.8938    1.0000 </r>
       <r>  -49.8883    1.0000 </r>
       <r>  -24.4772    1.0000 </r>
       <r>  -24.4591    1.0000 </r>
       <r>  -24.3419    1.0000 </r>
       <r>  -24.3413    1.0000 </r>
       <r>  -24.1775    1.0000 </r>
       <r>  -24.1643    1.0000 </r>
       <r>  -24.1537    1.0000 </r>
       <r>  -24.1529    1.0000 </r>
       <r>  -24.0215    1.0000 </r>
       <r>  -23.9666    1.0000 </r>
       <r>  -23.9646    1.0000 </r>
       <r>  -23.9543    1.0000 </r>
       <r>  -23.5473    1.0000 </r>
       <r>  -23.5363    1.0000 </r>
       <r>  -23.5199    1.0000 </r>
       <r>  -23.4887    1.0000 </r>
       <r>  -23.2269    1.0000 </r>
       <r>  -23.1482    1.0000 </r>
       <r>   -3.3807    1.0000 </r>
       <r>   -2.0105    1.0000 </r>
       <r>    0.2393    1.0000 </r>
       <r>    1.2932    1.0000 </r>
       <r>    1.8428    1.0000 </r>
       <r>    2.0038    1.0000 </r>
       <r>    2.4795    1.0000 </r>
       <r>    4.5448    1.0000 </r>
       <r>    5.3454    1.0000 </r>
       <r>    5.5887    1.0000 </r>
       <r>    5.6981    1.0000 </r>
       <r>    6.1285    1.0000 </r>
       <r>    6.2560    1.0000 </r>
       <r>    6.3635    1.0000 </r>
       <r>    6.6014    1.0000 </r>
       <r>    6.6800    1.0000 </r>
       <r>    7.0683    1.0000 </r>
       <r>    7.1326    1.0000 </r>
       <r>    7.7511    1.0000 </r>
       <r>    8.0024    1.0000 </r>
       <r>    8.0918    1.0000 </r>
       <r>    8.5619    1.0000 </r>
       <r>    8.5987    1.0000 </r>
       <r>    8.7570    1.0000 </r>
       <r>    9.3432    1.0000 </r>
       <r>    9.4714    1.0000 </r>
       <r>    9.6189    1.0000 </r>
       <r>    9.7094    1.0000 </r>
       <r>   10.5678    1.0000 </r>
       <r>   10.6877    1.0000 </r>
       <r>   10.9995    1.0000 </r>
       <r>   11.0981    1.0000 </r>
       <r>   11.3281    1.0000 </r>
       <r>   11.7123    1.0000 </r>
       <r>   12.0907    1.0000 </r>
       <r>   12.1058    1.0000 </r>
       <r>   12.1446    1.0000 </r>
       <r>   12.3461    0.0000 </r>
       <r>   12.6290    0.0000 </r>
       <r>   12.8258    0.0000 </r>
       <r>   13.1190    0.0000 </r>
       <r>   13.2992    0.0000 </r>
       <r>   13.4993    0.0000 </r>
       <r>   13.5434    0.0000 </r>
       <r>   13.7142    0.0000 </r>
       <r>   13.9640    0.0000 </r>
       <r>   14.3946    0.0000 </r>
       <r>   14.7742    0.0000 </r>
       <r>   14.9726    0.0000 </r>
       <r>   15.3045    0.0000 </r>
       <r>   15.5889    0.0000 </r>
       <r>   16.0146    0.0000 </r>
       <r>   16.5688    0.0000 </r>
       <r>   17.0169    0.0000 </r>
      </set>
      <set comment="kpoint 16">
       <r>  -50.7102    1.0000 </r>
       <r>  -50.7091    1.0000 </r>
       <r>  -50.7018    1.0000 </r>
       <r>  -50.7018    1.0000 </r>
       <r>  -49.8940    1.0000 </r>
[...]
       <r>   14.9388    0.0000 </r>
       <r>   15.0323    0.0000 </r>
       <r>   15.2906    0.0000 </r>
       <r>   15.5201    0.0000 </r>
       <r>   16.2361    0.0000 </r>
      </set>
      <set comment="kpoint 40">
       <r>  -50.7091    1.0000 </r>
       <r>  -50.7091    1.0000 </r>
       <r>  -50.7038    1.0000 </r>
       <r>  -50.7006    1.0000 </r>
       <r>  -49.8942    1.0000 </r>
       <r>  -49.8883    1.0000 </r>
       <r>  -24.4674    1.0000 </r>
       <r>  -24.4517    1.0000 </r>
       <r>  -24.3412    1.0000 </r>
       <r>  -24.3412    1.0000 </r>
       <r>  -24.1998    1.0000 </r>
       <r>  -24.1548    1.0000 </r>
       <r>  -24.1548    1.0000 </r>
       <r>  -24.1412    1.0000 </r>
       <r>  -23.9876    1.0000 </r>
       <r>  -23.9529    1.0000 </r>
       <r>  -23.9529    1.0000 </r>
       <r>  -23.9420    1.0000 </r>
       <r>  -23.5488    1.0000 </r>
       <r>  -23.5487    1.0000 </r>
       <r>  -23.5360    1.0000 </r>
       <r>  -23.5360    1.0000 </r>
       <r>  -23.2443    1.0000 </r>
       <r>  -23.1499    1.0000 </r>
       <r>   -3.0865    1.0000 </r>
       <r>   -2.0736    1.0000 </r>
       <r>    0.5920    1.0000 </r>
       <r>    0.5920    1.0000 </r>
       <r>    0.9858    1.0000 </r>
       <r>    2.5773    1.0000 </r>
       <r>    2.5774    1.0000 </r>
       <r>    3.9985    1.0000 </r>
       <r>    5.1117    1.0000 </r>
       <r>    5.4080    1.0000 </r>
       <r>    5.8128    1.0000 </r>
       <r>    6.3505    1.0000 </r>
       <r>    6.5500    1.0000 </r>
       <r>    6.5500    1.0000 </r>
       <r>    6.5708    1.0000 </r>
       <r>    7.2836    1.0000 </r>
       <r>    7.2836    1.0000 </r>
       <r>    7.6611    1.0000 </r>
       <r>    7.6611    1.0000 </r>
       <r>    8.0491    1.0000 </r>
       <r>    8.2804    1.0000 </r>
       <r>    8.6382    1.0000 </r>
       <r>    8.6382    1.0000 </r>
       <r>    8.8567    1.0000 </r>
       <r>    9.3108    1.0000 </r>
       <r>    9.8136    1.0000 </r>
       <r>   10.6293    1.0000 </r>
       <r>   10.6293    1.0000 </r>
       <r>   10.6446    1.0000 </r>
       <r>   10.7371    1.0000 </r>
       <r>   10.8554    1.0000 </r>
       <r>   10.9972    1.0000 </r>
       <r>   10.9972    1.0000 </r>
       <r>   11.2786    1.0000 </r>
       <r>   11.9612    1.0000 </r>
       <r>   12.0832    1.0000 </r>
       <r>   12.1030    1.0000 </r>
       <r>   12.2446    0.6822 </r>
       <r>   12.2446    0.6818 </r>
       <r>   12.3970    0.0000 </r>
       <r>   12.7766    0.0000 </r>
       <r>   13.3432    0.0000 </r>
       <r>   13.5613    0.0000 </r>
       <r>   13.5613    0.0000 </r>
       <r>   13.7574    0.0000 </r>
       <r>   14.0825    0.0000 </r>
       <r>   14.1744    0.0000 </r>
       <r>   14.3478    0.0000 </r>
       <r>   14.3479    0.0000 </r>
       <r>   14.3804    0.0000 </r>
       <r>   15.2018    0.0000 </r>
       <r>   15.2111    0.0000 </r>
       <r>   16.0482    0.0000 </r>
       <r>   16.0887    0.0000 </r>
      </set>
     </set>
    </set>
   </array>
  </eigenvalues>
  <separator name="orbital magnetization" >
   <v name="MAGDIPOLOUT">      0.00000000      0.00000000      0.00000000</v>
  </separator>
  <dos>
   <i name="efermi">     12.25124552 </i>
   <total>
    <array>
     <dimension dim="1">gridpoints</dimension>
     <dimension dim="2">spin</dimension>
     <field>energy</field>
     <field>total</field>
     <field>integrated</field>
     <set>
      <set comment="spin 1">
       <r>   -54.0986     0.0000     0.0000 </r>
       <r>   -53.8502     0.0000     0.0000 </r>
       <r>   -53.6019     0.0000     0.0000 </r>
       <r>   -53.3535     0.0000     0.0000 </r>
       <r>   -53.1052     0.0000     0.0000 </r>
       <r>   -52.8569     0.0000     0.0000 </r>
       <r>   -52.6085     0.0000     0.0000 </r>
       <r>   -52.3602     0.0000     0.0000 </r>
       <r>   -52.1119     0.0000     0.0000 </r>
       <r>   -51.8635     0.0000     0.0000 </r>
       <r>   -51.6152     0.0000     0.0000 </r>
       <r>   -51.3668     0.0000     0.0000 </r>
       <r>   -51.1185     0.0000     0.0000 </r>
       <r>   -50.8702     0.0000     0.0000 </r>
       <r>   -50.6218    32.2139     8.0000 </r>
       <r>   -50.3735     0.0000     8.0000 </r>
       <r>   -50.1251     0.0000     8.0000 </r>
       <r>   -49.8768    13.5355    11.3614 </r>
       <r>   -49.6285     0.0000    12.0000 </r>
       <r>   -49.3801     0.0000    12.0000 </r>
       <r>   -49.1318     0.0000    12.0000 </r>
       <r>   -48.8834     0.0000    12.0000 </r>
       <r>   -48.6351     0.0000    12.0000 </r>
       <r>   -48.3868     0.0000    12.0000 </r>
       <r>   -48.1384     0.0000    12.0000 </r>
       <r>   -47.8901     0.0000    12.0000 </r>
       <r>   -47.6417     0.0000    12.0000 </r>
       <r>   -47.3934     0.0000    12.0000 </r>
       <r>   -47.1451     0.0000    12.0000 </r>
       <r>   -46.8967     0.0000    12.0000 </r>
       <r>   -46.6484     0.0000    12.0000 </r>
       <r>   -46.4000     0.0000    12.0000 </r>
       <r>   -46.1517     0.0000    12.0000 </r>
       <r>   -45.9034     0.0000    12.0000 </r>
       <r>   -45.6550     0.0000    12.0000 </r>
       <r>   -45.4067     0.0000    12.0000 </r>
       <r>   -45.1583     0.0000    12.0000 </r>
       <r>   -44.9100     0.0000    12.0000 </r>
       <r>   -44.6617     0.0000    12.0000 </r>
       <r>   -44.4133     0.0000    12.0000 </r>
       <r>   -44.1650     0.0000    12.0000 </r>
       <r>   -43.9166     0.0000    12.0000 </r>
       <r>   -43.6683     0.0000    12.0000 </r>
       <r>   -43.4200     0.0000    12.0000 </r>
       <r>   -43.1716     0.0000    12.0000 </r>
       <r>   -42.9233     0.0000    12.0000 </r>
       <r>   -42.6749     0.0000    12.0000 </r>
       <r>   -42.4266     0.0000    12.0000 </r>
       <r>   -42.1783     0.0000    12.0000 </r>
       <r>   -41.9299     0.0000    12.0000 </r>
       <r>   -41.6816     0.0000    12.0000 </r>
       <r>   -41.4332     0.0000    12.0000 </r>
       <r>   -41.1849     0.0000    12.0000 </r>
       <r>   -40.9366     0.0000    12.0000 </r>
       <r>   -40.6882     0.0000    12.0000 </r>
       <r>   -40.4399     0.0000    12.0000 </r>
       <r>   -40.1915     0.0000    12.0000 </r>
       <r>   -39.9432     0.0000    12.0000 </r>
       <r>   -39.6949     0.0000    12.0000 </r>
       <r>   -39.4465     0.0000    12.0000 </r>
       <r>   -39.1982     0.0000    12.0000 </r>
       <r>   -38.9499     0.0000    12.0000 </r>
       <r>   -38.7015     0.0000    12.0000 </r>
       <r>   -38.4532     0.0000    12.0000 </r>
       <r>   -38.2048     0.0000    12.0000 </r>
       <r>   -37.9565     0.0000    12.0000 </r>
       <r>   -37.7082     0.0000    12.0000 </r>
       <r>   -37.4598     0.0000    12.0000 </r>
       <r>   -37.2115     0.0000    12.0000 </r>
       <r>   -36.9631     0.0000    12.0000 </r>
       <r>   -36.7148     0.0000    12.0000 </r>
       <r>   -36.4665     0.0000    12.0000 </r>
       <r>   -36.2181     0.0000    12.0000 </r>
       <r>   -35.9698     0.0000    12.0000 </r>
       <r>   -35.7214     0.0000    12.0000 </r>
       <r>   -35.4731     0.0000    12.0000 </r>
       <r>   -35.2248     0.0000    12.0000 </r>
       <r>   -34.9764     0.0000    12.0000 </r>
       <r>   -34.7281     0.0000    12.0000 </r>
       <r>   -34.4797     0.0000    12.0000 </r>
       <r>   -34.2314     0.0000    12.0000 </r>
       <r>   -33.9831     0.0000    12.0000 </r>
       <r>   -33.7347     0.0000    12.0000 </r>
       <r>   -33.4864     0.0000    12.0000 </r>
       <r>   -33.2380     0.0000    12.0000 </r>
       <r>   -32.9897     0.0000    12.0000 </r>
       <r>   -32.7414     0.0000    12.0000 </r>
       <r>   -32.4930     0.0000    12.0000 </r>
       <r>   -32.2447     0.0000    12.0000 </r>
       <r>   -31.9963     0.0000    12.0000 </r>
       <r>   -31.7480     0.0000    12.0000 </r>
       <r>   -31.4997     0.0000    12.0000 </r>
       <r>   -31.2513     0.0000    12.0000 </r>
       <r>   -31.0030     0.0000    12.0000 </r>
       <r>   -30.7546     0.0000    12.0000 </r>
       <r>   -30.5063     0.0000    12.0000 </r>
       <r>   -30.2580     0.0000    12.0000 </r>
       <r>   -30.0096     0.0000    12.0000 </r>
       <r>   -29.7613     0.0000    12.0000 </r>
       <r>   -29.5129     0.0000    12.0000 </r>
       <r>   -29.2646     0.0000    12.0000 </r>
       <r>   -29.0163     0.0000    12.0000 </r>
       <r>   -28.7679     0.0000    12.0000 </r>
       <r>   -28.5196     0.0000    12.0000 </r>
       <r>   -28.2712     0.0000    12.0000 </r>
       <r>   -28.0229     0.0000    12.0000 </r>
       <r>   -27.7746     0.0000    12.0000 </r>
       <r>   -27.5262     0.0000    12.0000 </r>
       <r>   -27.2779     0.0000    12.0000 </r>
       <r>   -27.0295     0.0000    12.0000 </r>
       <r>   -26.7812     0.0000    12.0000 </r>
       <r>   -26.5329     0.0000    12.0000 </r>
       <r>   -26.2845     0.0000    12.0000 </r>
       <r>   -26.0362     0.0000    12.0000 </r>
       <r>   -25.7879     0.0000    12.0000 </r>
       <r>   -25.5395     0.0000    12.0000 </r>
       <r>   -25.2912     0.0000    12.0000 </r>
       <r>   -25.0428     0.0000    12.0000 </r>
       <r>   -24.7945     0.0000    12.0000 </r>
       <r>   -24.5462     0.0000    12.0000 </r>
       <r>   -24.2978    25.9035    19.9956 </r>
       <r>   -24.0495    32.2566    28.0106 </r>
       <r>   -23.8011     9.2744    36.0000 </r>
       <r>   -23.5528     1.6460    36.4088 </r>
       <r>   -23.3045     0.0000    44.0000 </r>
       <r>   -23.0561    11.8337    48.0000 </r>
       <r>   -22.8078     0.0000    48.0000 </r>
       <r>   -22.5594     0.0000    48.0000 </r>
       <r>   -22.3111     0.0000    48.0000 </r>
       <r>   -22.0628     0.0000    48.0000 </r>
       <r>   -21.8144     0.0000    48.0000 </r>
       <r>   -21.5661     0.0000    48.0000 </r>
       <r>   -21.3177     0.0000    48.0000 </r>
       <r>   -21.0694     0.0000    48.0000 </r>
       <r>   -20.8211     0.0000    48.0000 </r>
       <r>   -20.5727     0.0000    48.0000 </r>
       <r>   -20.3244     0.0000    48.0000 </r>
       <r>   -20.0760     0.0000    48.0000 </r>
       <r>   -19.8277     0.0000    48.0000 </r>
       <r>   -19.5794     0.0000    48.0000 </r>
       <r>   -19.3310     0.0000    48.0000 </r>
       <r>   -19.0827     0.0000    48.0000 </r>
       <r>   -18.8343     0.0000    48.0000 </r>
       <r>   -18.5860     0.0000    48.0000 </r>
       <r>   -18.3377     0.0000    48.0000 </r>
       <r>   -18.0893     0.0000    48.0000 </r>
       <r>   -17.8410     0.0000    48.0000 </r>
       <r>   -17.5926     0.0000    48.0000 </r>
       <r>   -17.3443     0.0000    48.0000 </r>
       <r>   -17.0960     0.0000    48.0000 </r>
       <r>   -16.8476     0.0000    48.0000 </r>
       <r>   -16.5993     0.0000    48.0000 </r>
       <r>   -16.3509     0.0000    48.0000 </r>
       <r>   -16.1026     0.0000    48.0000 </r>
       <r>   -15.8543     0.0000    48.0000 </r>
       <r>   -15.6059     0.0000    48.0000 </r>
       <r>   -15.3576     0.0000    48.0000 </r>
       <r>   -15.1092     0.0000    48.0000 </r>
       <r>   -14.8609     0.0000    48.0000 </r>
       <r>   -14.6126     0.0000    48.0000 </r>
       <r>   -14.3642     0.0000    48.0000 </r>
       <r>   -14.1159     0.0000    48.0000 </r>
       <r>   -13.8675     0.0000    48.0000 </r>
       <r>   -13.6192     0.0000    48.0000 </r>
       <r>   -13.3709     0.0000    48.0000 </r>
       <r>   -13.1225     0.0000    48.0000 </r>
       <r>   -12.8742     0.0000    48.0000 </r>
       <r>   -12.6258     0.0000    48.0000 </r>
       <r>   -12.3775     0.0000    48.0000 </r>
       <r>   -12.1292     0.0000    48.0000 </r>
       <r>   -11.8808     0.0000    48.0000 </r>
       <r>   -11.6325     0.0000    48.0000 </r>
       <r>   -11.3842     0.0000    48.0000 </r>
       <r>   -11.1358     0.0000    48.0000 </r>
       <r>   -10.8875     0.0000    48.0000 </r>
       <r>   -10.6391     0.0000    48.0000 </r>
       <r>   -10.3908     0.0000    48.0000 </r>
       <r>   -10.1425     0.0000    48.0000 </r>
       <r>    -9.8941     0.0000    48.0000 </r>
       <r>    -9.6458     0.0000    48.0000 </r>
       <r>    -9.3974     0.0000    48.0000 </r>
       <r>    -9.1491     0.0000    48.0000 </r>
       <r>    -8.9008     0.0000    48.0000 </r>
       <r>    -8.6524     0.0000    48.0000 </r>
       <r>    -8.4041     0.0000    48.0000 </r>
       <r>    -8.1557     0.0000    48.0000 </r>
       <r>    -7.9074     0.0000    48.0000 </r>
       <r>    -7.6591     0.0000    48.0000 </r>
       <r>    -7.4107     0.0000    48.0000 </r>
       <r>    -7.1624     0.0000    48.0000 </r>
       <r>    -6.9140     0.0000    48.0000 </r>
       <r>    -6.6657     0.0000    48.0000 </r>
       <r>    -6.4174     0.0000    48.0000 </r>
       <r>    -6.1690     0.0000    48.0000 </r>
       <r>    -5.9207     0.0000    48.0000 </r>
       <r>    -5.6723     0.0000    48.0000 </r>
       <r>    -5.4240     0.0000    48.0000 </r>
       <r>    -5.1757     0.0000    48.0000 </r>
       <r>    -4.9273     0.0000    48.0000 </r>
       <r>    -4.6790     0.0000    48.0000 </r>
       <r>    -4.4306     0.0000    48.0000 </r>
       <r>    -4.1823     0.0000    48.0000 </r>
       <r>    -3.9340     0.0000    48.0000 </r>
       <r>    -3.6856     0.3755    48.0991 </r>
       <r>    -3.4373     1.2331    48.5336 </r>
       <r>    -3.1889     1.7824    49.3231 </r>
       <r>    -2.9406     1.2260    49.8613 </r>
       <r>    -2.6923     1.0331    50.3032 </r>
       <r>    -2.4439     0.4285    50.6312 </r>
       <r>    -2.1956     1.1740    51.1429 </r>
       <r>    -1.9472     2.5060    51.7652 </r>
       <r>    -1.6989     0.0000    52.0000 </r>
       <r>    -1.4506     0.0000    52.0000 </r>
       <r>    -1.2022     0.0000    52.0000 </r>
       <r>    -0.9539     0.0000    52.0000 </r>
       <r>    -0.7055     0.0000    52.0000 </r>
       <r>    -0.4572     0.0000    52.0000 </r>
       <r>    -0.2089     0.0000    52.0000 </r>
       <r>     0.0395     0.0000    52.0000 </r>
       <r>     0.2878     0.3949    52.0981 </r>
       <r>     0.5362     1.0591    52.4263 </r>
       <r>     0.7845     1.2036    52.9520 </r>
       <r>     1.0328     1.9969    53.6854 </r>
       <r>     1.2812     2.8939    54.6429 </r>
       <r>     1.5295     1.3785    55.4560 </r>
       <r>     1.7778     4.1011    56.9077 </r>
       <r>     2.0262     2.9726    57.8636 </r>
       <r>     2.2745     3.9246    59.4061 </r>
       <r>     2.5229     3.2072    60.5574 </r>
       <r>     2.7712     2.4309    61.6474 </r>
       <r>     3.0195     0.7979    61.9999 </r>
       <r>     3.2679     0.0000    62.0000 </r>
       <r>     3.5162     0.1606    62.0457 </r>
       <r>     3.7646     2.0244    62.6602 </r>
       <r>     4.0129     0.6668    62.8828 </r>
       <r>     4.2612     0.8840    63.3566 </r>
       <r>     4.5096     2.4008    64.2464 </r>
       <r>     4.7579     1.7055    65.0883 </r>
       <r>     5.0063     3.0089    66.2458 </r>
       <r>     5.2546     3.6270    67.5538 </r>
       <r>     5.5029     4.9959    69.2582 </r>
       <r>     5.7513     5.4386    70.8375 </r>
       <r>     5.9996     4.6881    72.5753 </r>
       <r>     6.2480     5.0174    74.3422 </r>
       <r>     6.4963     5.1203    76.0937 </r>
       <r>     6.7446     5.8259    78.0590 </r>
       <r>     6.9930     4.1487    79.6250 </r>
       <r>     7.2413     4.6938    81.4106 </r>
       <r>     7.4897     5.3620    83.2558 </r>
       <r>     7.7380     3.5331    84.8832 </r>
       <r>     7.9863     4.3458    86.5020 </r>
       <r>     8.2347     3.1955    88.2804 </r>
       <r>     8.4830     4.7268    90.3517 </r>
       <r>     8.7314     5.1453    92.2982 </r>
       <r>     8.9797     6.0848    94.3857 </r>
       <r>     9.2280     5.4076    96.3867 </r>
       <r>     9.4764     6.2089    98.8014 </r>
       <r>     9.7247     5.1700   100.6775 </r>
       <r>     9.9731     2.9255   102.0968 </r>
       <r>    10.2214     2.4150   103.0604 </r>
       <r>    10.4697     2.8058   104.2012 </r>
       <r>    10.7181     3.8912   105.4386 </r>
       <r>    10.9664     3.9859   107.0948 </r>
       <r>    11.2148     4.9069   109.0203 </r>
       <r>    11.4631     6.7494   111.8627 </r>
       <r>    11.7114     6.6994   114.5325 </r>
       <r>    11.9598     8.0976   117.4745 </r>
       <r>    12.2081    11.5290   121.4287 </r>
       <r>    12.4565     7.5065   124.5464 </r>
       <r>    12.7048     6.5187   127.1466 </r>
       <r>    12.9531     4.8439   128.8531 </r>
       <r>    13.2015     2.7333   130.3814 </r>
       <r>    13.4498     4.6180   132.1323 </r>
       <r>    13.6982     7.6001   134.6279 </r>
       <r>    13.9465     4.3117   136.2836 </r>
       <r>    14.1948     6.0418   138.5441 </r>
       <r>    14.4432     8.8110   141.5059 </r>
       <r>    14.6915     7.2200   143.8805 </r>
       <r>    14.9398     5.1024   146.0018 </r>
       <r>    15.1882     5.1015   148.0074 </r>
       <r>    15.4365     4.3201   149.6909 </r>
       <r>    15.6849     2.9566   151.1074 </r>
       <r>    15.9332     3.7967   152.4472 </r>
       <r>    16.1815     3.5616   153.9457 </r>
       <r>    16.4299     2.3479   155.0437 </r>
       <r>    16.6782     2.1014   155.7522 </r>
       <r>    16.9266     0.4695   155.9533 </r>
       <r>    17.1749     0.1878   156.0000 </r>
       <r>    17.4232     0.0000   156.0000 </r>
       <r>    17.6716     0.0000   156.0000 </r>
       <r>    17.9199     0.0000   156.0000 </r>
       <r>    18.1683     0.0000   156.0000 </r>
       <r>    18.4166     0.0000   156.0000 </r>
       <r>    18.6649     0.0000   156.0000 </r>
       <r>    18.9133     0.0000   156.0000 </r>
       <r>    19.1616     0.0000   156.0000 </r>
       <r>    19.4100     0.0000   156.0000 </r>
       <r>    19.6583     0.0000   156.0000 </r>
       <r>    19.9066     0.0000   156.0000 </r>
       <r>    20.1550     0.0000   156.0000 </r>
       <r>    20.4033     0.0000   156.0000 </r>
      </set>
     </set>
    </array>
   </total>
  </dos>
 </calculation>
 <structure name="finalpos" >
  <crystal>
   <varray name="basis" >
    <v>       6.14981608       0.00000000      -1.84912884 </v>
    <v>      -3.39996268       5.12449915      -1.84912884 </v>
    <v>       0.00000000       0.00000000       6.42180000 </v>
   </varray>
   <i name="volume">    202.38127553 </i>
   <varray name="rec_basis" >
    <v>       0.16260649       0.10788488       0.00000000 </v>
    <v>       0.00000000       0.19514102       0.00000000 </v>
    <v>       0.04682182       0.08725497       0.15571958 </v>
   </varray>
  </crystal>
  <varray name="positions" >
   <v>       0.00000000       0.50000000       0.50000000 </v>
   <v>       0.50000000       0.00000000       0.50000000 </v>
   <v>       0.23540000       0.26460000       0.50000000 </v>
   <v>       0.25000000       0.25000000       0.00000000 </v>
   <v>       0.76460000       0.73540000       0.50000000 </v>
   <v>       0.75000000       0.75000000       0.00000000 </v>
   <v>       0.26460000       0.76460000       0.02920000 </v>
   <v>       0.73540000       0.23540000       0.97080000 </v>
   <v>       0.25000000       0.94919000       0.69919000 </v>
   <v>       0.75000000       0.05081000       0.30081000 </v>
   <v>       0.94919000       0.25000000       0.69919000 </v>
   <v>       0.05081000       0.75000000       0.30081000 </v>
   <v>       0.25000000       0.55081000       0.30081000 </v>
   <v>       0.75000000       0.44919000       0.69919000 </v>
   <v>       0.55081000       0.25000000       0.30081000 </v>
   <v>       0.44919000       0.75000000       0.69919000 </v>
  </varray>
 </structure>
</modeling>
