<?xml version="1.0" encoding="ISO-8859-1"?>
<modeling>
 <generator>
  <i name="program" type="string">vasp </i>
  <i name="version" type="string">6.2.0  </i>
  <i name="subversion" type="string">18Jan21 (build Jan 05 2022 15:41:44) complex                          parallel </i>
  <i name="platform" type="string">LinuxIFC </i>
  <i name="date" type="string">2025 05 07 </i>
  <i name="time" type="string">19:32:37 </i>
 </generator>
 <incar>
  <i type="string" name="SYSTEM">routine with relax: pwdword</i>
  <i type="string" name="PREC">Acc</i>
  <i type="int" name="IALGO">    38</i>
  <i type="string" name="ALGO">A</i>
  <i type="logical" name="ADDGRID"> T  </i>
  <i type="int" name="ICHARG">     2</i>
  <i type="int" name="NELM">   100</i>
  <i type="int" name="NELMIN">     6</i>
  <i name="EDIFF">      0.00000000</i>
  <i type="int" name="NSW">     0</i>
  <i type="int" name="ISIF">    -1</i>
  <i name="SYMPREC">      0.00010000</i>
  <i name="ENCUT">    600.00000000</i>
  <i type="logical" name="LREAL"> F  </i>
  <i type="int" name="ISMEAR">     0</i>
  <i name="SIGMA">      0.02000000</i>
  <i type="logical" name="LASPH"> T  </i>
  <i type="string" name="METAGGA">R2SCAN</i>
  <i type="logical" name="LMIXTAU"> F  </i>
 </incar>
 <primitive_cell>
  <structure name="primitive_cell" >
   <crystal>
    <varray name="basis" >
     <v>       3.57887904      -2.54787989       0.00000000 </v>
     <v>       1.81388973       2.54787989       3.08521883 </v>
     <v>      -1.81388973      -2.54787989       3.17050117 </v>
    </varray>
    <i name="volume">     85.95438812 </i>
    <varray name="rec_basis" >
     <v>       0.18543350      -0.13201404       0.00000000 </v>
     <v>       0.09398073       0.13201002       0.15985370 </v>
     <v>      -0.09145277      -0.12845912       0.15985370 </v>
    </varray>
   </crystal>
   <varray name="positions" >
    <v>       0.50000000       0.50000000       1.00000000 </v>
    <v>       0.50000000       0.50000000       0.50000000 </v>
    <v>       0.00000000       0.00000000       0.00000000 </v>
    <v>       0.00000000       0.00000000       0.50000000 </v>
   </varray>
  </structure>
  <varray name="primitive_index" >
   <v type="int" >        1 </v>
   <v type="int" >        3 </v>
   <v type="int" >        4 </v>
   <v type="int" >        7 </v>
  </varray>
 </primitive_cell>
 <kpoints>
  <generation param="Gamma">
   <v type="int" name="divisions">       7        7        8 </v>
   <v name="usershift">      0.00000000       0.00000000       0.00000000 </v>
   <v name="genvec1">      0.14285714       0.00000000       0.00000000 </v>
   <v name="genvec2">      0.00000000       0.14285714       0.00000000 </v>
   <v name="genvec3">      0.00000000       0.00000000       0.12500000 </v>
   <v name="shift">      0.00000000       0.00000000       0.00000000 </v>
  </generation>
  <varray name="kpointlist" >
   <v>       0.00000000       0.00000000       0.00000000 </v>
   <v>       0.14285714       0.00000000       0.00000000 </v>
   <v>       0.28571429       0.00000000       0.00000000 </v>
   <v>       0.42857143       0.00000000       0.00000000 </v>
   <v>       0.14285714       0.14285714       0.00000000 </v>
   <v>       0.28571429       0.14285714       0.00000000 </v>
   <v>       0.42857143       0.14285714       0.00000000 </v>
   <v>      -0.42857143       0.14285714       0.00000000 </v>
   <v>      -0.28571429       0.14285714       0.00000000 </v>
   <v>      -0.14285714       0.14285714       0.00000000 </v>
   <v>       0.28571429       0.28571429       0.00000000 </v>
   <v>       0.42857143       0.28571429       0.00000000 </v>
   <v>      -0.42857143       0.28571429       0.00000000 </v>
   <v>      -0.28571429       0.28571429       0.00000000 </v>
   <v>       0.42857143       0.42857143       0.00000000 </v>
   <v>      -0.42857143       0.42857143       0.00000000 </v>
   <v>      -0.00000000       0.00000000       0.12500000 </v>
   <v>       0.14285714       0.00000000       0.12500000 </v>
   <v>       0.28571429      -0.00000000       0.12500000 </v>
   <v>       0.42857143       0.00000000       0.12500000 </v>
   <v>      -0.42857143       0.00000000       0.12500000 </v>
   <v>      -0.28571429       0.00000000       0.12500000 </v>
   <v>      -0.14285714       0.00000000       0.12500000 </v>
   <v>       0.14285714       0.14285714       0.12500000 </v>
   <v>       0.28571429       0.14285714       0.12500000 </v>
   <v>       0.42857143       0.14285714       0.12500000 </v>
   <v>      -0.42857143       0.14285714       0.12500000 </v>
   <v>      -0.28571429       0.14285714       0.12500000 </v>
   <v>      -0.14285714       0.14285714       0.12500000 </v>
   <v>       0.28571429       0.28571429       0.12500000 </v>
   <v>       0.42857143       0.28571429       0.12500000 </v>
   <v>      -0.42857143       0.28571429       0.12500000 </v>
   <v>      -0.28571429       0.28571429       0.12500000 </v>
   <v>      -0.14285714       0.28571429       0.12500000 </v>
   <v>       0.42857143       0.42857143       0.12500000 </v>
   <v>      -0.42857143       0.42857143       0.12500000 </v>
   <v>      -0.28571429       0.42857143       0.12500000 </v>
   <v>      -0.14285714       0.42857143       0.12500000 </v>
   <v>      -0.42857143      -0.42857143       0.12500000 </v>
   <v>      -0.28571429      -0.42857143       0.12500000 </v>
   <v>      -0.14285714      -0.42857143       0.12500000 </v>
   <v>      -0.28571429      -0.28571429       0.12500000 </v>
   <v>      -0.14285714      -0.28571429       0.12500000 </v>
   <v>      -0.14285714      -0.14285714       0.12500000 </v>
   <v>      -0.00000000       0.00000000       0.25000000 </v>
   <v>       0.14285714       0.00000000       0.25000000 </v>
   <v>       0.28571429      -0.00000000       0.25000000 </v>
   <v>       0.42857143       0.00000000       0.25000000 </v>
   <v>      -0.42857143       0.00000000       0.25000000 </v>
   <v>      -0.28571429       0.00000000       0.25000000 </v>
   <v>      -0.14285714       0.00000000       0.25000000 </v>
   <v>       0.14285714       0.14285714       0.25000000 </v>
   <v>       0.28571429       0.14285714       0.25000000 </v>
   <v>       0.42857143       0.14285714       0.25000000 </v>
   <v>      -0.42857143       0.14285714       0.25000000 </v>
   <v>      -0.28571429       0.14285714       0.25000000 </v>
   <v>      -0.14285714       0.14285714       0.25000000 </v>
   <v>       0.28571429       0.28571429       0.25000000 </v>
   <v>       0.42857143       0.28571429       0.25000000 </v>
   <v>      -0.42857143       0.28571429       0.25000000 </v>
   <v>      -0.28571429       0.28571429       0.25000000 </v>
   <v>      -0.14285714       0.28571429       0.25000000 </v>
   <v>       0.42857143       0.42857143       0.25000000 </v>
   <v>      -0.42857143       0.42857143       0.25000000 </v>
   <v>      -0.28571429       0.42857143       0.25000000 </v>
   <v>      -0.14285714       0.42857143       0.25000000 </v>
   <v>      -0.42857143      -0.42857143       0.25000000 </v>
   <v>      -0.28571429      -0.42857143       0.25000000 </v>
   <v>      -0.14285714      -0.42857143       0.25000000 </v>
   <v>      -0.28571429      -0.28571429       0.25000000 </v>
   <v>      -0.14285714      -0.28571429       0.25000000 </v>
   <v>      -0.14285714      -0.14285714       0.25000000 </v>
   <v>      -0.00000000       0.00000000       0.37500000 </v>
   <v>       0.14285714       0.00000000       0.37500000 </v>
   <v>       0.28571429       0.00000000       0.37500000 </v>
   <v>       0.42857143       0.00000000       0.37500000 </v>
   <v>      -0.42857143       0.00000000       0.37500000 </v>
   <v>      -0.28571429       0.00000000       0.37500000 </v>
   <v>      -0.14285714       0.00000000       0.37500000 </v>
   <v>       0.14285714       0.14285714       0.37500000 </v>
   <v>       0.28571429       0.14285714       0.37500000 </v>
   <v>       0.42857143       0.14285714       0.37500000 </v>
   <v>      -0.42857143       0.14285714       0.37500000 </v>
   <v>      -0.28571429       0.14285714       0.37500000 </v>
   <v>      -0.14285714       0.14285714       0.37500000 </v>
   <v>       0.28571429       0.28571429       0.37500000 </v>
   <v>       0.42857143       0.28571429       0.37500000 </v>
   <v>      -0.42857143       0.28571429       0.37500000 </v>
   <v>      -0.28571429       0.28571429       0.37500000 </v>
   <v>      -0.14285714       0.28571429       0.37500000 </v>
   <v>       0.42857143       0.42857143       0.37500000 </v>
   <v>      -0.42857143       0.42857143       0.37500000 </v>
   <v>      -0.28571429       0.42857143       0.37500000 </v>
   <v>      -0.14285714       0.42857143       0.37500000 </v>
   <v>      -0.42857143      -0.42857143       0.37500000 </v>
   <v>      -0.28571429      -0.42857143       0.37500000 </v>
   <v>      -0.14285714      -0.42857143       0.37500000 </v>
   <v>      -0.28571429      -0.28571429       0.37500000 </v>
   <v>      -0.14285714      -0.28571429       0.37500000 </v>
   <v>      -0.14285714      -0.14285714       0.37500000 </v>
   <v>      -0.00000000       0.00000000       0.50000000 </v>
   <v>       0.14285714       0.00000000       0.50000000 </v>
   <v>       0.28571429       0.00000000       0.50000000 </v>
   <v>       0.42857143       0.00000000       0.50000000 </v>
   <v>       0.14285714       0.14285714       0.50000000 </v>
   <v>       0.28571429       0.14285714       0.50000000 </v>
   <v>       0.42857143       0.14285714       0.50000000 </v>
   <v>      -0.42857143       0.14285714       0.50000000 </v>
   <v>      -0.28571429       0.14285714       0.50000000 </v>
   <v>      -0.14285714       0.14285714       0.50000000 </v>
   <v>       0.28571429       0.28571429       0.50000000 </v>
   <v>       0.42857143       0.28571429       0.50000000 </v>
   <v>      -0.42857143       0.28571429       0.50000000 </v>
   <v>      -0.28571429       0.28571429       0.50000000 </v>
   <v>       0.42857143       0.42857143       0.50000000 </v>
   <v>      -0.42857143       0.42857143       0.50000000 </v>
  </varray>
  <varray name="weights" >
   <v>       0.00255102 </v>
   <v>       0.01020408 </v>
   <v>       0.01020408 </v>
   <v>       0.01020408 </v>
   <v>       0.00510204 </v>
   <v>       0.01020408 </v>
   <v>       0.01020408 </v>
   <v>       0.01020408 </v>
   <v>       0.01020408 </v>
   <v>       0.00510204 </v>
   <v>       0.00510204 </v>
   <v>       0.01020408 </v>
   <v>       0.01020408 </v>
   <v>       0.00510204 </v>
   <v>       0.00510204 </v>
   <v>       0.00510204 </v>
   <v>       0.00510204 </v>
   <v>       0.01020408 </v>
   <v>       0.01020408 </v>
   <v>       0.01020408 </v>
   <v>       0.01020408 </v>
   <v>       0.01020408 </v>
   <v>       0.01020408 </v>
   <v>       0.00510204 </v>
   <v>       0.01020408 </v>
   <v>       0.01020408 </v>
   <v>       0.01020408 </v>
   <v>       0.01020408 </v>
   <v>       0.01020408 </v>
   <v>       0.00510204 </v>
   <v>       0.01020408 </v>
   <v>       0.01020408 </v>
   <v>       0.01020408 </v>
   <v>       0.01020408 </v>
   <v>       0.00510204 </v>
   <v>       0.01020408 </v>
   <v>       0.01020408 </v>
   <v>       0.01020408 </v>
   <v>       0.00510204 </v>
   <v>       0.01020408 </v>
   <v>       0.01020408 </v>
   <v>       0.00510204 </v>
   <v>       0.01020408 </v>
   <v>       0.00510204 </v>
   <v>       0.00510204 </v>
   <v>       0.01020408 </v>
   <v>       0.01020408 </v>
   <v>       0.01020408 </v>
   <v>       0.01020408 </v>
   <v>       0.01020408 </v>
   <v>       0.01020408 </v>
   <v>       0.00510204 </v>
   <v>       0.01020408 </v>
   <v>       0.01020408 </v>
   <v>       0.01020408 </v>
   <v>       0.01020408 </v>
   <v>       0.01020408 </v>
   <v>       0.00510204 </v>
   <v>       0.01020408 </v>
   <v>       0.01020408 </v>
   <v>       0.01020408 </v>
   <v>       0.01020408 </v>
   <v>       0.00510204 </v>
   <v>       0.01020408 </v>
   <v>       0.01020408 </v>
   <v>       0.01020408 </v>
   <v>       0.00510204 </v>
   <v>       0.01020408 </v>
   <v>       0.01020408 </v>
   <v>       0.00510204 </v>
   <v>       0.01020408 </v>
   <v>       0.00510204 </v>
   <v>       0.00510204 </v>
   <v>       0.01020408 </v>
   <v>       0.01020408 </v>
   <v>       0.01020408 </v>
   <v>       0.01020408 </v>
   <v>       0.01020408 </v>
   <v>       0.01020408 </v>
   <v>       0.00510204 </v>
   <v>       0.01020408 </v>
   <v>       0.01020408 </v>
   <v>       0.01020408 </v>
   <v>       0.01020408 </v>
   <v>       0.01020408 </v>
   <v>       0.00510204 </v>
   <v>       0.01020408 </v>
   <v>       0.01020408 </v>
   <v>       0.01020408 </v>
   <v>       0.01020408 </v>
   <v>       0.00510204 </v>
   <v>       0.01020408 </v>
   <v>       0.01020408 </v>
   <v>       0.01020408 </v>
   <v>       0.00510204 </v>
   <v>       0.01020408 </v>
   <v>       0.01020408 </v>
   <v>       0.00510204 </v>
   <v>       0.01020408 </v>
   <v>       0.00510204 </v>
   <v>       0.00255102 </v>
   <v>       0.01020408 </v>
   <v>       0.01020408 </v>
   <v>       0.01020408 </v>
   <v>       0.00510204 </v>
   <v>       0.01020408 </v>
   <v>       0.01020408 </v>
   <v>       0.01020408 </v>
   <v>       0.01020408 </v>
   <v>       0.00510204 </v>
   <v>       0.00510204 </v>
   <v>       0.01020408 </v>
   <v>       0.01020408 </v>
   <v>       0.00510204 </v>
   <v>       0.00510204 </v>
   <v>       0.00510204 </v>
  </varray>
 </kpoints>
 <parameters>
  <separator name="general" >
   <i type="string" name="SYSTEM">routine with relax: pwdword</i>
   <i type="logical" name="LCOMPAT"> F  </i>
  </separator>
  <separator name="electronic" >
   <i type="string" name="PREC">acc</i>
   <i name="ENMAX">    600.00000000</i>
   <i name="ENAUG">    535.51400000</i>
   <i name="EDIFF">      0.00000000</i>
   <i type="int" name="IALGO">    58</i>
   <i type="int" name="IWAVPR">    10</i>
   <i type="int" name="NBANDS">    42</i>
   <i type="int" name="NBANDSLOW">    -1</i>
   <i type="int" name="NBANDSHIGH">    -1</i>
   <i name="NELECT">     70.00000000</i>
   <i type="int" name="TURBO">     0</i>
   <i type="int" name="IRESTART">     0</i>
   <i type="int" name="NREBOOT">     0</i>
   <i type="int" name="NMIN">     0</i>
   <i name="EREF">      0.00000000</i>
   <separator name="electronic smearing" >
    <i type="int" name="ISMEAR">     0</i>
    <i name="SIGMA">      0.02000000</i>
    <i name="KSPACING">      0.50000000</i>
    <i type="logical" name="KGAMMA"> T  </i>
    <i type="logical" name="KBLOWUP"> F  </i>
   </separator>
   <separator name="electronic projectors" >
    <i type="logical" name="LREAL"> F  </i>
    <v name="ROPT">      0.00000000      0.00000000      0.00000000</v>
    <i type="int" name="LMAXPAW">  -100</i>
    <i type="int" name="LMAXMIX">     2</i>
    <i type="logical" name="NLSPLINE"> F  </i>
   </separator>
   <separator name="electronic startup" >
    <i type="int" name="ISTART">     0</i>
    <i type="int" name="ICHARG">     2</i>
    <i type="int" name="INIWAV">     1</i>
   </separator>
   <separator name="electronic spin" >
    <i type="int" name="ISPIN">     1</i>
    <i type="logical" name="LNONCOLLINEAR"> F  </i>
    <v name="MAGMOM">      1.00000000      1.00000000      1.00000000      1.00000000      1.00000000      1.00000000      1.00000000      1.00000000</v>
    <i name="NUPDOWN">     -1.00000000</i>
    <i type="logical" name="LSORBIT"> F  </i>
    <v name="SAXIS">      0.00000000      0.00000000      1.00000000</v>
    <i type="logical" name="LSPIRAL"> F  </i>
    <v name="QSPIRAL">      0.00000000      0.00000000      0.00000000</v>
    <i type="logical" name="LZEROZ"> F  </i>
   </separator>
   <separator name="electronic exchange-correlation" >
    <i type="logical" name="LASPH"> T  </i>
    <i type="logical" name="LMETAGGA"> F  </i>
   </separator>
   <separator name="electronic convergence" >
    <i type="int" name="NELM">   100</i>
    <i type="int" name="NELMDL">    -5</i>
    <i type="int" name="NELMIN">     6</i>
    <i name="ENINI">    600.00000000</i>
    <separator name="electronic convergence detail" >
     <i type="logical" name="LDIAG"> T  </i>
     <i type="logical" name="LSUBROT"> F  </i>
     <i name="WEIMIN">      0.00000000</i>
     <i name="EBREAK">      0.00000000</i>
     <i name="DEPER">      0.30000000</i>
     <i type="int" name="NRMM">     4</i>
     <i name="TIME">      0.40000000</i>
    </separator>
   </separator>
   <separator name="electronic mixer" >
    <i name="AMIX">      0.40000000</i>
    <i name="BMIX">      1.00000000</i>
    <i name="AMIN">      0.10000000</i>
    <i name="AMIX_MAG">      1.60000000</i>
    <i name="BMIX_MAG">      1.00000000</i>
    <separator name="electronic mixer details" >
     <i type="int" name="IMIX">     4</i>
     <i type="logical" name="MIXFIRST"> F  </i>
     <i type="int" name="MAXMIX">   -45</i>
     <i name="WC">    100.00000000</i>
     <i type="int" name="INIMIX">     1</i>
     <i type="int" name="MIXPRE">     1</i>
     <i type="int" name="MREMOVE">     5</i>
    </separator>
   </separator>
   <separator name="electronic dipolcorrection" >
    <i type="logical" name="LDIPOL"> F  </i>
    <i type="logical" name="LMONO"> F  </i>
    <i type="int" name="IDIPOL">     0</i>
    <i name="EPSILON">      1.00000000</i>
    <v name="DIPOL">   -100.00000000   -100.00000000   -100.00000000</v>
    <i name="EFIELD">      0.00000000</i>
   </separator>
  </separator>
  <separator name="grids" >
   <i type="int" name="NGX">    50</i>
   <i type="int" name="NGY">    50</i>
   <i type="int" name="NGZ">    50</i>
   <i type="int" name="NGXF">   100</i>
   <i type="int" name="NGYF">   100</i>
   <i type="int" name="NGZF">   100</i>
   <i type="logical" name="ADDGRID"> T  </i>
  </separator>
  <separator name="ionic" >
   <i type="int" name="NSW">     0</i>
   <i type="int" name="IBRION">    -1</i>
   <i type="int" name="MDALGO">     0</i>
   <i type="int" name="ISIF">    -1</i>
   <i name="PSTRESS">      0.00000000</i>
   <i name="EDIFFG">      0.00000001</i>
   <i type="int" name="NFREE">     0</i>
   <i name="POTIM">      0.50000000</i>
   <i name="SMASS">     -3.00000000</i>
   <i name="SCALEE">      1.00000000</i>
  </separator>
  <separator name="ionic md" >
   <i name="TEBEG">      0.00010000</i>
   <i name="TEEND">      0.00010000</i>
   <i type="int" name="NBLOCK">     1</i>
   <i type="int" name="KBLOCK">     1</i>
   <i type="int" name="NPACO">   256</i>
   <i name="APACO">     16.00000000</i>
  </separator>
  <separator name="symmetry" >
   <i type="int" name="ISYM">     2</i>
   <i name="SYMPREC">      0.00010000</i>
  </separator>
  <separator name="dos" >
   <i type="int" name="LORBIT">     0</i>
   <v name="RWIGS">     -1.00000000     -1.00000000     -1.00000000</v>
   <i type="int" name="NEDOS">   301</i>
   <i name="EMIN">     10.00000000</i>
   <i name="EMAX">    -10.00000000</i>
   <i name="EFERMI">      0.00000000</i>
  </separator>
  <separator name="writing" >
   <i type="int" name="NWRITE">     2</i>
   <i type="logical" name="LWAVE"> T  </i>
   <i type="logical" name="LDOWNSAMPLE"> F  </i>
   <i type="logical" name="LCHARG"> T  </i>
   <i type="logical" name="LPARD"> F  </i>
   <i type="logical" name="LVTOT"> F  </i>
   <i type="logical" name="LVHAR"> F  </i>
   <i type="logical" name="LELF"> F  </i>
   <i type="logical" name="LOPTICS"> F  </i>
   <v name="STM">      0.00000000      0.00000000      0.00000000      0.00000000      0.00000000      0.00000000      0.00000000</v>
  </separator>
  <separator name="performance" >
   <i type="int" name="NPAR">     6</i>
   <i type="int" name="NSIM">     4</i>
   <i type="int" name="NBLK">    -1</i>
   <i type="logical" name="LPLANE"> T  </i>
   <i type="logical" name="LSCALAPACK"> T  </i>
   <i type="logical" name="LSCAAWARE"> F  </i>
   <i type="logical" name="LSCALU"> F  </i>
   <i type="logical" name="LASYNC"> F  </i>
   <i type="logical" name="LORBITALREAL"> F  </i>
  </separator>
  <separator name="miscellaneous" >
   <i type="int" name="IDIOT">     3</i>
   <i type="int" name="PHON_NSTRUCT">    -1</i>
   <i type="logical" name="LMUSIC"> F  </i>
   <v name="POMASS">     10.81100000     95.94000000     28.08500000</v>
   <v name="DARWINR">      0.00000000      0.00000000      0.00000000</v>
   <v name="DARWINV">      1.00000000      1.00000000      1.00000000</v>
   <i type="logical" name="LCORR"> T  </i>
  </separator>
  <i type="logical" name="GGA_COMPAT"> T  </i>
  <i type="logical" name="LBERRY"> F  </i>
  <i type="int" name="ICORELEVEL">     0</i>
  <i type="logical" name="LDAU"> F  </i>
  <i type="int" name="I_CONSTRAINED_M">     0</i>
  <separator name="electronic exchange-correlation" >
   <i type="string" name="GGA">--</i>
   <i type="int" name="VOSKOWN">     0</i>
   <i type="logical" name="LHFCALC"> F  </i>
   <i type="string" name="PRECFOCK"></i>
   <i type="logical" name="LSYMGRAD"> F  </i>
   <i type="logical" name="LHFONE"> F  </i>
   <i type="logical" name="LRHFCALC"> F  </i>
   <i type="logical" name="LTHOMAS"> F  </i>
   <i type="logical" name="LMODELHF"> F  </i>
   <i type="logical" name="LFOCKACE"> F  </i>
   <i name="ENCUT4O">     -1.00000000</i>
   <i type="int" name="EXXOEP">     0</i>
   <i type="int" name="FOURORBIT">     0</i>
   <i name="AEXX">      0.00000000</i>
   <i name="HFALPHA">      0.00000000</i>
   <i name="MCALPHA">      0.00000000</i>
   <i name="ALDAX">      1.00000000</i>
   <i name="AGGAX">      1.00000000</i>
   <i name="ALDAC">      1.00000000</i>
   <i name="AGGAC">      1.00000000</i>
   <i type="int" name="NKREDX">     1</i>
   <i type="int" name="NKREDY">     1</i>
   <i type="int" name="NKREDZ">     1</i>
   <i type="logical" name="SHIFTRED"> F  </i>
   <i type="logical" name="ODDONLY"> F  </i>
   <i type="logical" name="EVENONLY"> F  </i>
   <i type="int" name="LMAXFOCK">     0</i>
   <i type="int" name="NMAXFOCKAE">     0</i>
   <i type="logical" name="LFOCKAEDFT"> F  </i>
   <i name="HFSCREEN">      0.00000000</i>
   <i name="HFSCREENC">      0.00000000</i>
   <i type="int" name="NBANDSGWLOW">     0</i>
  </separator>
  <separator name="vdW DFT" >
   <i type="logical" name="LUSE_VDW"> F  </i>
   <i name="Zab_VDW">     -0.84910000</i>
   <i name="PARAM1">      0.12340000</i>
   <i name="PARAM2">      1.00000000</i>
   <i name="PARAM3">      0.00000000</i>
  </separator>
  <separator name="model GW" >
   <i type="int" name="MODEL_GW">     0</i>
   <i name="MODEL_EPS0">     12.89315822</i>
   <i name="MODEL_ALPHA">      1.00000000</i>
  </separator>
  <separator name="linear response parameters" >
   <i type="logical" name="LEPSILON"> F  </i>
   <i type="logical" name="LRPA"> F  </i>
   <i type="logical" name="LNABLA"> F  </i>
   <i type="logical" name="LVEL"> F  </i>
   <i type="int" name="KINTER">     0</i>
   <i name="CSHIFT">      0.10000000</i>
   <i name="OMEGAMAX">     -1.00000000</i>
   <i name="DEG_THRESHOLD">      0.00200000</i>
   <i name="RTIME">     -0.10000000</i>
   <i name="WPLASMAI">      0.00000000</i>
   <v name="DFIELD">      0.00000000      0.00000000      0.00000000</v>
   <v name="WPLASMA">      0.00000000      0.00000000      0.00000000      0.00000000      0.00000000      0.00000000      0.00000000      0.00000000      0.00000000</v>
  </separator>
  <separator name="orbital magnetization" >
   <i type="logical" name="NUCIND"> F  </i>
   <v name="MAGPOS">      0.00000000      0.00000000      0.00000000</v>
   <i type="logical" name="LNICSALL"> T  </i>
   <i type="logical" name="ORBITALMAG"> F  </i>
   <i type="logical" name="LMAGBLOCH"> F  </i>
   <i type="logical" name="LCHIMAG"> F  </i>
   <i type="logical" name="LGAUGE"> T  </i>
   <i type="int" name="MAGATOM">     0</i>
   <v name="MAGDIPOL">      0.00000000      0.00000000      0.00000000</v>
   <v name="AVECCONST">      0.00000000      0.00000000      0.00000000</v>
  </separator>
  <separator name="response functions" >
   <i type="logical" name="LFINITE_TEMPERATURE"> F  </i>
   <i type="logical" name="LADDER"> F  </i>
   <i type="logical" name="LRPAFORCE"> F  </i>
   <i type="logical" name="LFXC"> F  </i>
   <i type="logical" name="LHARTREE"> T  </i>
   <i type="int" name="IBSE">     0</i>
   <v type="int" name="KPOINT">    -1     0     0     0</v>
   <i type="logical" name="LTCTC"> F  </i>
   <i type="logical" name="LTCTE"> F  </i>
   <i type="logical" name="LTETE"> F  </i>
   <i type="logical" name="LTRIPLET"> F  </i>
   <i type="logical" name="LFXCEPS"> F  </i>
   <i type="logical" name="LFXHEG"> F  </i>
   <i type="int" name="NATURALO">     2</i>
   <i type="logical" name="LHOLEGF"> F  </i>
   <i type="logical" name="L2ORDER"> F  </i>
   <i type="logical" name="LDMP1"> F  </i>
   <i type="logical" name="LMP2LT"> F  </i>
   <i type="logical" name="LSMP2LT"> F  </i>
   <i type="logical" name="LGWLF"> F  </i>
   <i name="ENCUTGW">     -2.00000000</i>
   <i name="ENCUTGWSOFT">     -2.00000000</i>
   <i name="ENCUTLF">     -1.00000000</i>
   <i type="logical" name="LESF_SPLINES"> F  </i>
   <i type="int" name="LMAXMP2">    -1</i>
   <i name="SCISSOR">      0.00000000</i>
   <i type="int" name="NOMEGA">     0</i>
   <i type="int" name="NOMEGAR">     0</i>
   <i type="int" name="NBANDSGW">    -1</i>
   <i type="int" name="NBANDSO">    -1</i>
   <i type="int" name="NBANDSV">    -1</i>
   <i type="int" name="NELM">   100</i>
   <i type="int" name="NELMHF">     1</i>
   <i type="int" name="DIM">     3</i>
   <i type="int" name="IESPILON">     4</i>
   <i type="int" name="ANTIRES">     0</i>
   <i name="OMEGAMAX">    -30.00000000</i>
   <i name="OMEGAMIN">    -30.00000000</i>
   <i name="OMEGATL">   -200.00000000</i>
   <i type="int" name="OMEGAGRID">     0</i>
   <i name="CSHIFT">     -0.10000000</i>
   <i type="logical" name="LSELFENERGY"> F  </i>
   <i type="logical" name="LSPECTRAL"> F  </i>
   <i type="logical" name="LSPECTRALGW"> F  </i>
   <i type="logical" name="LSINGLES"> F  </i>
   <i type="logical" name="LFERMIGW"> F  </i>
   <i type="logical" name="ODDONLYGW"> F  </i>
   <i type="logical" name="EVENONLYGW"> F  </i>
   <i type="int" name="NKREDLFX">     1</i>
   <i type="int" name="NKREDLFY">     1</i>
   <i type="int" name="NKREDLFZ">     1</i>
   <i type="int" name="MAXMEM">  2800</i>
   <i type="int" name="TELESCOPE">     0</i>
   <i type="int" name="NTAUPAR">    -1</i>
   <i type="int" name="NOMEGAPAR">    -1</i>
   <i name="DAMP_NEWTON">      0.80000001</i>
   <i name="LAMBDA">      1.00000000</i>
  </separator>
  <separator name="External order field" >
   <i name="OFIELD_KAPPA">      0.00000000</i>
   <v name="OFIELD_K">      0.00000000      0.00000000      0.00000000</v>
   <i name="OFIELD_Q6_NEAR">      0.00000000</i>
   <i name="OFIELD_Q6_FAR">      0.00000000</i>
   <i name="OFIELD_A">      0.00000000</i>
  </separator>
 </parameters>
 <atominfo>
  <atoms>       8 </atoms>
  <types>       3 </types>
  <array name="atoms" >
   <dimension dim="1">ion</dimension>
   <field type="string">element</field>
   <field type="int">atomtype</field>
   <set>
    <rc><c>B </c><c>   1</c></rc>
    <rc><c>B </c><c>   1</c></rc>
    <rc><c>Mo</c><c>   2</c></rc>
    <rc><c>Mo</c><c>   2</c></rc>
    <rc><c>Mo</c><c>   2</c></rc>
    <rc><c>Mo</c><c>   2</c></rc>
    <rc><c>Si</c><c>   3</c></rc>
    <rc><c>Si</c><c>   3</c></rc>
   </set>
  </array>
  <array name="atomtypes" >
   <dimension dim="1">type</dimension>
   <field type="int">atomspertype</field>
   <field type="string">element</field>
   <field>mass</field>
   <field>valence</field>
   <field type="string">pseudopotential</field>
   <set>
    <rc><c>   2</c><c>B </c><c>     10.81100000</c><c>      3.00000000</c><c>  PAW_PBE B 06Sep2000                   </c></rc>
    <rc><c>   4</c><c>Mo</c><c>     95.94000000</c><c>     14.00000000</c><c>  PAW_PBE Mo_sv 02Feb2006               </c></rc>
    <rc><c>   2</c><c>Si</c><c>     28.08500000</c><c>      4.00000000</c><c>  PAW_PBE Si 05Jan2001                  </c></rc>
   </set>
  </array>
 </atominfo>
 <structure name="initialpos" >
  <crystal>
   <varray name="basis" >
    <v>       5.39276878       0.00000000      -3.17050117 </v>
    <v>      -1.76498931       5.09575979      -3.17050117 </v>
    <v>       0.00000000       0.00000000       6.25572000 </v>
   </varray>
   <i name="volume">    171.90877625 </i>
   <varray name="rec_basis" >
    <v>       0.18543350       0.06422755       0.00000000 </v>
    <v>       0.00000000       0.19624159       0.00000000 </v>
    <v>       0.09398073       0.13201002       0.15985370 </v>
   </varray>
  </crystal>
  <varray name="positions" >
   <v>       0.50000000       0.00000000       0.50000000 </v>
   <v>       0.00000000       0.50000000       0.50000000 </v>
   <v>       0.25000000       0.75000000       0.50000000 </v>
   <v>       0.00000000       0.00000000       0.00000000 </v>
   <v>       0.75000000       0.25000000       0.50000000 </v>
   <v>       0.50000000       0.50000000       0.00000000 </v>
   <v>       0.25000000       0.25000000       0.00000000 </v>
   <v>       0.75000000       0.75000000       0.00000000 </v>
  </varray>
 </structure>
 <calculation>
  <scstep>
   <time name="total">   14.01   14.14</time>
   <energy>
    <i name="alphaZ">    239.92929702 </i>
    <i name="ewald">  -5392.28471359 </i>
    <i name="hartreedc">  -2057.75221770 </i>
    <i name="XCdc">    304.07860604 </i>
    <i name="pawpsdc">   6194.65714934 </i>
    <i name="pawaedc">  -6160.44322926 </i>
    <i name="eentropy">     -0.00067045 </i>
    <i name="bandstr">   -355.30260124 </i>
    <i name="atom">   7797.60240368 </i>
    <i name="e_fr_energy">    570.48402384 </i>
    <i name="e_wo_entrp">    570.48469429 </i>
    <i name="e_0_energy">    570.48435906 </i>
   </energy>
  </scstep>
  <scstep>
   <time name="total">   14.63   14.76</time>
   <energy>
    <i name="e_fr_energy">   -117.22153452 </i>
    <i name="e_wo_entrp">   -117.21937728 </i>
    <i name="e_0_energy">   -117.22045590 </i>
   </energy>
  </scstep>
  <scstep>
   <time name="total">   15.50   15.64</time>
   <energy>
    <i name="e_fr_energy">   -151.19073524 </i>
    <i name="e_wo_entrp">   -151.18903350 </i>
    <i name="e_0_energy">   -151.18988437 </i>
   </energy>
  </scstep>
  <scstep>
   <time name="total">   15.98   16.12</time>
   <energy>
    <i name="e_fr_energy">   -152.37231559 </i>
    <i name="e_wo_entrp">   -152.37060726 </i>
    <i name="e_0_energy">   -152.37146142 </i>
   </energy>
  </scstep>
  <scstep>
   <time name="total">   17.44   17.59</time>
   <energy>
    <i name="e_fr_energy">   -152.42617278 </i>
    <i name="e_wo_entrp">   -152.42438178 </i>
    <i name="e_0_energy">   -152.42527728 </i>
   </energy>
  </scstep>
  <scstep>
   <time name="total">   17.59   17.75</time>
   <energy>
    <i name="e_fr_energy">    -97.93169254 </i>
    <i name="e_wo_entrp">    -97.92971282 </i>
    <i name="e_0_energy">    -97.93070268 </i>
   </energy>
  </scstep>
  <scstep>
   <time name="total">   16.68   16.83</time>
   <energy>
    <i name="e_fr_energy">   -115.37106736 </i>
    <i name="e_wo_entrp">   -115.36883246 </i>
    <i name="e_0_energy">   -115.36994991 </i>
   </energy>
  </scstep>
  <scstep>
   <time name="total">   17.17   17.33</time>
   <energy>
    <i name="e_fr_energy">   -119.57152071 </i>
    <i name="e_wo_entrp">   -119.56902563 </i>
    <i name="e_0_energy">   -119.57027317 </i>
   </energy>
  </scstep>
  <scstep>
   <time name="total">   17.30   17.47</time>
   <energy>
    <i name="e_fr_energy">   -120.57370264 </i>
    <i name="e_wo_entrp">   -120.57098190 </i>
    <i name="e_0_energy">   -120.57234227 </i>
   </energy>
  </scstep>
  <scstep>
   <time name="total">   16.90   17.06</time>
   <energy>
    <i name="e_fr_energy">   -120.96415933 </i>
    <i name="e_wo_entrp">   -120.96134956 </i>
    <i name="e_0_energy">   -120.96275445 </i>
   </energy>
  </scstep>
  <scstep>
   <time name="total">   16.81   16.95</time>
   <energy>
    <i name="e_fr_energy">   -121.09987120 </i>
    <i name="e_wo_entrp">   -121.09692831 </i>
    <i name="e_0_energy">   -121.09839976 </i>
   </energy>
  </scstep>
  <scstep>
   <time name="total">   16.17   16.32</time>
   <energy>
    <i name="e_fr_energy">   -121.19595189 </i>
    <i name="e_wo_entrp">   -121.19286244 </i>
    <i name="e_0_energy">   -121.19440716 </i>
   </energy>
  </scstep>
  <scstep>
   <time name="total">   17.34   17.49</time>
   <energy>
    <i name="e_fr_energy">   -121.25096268 </i>
    <i name="e_wo_entrp">   -121.24789523 </i>
    <i name="e_0_energy">   -121.24942896 </i>
   </energy>
  </scstep>
  <scstep>
   <time name="total">   16.85   17.00</time>
   <energy>
    <i name="e_fr_energy">   -121.27397447 </i>
    <i name="e_wo_entrp">   -121.27112104 </i>
    <i name="e_0_energy">   -121.27254775 </i>
   </energy>
  </scstep>
  <scstep>
   <time name="total">   18.13   18.30</time>
   <energy>
    <i name="e_fr_energy">   -121.29036255 </i>
    <i name="e_wo_entrp">   -121.28761607 </i>
    <i name="e_0_energy">   -121.28898931 </i>
   </energy>
  </scstep>
  <scstep>
   <time name="total">   16.86   17.02</time>
   <energy>
    <i name="e_fr_energy">   -121.30544511 </i>
    <i name="e_wo_entrp">   -121.30277961 </i>
    <i name="e_0_energy">   -121.30411236 </i>
   </energy>
  </scstep>
  <scstep>
   <time name="total">   17.66   17.82</time>
   <energy>
    <i name="e_fr_energy">   -121.31126247 </i>
    <i name="e_wo_entrp">   -121.30858681 </i>
    <i name="e_0_energy">   -121.30992464 </i>
   </energy>
  </scstep>
  <scstep>
   <time name="total">   16.59   16.74</time>
   <energy>
    <i name="e_fr_energy">   -121.31794792 </i>
    <i name="e_wo_entrp">   -121.31539142 </i>
    <i name="e_0_energy">   -121.31666967 </i>
   </energy>
  </scstep>
  <scstep>
   <time name="total">   17.82   17.99</time>
   <energy>
    <i name="e_fr_energy">   -121.32124467 </i>
    <i name="e_wo_entrp">   -121.31864526 </i>
    <i name="e_0_energy">   -121.31994496 </i>
   </energy>
  </scstep>
  <scstep>
   <time name="total">   17.71   17.88</time>
   <energy>
    <i name="e_fr_energy">   -121.32294424 </i>
    <i name="e_wo_entrp">   -121.32034109 </i>
    <i name="e_0_energy">   -121.32164266 </i>
   </energy>
  </scstep>
  <scstep>
   <time name="total">   16.58   16.73</time>
   <energy>
    <i name="e_fr_energy">   -121.32498842 </i>
    <i name="e_wo_entrp">   -121.32234061 </i>
    <i name="e_0_energy">   -121.32366451 </i>
   </energy>
  </scstep>
  <scstep>
   <time name="total">   17.96   18.13</time>
   <energy>
    <i name="e_fr_energy">   -121.32578941 </i>
    <i name="e_wo_entrp">   -121.32313384 </i>
    <i name="e_0_energy">   -121.32446163 </i>
   </energy>
  </scstep>
  <scstep>
   <time name="total">   17.04   17.19</time>
   <energy>
    <i name="e_fr_energy">   -121.32692837 </i>
    <i name="e_wo_entrp">   -121.32421514 </i>
    <i name="e_0_energy">   -121.32557175 </i>
   </energy>
  </scstep>
  <scstep>
   <time name="total">   17.47   17.62</time>
   <energy>
    <i name="e_fr_energy">   -121.32772904 </i>
    <i name="e_wo_entrp">   -121.32501203 </i>
    <i name="e_0_energy">   -121.32637054 </i>
   </energy>
  </scstep>
  <scstep>
   <time name="total">   17.47   17.62</time>
   <energy>
    <i name="e_fr_energy">   -121.32800112 </i>
    <i name="e_wo_entrp">   -121.32525460 </i>
    <i name="e_0_energy">   -121.32662786 </i>
   </energy>
  </scstep>
  <scstep>
   <time name="total">   17.81   17.97</time>
   <energy>
    <i name="e_fr_energy">   -121.32841346 </i>
    <i name="e_wo_entrp">   -121.32567059 </i>
    <i name="e_0_energy">   -121.32704202 </i>
   </energy>
  </scstep>
  <scstep>
   <time name="total">   16.85   17.00</time>
   <energy>
    <i name="e_fr_energy">   -121.32857735 </i>
    <i name="e_wo_entrp">   -121.32582488 </i>
    <i name="e_0_energy">   -121.32720111 </i>
   </energy>
  </scstep>
  <scstep>
   <time name="total">   16.71   16.85</time>
   <energy>
    <i name="e_fr_energy">   -121.32873784 </i>
    <i name="e_wo_entrp">   -121.32599505 </i>
    <i name="e_0_energy">   -121.32736644 </i>
   </energy>
  </scstep>
  <scstep>
   <time name="total">   17.07   17.22</time>
   <energy>
    <i name="e_fr_energy">   -121.32887688 </i>
    <i name="e_wo_entrp">   -121.32613268 </i>
    <i name="e_0_energy">   -121.32750478 </i>
   </energy>
  </scstep>
  <scstep>
   <time name="total">   17.09   17.24</time>
   <energy>
    <i name="e_fr_energy">   -121.32892683 </i>
    <i name="e_wo_entrp">   -121.32619907 </i>
    <i name="e_0_energy">   -121.32756295 </i>
   </energy>
  </scstep>
  <scstep>
   <time name="total">   16.83   16.98</time>
   <energy>
    <i name="e_fr_energy">   -121.32900394 </i>
    <i name="e_wo_entrp">   -121.32628192 </i>
    <i name="e_0_energy">   -121.32764293 </i>
   </energy>
  </scstep>
  <scstep>
   <time name="total">   17.56   17.71</time>
   <energy>
    <i name="e_fr_energy">   -121.32903750 </i>
    <i name="e_wo_entrp">   -121.32632938 </i>
    <i name="e_0_energy">   -121.32768344 </i>
   </energy>
  </scstep>
  <scstep>
   <time name="total">   16.75   16.90</time>
   <energy>
    <i name="e_fr_energy">   -121.32906488 </i>
    <i name="e_wo_entrp">   -121.32636894 </i>
    <i name="e_0_energy">   -121.32771691 </i>
   </energy>
  </scstep>
  <scstep>
   <time name="total">   17.05   17.21</time>
   <energy>
    <i name="e_fr_energy">   -121.32909267 </i>
    <i name="e_wo_entrp">   -121.32640453 </i>
    <i name="e_0_energy">   -121.32774860 </i>
   </energy>
  </scstep>
  <scstep>
   <time name="total">   17.29   17.45</time>
   <energy>
    <i name="e_fr_energy">   -121.32910142 </i>
    <i name="e_wo_entrp">   -121.32641939 </i>
    <i name="e_0_energy">   -121.32776040 </i>
   </energy>
  </scstep>
  <scstep>
   <time name="total">   16.11   16.26</time>
   <energy>
    <i name="e_fr_energy">   -121.32911590 </i>
    <i name="e_wo_entrp">   -121.32643777 </i>
    <i name="e_0_energy">   -121.32777684 </i>
   </energy>
  </scstep>
  <scstep>
   <time name="total">   16.61   16.75</time>
   <energy>
    <i name="e_fr_energy">   -121.32912386 </i>
    <i name="e_wo_entrp">   -121.32644323 </i>
    <i name="e_0_energy">   -121.32778355 </i>
   </energy>
  </scstep>
  <scstep>
   <time name="total">   17.38   17.53</time>
   <energy>
    <i name="e_fr_energy">   -121.32912652 </i>
    <i name="e_wo_entrp">   -121.32644092 </i>
    <i name="e_0_energy">   -121.32778372 </i>
   </energy>
  </scstep>
  <scstep>
   <time name="total">   17.35   17.51</time>
   <energy>
    <i name="e_fr_energy">   -121.32913533 </i>
    <i name="e_wo_entrp">   -121.32644694 </i>
    <i name="e_0_energy">   -121.32779114 </i>
   </energy>
  </scstep>
  <scstep>
   <time name="total">   16.98   17.13</time>
   <energy>
    <i name="e_fr_energy">   -121.32913859 </i>
    <i name="e_wo_entrp">   -121.32644789 </i>
    <i name="e_0_energy">   -121.32779324 </i>
   </energy>
  </scstep>
  <scstep>
   <time name="total">   16.81   16.96</time>
   <energy>
    <i name="e_fr_energy">   -121.32913971 </i>
    <i name="e_wo_entrp">   -121.32644794 </i>
    <i name="e_0_energy">   -121.32779382 </i>
   </energy>
  </scstep>
  <scstep>
   <time name="total">   16.78   16.94</time>
   <energy>
    <i name="e_fr_energy">   -121.32914088 </i>
    <i name="e_wo_entrp">   -121.32644754 </i>
    <i name="e_0_energy">   -121.32779421 </i>
   </energy>
  </scstep>
  <scstep>
   <time name="total">   16.97   17.13</time>
   <energy>
    <i name="e_fr_energy">   -121.32914171 </i>
    <i name="e_wo_entrp">   -121.32644752 </i>
    <i name="e_0_energy">   -121.32779462 </i>
   </energy>
  </scstep>
  <scstep>
   <time name="total">   17.06   17.21</time>
   <energy>
    <i name="e_fr_energy">   -121.32914193 </i>
    <i name="e_wo_entrp">   -121.32644755 </i>
    <i name="e_0_energy">   -121.32779474 </i>
   </energy>
  </scstep>
  <scstep>
   <time name="total">   16.81   16.97</time>
   <energy>
    <i name="e_fr_energy">   -121.32914228 </i>
    <i name="e_wo_entrp">   -121.32644737 </i>
    <i name="e_0_energy">   -121.32779483 </i>
   </energy>
  </scstep>
  <scstep>
   <time name="total">   16.89   17.04</time>
   <energy>
    <i name="e_fr_energy">   -121.32914253 </i>
    <i name="e_wo_entrp">   -121.32644777 </i>
    <i name="e_0_energy">   -121.32779515 </i>
   </energy>
  </scstep>
  <scstep>
   <time name="total">   16.64   16.80</time>
   <energy>
    <i name="e_fr_energy">   -121.32914257 </i>
    <i name="e_wo_entrp">   -121.32644781 </i>
    <i name="e_0_energy">   -121.32779519 </i>
   </energy>
  </scstep>
  <scstep>
   <time name="total">   16.13   16.27</time>
   <energy>
    <i name="e_fr_energy">   -121.32914267 </i>
    <i name="e_wo_entrp">   -121.32644774 </i>
    <i name="e_0_energy">   -121.32779520 </i>
   </energy>
  </scstep>
  <scstep>
   <time name="total">   16.79   16.94</time>
   <energy>
    <i name="e_fr_energy">   -121.32914270 </i>
    <i name="e_wo_entrp">   -121.32644791 </i>
    <i name="e_0_energy">   -121.32779530 </i>
   </energy>
  </scstep>
  <scstep>
   <time name="total">   17.37   17.53</time>
   <energy>
    <i name="e_fr_energy">   -121.32914275 </i>
    <i name="e_wo_entrp">   -121.32644870 </i>
    <i name="e_0_energy">   -121.32779573 </i>
   </energy>
  </scstep>
  <scstep>
   <time name="total">   16.60   16.75</time>
   <energy>
    <i name="e_fr_energy">   -121.32914273 </i>
    <i name="e_wo_entrp">   -121.32644833 </i>
    <i name="e_0_energy">   -121.32779553 </i>
   </energy>
  </scstep>
  <scstep>
   <time name="total">   16.83   16.98</time>
   <energy>
    <i name="e_fr_energy">   -121.32914281 </i>
    <i name="e_wo_entrp">   -121.32644846 </i>
    <i name="e_0_energy">   -121.32779563 </i>
   </energy>
  </scstep>
  <scstep>
   <time name="total">   16.70   16.85</time>
   <energy>
    <i name="e_fr_energy">   -121.32914285 </i>
    <i name="e_wo_entrp">   -121.32644861 </i>
    <i name="e_0_energy">   -121.32779573 </i>
   </energy>
  </scstep>
  <scstep>
   <time name="total">   17.03   17.19</time>
   <energy>
    <i name="e_fr_energy">   -121.32914286 </i>
    <i name="e_wo_entrp">   -121.32644860 </i>
    <i name="e_0_energy">   -121.32779573 </i>
   </energy>
  </scstep>
  <scstep>
   <time name="total">   16.14   16.29</time>
   <energy>
    <i name="e_fr_energy">   -121.32914287 </i>
    <i name="e_wo_entrp">   -121.32644859 </i>
    <i name="e_0_energy">   -121.32779573 </i>
   </energy>
  </scstep>
  <scstep>
   <time name="total">   17.01   17.17</time>
   <energy>
    <i name="e_fr_energy">   -121.32914289 </i>
    <i name="e_wo_entrp">   -121.32644912 </i>
    <i name="e_0_energy">   -121.32779600 </i>
   </energy>
  </scstep>
  <scstep>
   <time name="total">   16.41   16.57</time>
   <energy>
    <i name="e_fr_energy">   -121.32914285 </i>
    <i name="e_wo_entrp">   -121.32644882 </i>
    <i name="e_0_energy">   -121.32779584 </i>
   </energy>
  </scstep>
  <scstep>
   <time name="total">   16.53   16.69</time>
   <energy>
    <i name="e_fr_energy">   -121.32914290 </i>
    <i name="e_wo_entrp">   -121.32644889 </i>
    <i name="e_0_energy">   -121.32779589 </i>
   </energy>
  </scstep>
  <scstep>
   <time name="total">   16.67   16.82</time>
   <energy>
    <i name="e_fr_energy">   -121.32914291 </i>
    <i name="e_wo_entrp">   -121.32644895 </i>
    <i name="e_0_energy">   -121.32779593 </i>
   </energy>
  </scstep>
  <scstep>
   <time name="total">   16.86   17.02</time>
   <energy>
    <i name="e_fr_energy">   -121.32914291 </i>
    <i name="e_wo_entrp">   -121.32644890 </i>
    <i name="e_0_energy">   -121.32779590 </i>
   </energy>
  </scstep>
  <scstep>
   <time name="total">   16.57   16.72</time>
   <energy>
    <i name="e_fr_energy">   -121.32914291 </i>
    <i name="e_wo_entrp">   -121.32644893 </i>
    <i name="e_0_energy">   -121.32779592 </i>
   </energy>
  </scstep>
  <scstep>
   <time name="total">   29.13   29.39</time>
   <energy>
    <i name="e_fr_energy">   -121.32914292 </i>
    <i name="e_wo_entrp">   -121.32644892 </i>
    <i name="e_0_energy">   -121.32779592 </i>
   </energy>
  </scstep>
  <scstep>
   <time name="total">   16.61   16.76</time>
   <energy>
    <i name="e_fr_energy">   -121.32914291 </i>
    <i name="e_wo_entrp">   -121.32644896 </i>
    <i name="e_0_energy">   -121.32779594 </i>
   </energy>
  </scstep>
  <scstep>
   <time name="total">   16.61   16.77</time>
   <energy>
    <i name="e_fr_energy">   -121.32914292 </i>
    <i name="e_wo_entrp">   -121.32644894 </i>
    <i name="e_0_energy">   -121.32779593 </i>
   </energy>
  </scstep>
  <scstep>
   <time name="total">   16.46   16.60</time>
   <energy>
    <i name="e_fr_energy">   -121.32914292 </i>
    <i name="e_wo_entrp">   -121.32644892 </i>
    <i name="e_0_energy">   -121.32779592 </i>
   </energy>
  </scstep>
  <scstep>
   <time name="total">   19.40   19.57</time>
   <energy>
    <i name="alphaZ">    239.92929702 </i>
    <i name="ewald">  -5392.28471359 </i>
    <i name="hartreedc">  -1965.51734709 </i>
    <i name="XCdc">    309.29493294 </i>
    <i name="pawpsdc">   7463.60052343 </i>
    <i name="pawaedc">  -7436.41859679 </i>
    <i name="eentropy">     -0.00269398 </i>
    <i name="bandstr">  -1137.53294851 </i>
    <i name="atom">   7797.60240368 </i>
    <i name="e_fr_energy">   -121.32914292 </i>
    <i name="e_wo_entrp">   -121.32644894 </i>
    <i name="e_0_energy">   -121.32779593 </i>
   </energy>
  </scstep>
  <structure>
   <crystal>
    <varray name="basis" >
     <v>       5.39276878       0.00000000      -3.17050117 </v>
     <v>      -1.76498931       5.09575979      -3.17050117 </v>
     <v>       0.00000000       0.00000000       6.25572000 </v>
    </varray>
    <i name="volume">    171.90877625 </i>
    <varray name="rec_basis" >
     <v>       0.18543350       0.06422755       0.00000000 </v>
     <v>       0.00000000       0.19624159       0.00000000 </v>
     <v>       0.09398073       0.13201002       0.15985370 </v>
    </varray>
   </crystal>
   <varray name="positions" >
    <v>       0.50000000       0.00000000       0.50000000 </v>
    <v>       0.00000000       0.50000000       0.50000000 </v>
    <v>       0.25000000       0.75000000       0.50000000 </v>
    <v>       0.00000000       0.00000000       0.00000000 </v>
    <v>       0.75000000       0.25000000       0.50000000 </v>
    <v>       0.50000000       0.50000000       0.00000000 </v>
    <v>       0.25000000       0.25000000       0.00000000 </v>
    <v>       0.75000000       0.75000000       0.00000000 </v>
   </varray>
  </structure>
  <varray name="forces" >
   <v>       0.00000000       0.00000000       0.00000000 </v>
   <v>       0.00000000       0.00000000       0.00000000 </v>
   <v>       0.00000000       0.00000000       0.00000000 </v>
   <v>       0.00000000       0.00000000       0.00000000 </v>
   <v>       0.00000000       0.00000000       0.00000000 </v>
   <v>       0.00000000       0.00000000       0.00000000 </v>
   <v>       0.00000000       0.00000000       0.00000000 </v>
   <v>       0.00000000       0.00000000       0.00000000 </v>
  </varray>
  <varray name="stress" >
   <v>       0.00000000       0.00000000       0.00000000 </v>
   <v>       0.00000000       0.00000000       0.00000000 </v>
   <v>       0.00000000       0.00000000       0.00000000 </v>
  </varray>
  <energy>
   <i name="e_fr_energy">   -121.32914292 </i>
   <i name="e_wo_entrp">   -121.32644894 </i>
   <i name="e_0_energy">   -121.32779593 </i>
  </energy>
  <time name="totalsc"> 1129.67 1139.97</time>
  <eigenvalues>
   <array>
    <dimension dim="1">band</dimension>
    <dimension dim="2">kpoint</dimension>
    <dimension dim="3">spin</dimension>
    <field>eigene</field>
    <field>occ</field>
    <set>
     <set comment="spin 1">
      <set comment="kpoint 1">
       <r>  -57.9877    1.0000 </r>
       <r>  -57.9875    1.0000 </r>
       <r>  -57.8956    1.0000 </r>
       <r>  -57.8945    1.0000 </r>
       <r>  -31.3386    1.0000 </r>
       <r>  -31.3385    1.0000 </r>
       <r>  -31.3333    1.0000 </r>
       <r>  -31.3332    1.0000 </r>
       <r>  -31.3147    1.0000 </r>
       <r>  -31.3107    1.0000 </r>
       <r>  -31.3070    1.0000 </r>
       <r>  -31.3068    1.0000 </r>
       <r>  -31.2946    1.0000 </r>
       <r>  -31.2944    1.0000 </r>
       <r>  -31.2869    1.0000 </r>
       <r>  -31.2712    1.0000 </r>
       <r>   -4.1843    1.0000 </r>
       <r>   -1.8571    1.0000 </r>
       <r>   -1.5314    1.0000 </r>
       <r>   -0.3777    1.0000 </r>
       <r>    1.0739    1.0000 </r>
       <r>    1.7317    1.0000 </r>
       <r>    1.7317    1.0000 </r>
       <r>    1.7695    1.0000 </r>
       <r>    2.4869    1.0000 </r>
       <r>    2.4869    1.0000 </r>
       <r>    3.4743    1.0000 </r>
       <r>    3.8383    1.0000 </r>
       <r>    3.8384    1.0000 </r>
       <r>    3.8489    1.0000 </r>
       <r>    4.1823    1.0000 </r>
       <r>    4.3239    1.0000 </r>
       <r>    4.3240    1.0000 </r>
       <r>    4.6179    1.0000 </r>
       <r>    5.4775    0.0000 </r>
       <r>    5.6059    0.0000 </r>
       <r>    5.6300    0.0000 </r>
       <r>    5.6333    0.0000 </r>
       <r>    5.6807    0.0000 </r>
       <r>    6.0140    0.0000 </r>
       <r>    6.1382    0.0000 </r>
       <r>    6.8808    0.0000 </r>
      </set>
      <set comment="kpoint 2">
       <r>  -57.9877    1.0000 </r>
       <r>  -57.9875    1.0000 </r>
       <r>  -57.8956    1.0000 </r>
       <r>  -57.8946    1.0000 </r>
       <r>  -31.3386    1.0000 </r>
       <r>  -31.3370    1.0000 </r>
       <r>  -31.3366    1.0000 </r>
       <r>  -31.3340    1.0000 </r>
       <r>  -31.3116    1.0000 </r>
       <r>  -31.3098    1.0000 </r>
       <r>  -31.3077    1.0000 </r>
       <r>  -31.3058    1.0000 </r>
       <r>  -31.2967    1.0000 </r>
       <r>  -31.2948    1.0000 </r>
       <r>  -31.2845    1.0000 </r>
       <r>  -31.2728    1.0000 </r>
       <r>   -4.0757    1.0000 </r>
       <r>   -1.8173    1.0000 </r>
       <r>   -1.7097    1.0000 </r>
       <r>   -0.5390    1.0000 </r>
       <r>    1.2707    1.0000 </r>
       <r>    1.5885    1.0000 </r>
       <r>    1.7781    1.0000 </r>
       <r>    2.0802    1.0000 </r>
       <r>    2.4981    1.0000 </r>
       <r>    2.5426    1.0000 </r>
       <r>    3.2957    1.0000 </r>
       <r>    3.4858    1.0000 </r>
       <r>    3.7419    1.0000 </r>
       <r>    3.8320    1.0000 </r>
       <r>    4.0474    1.0000 </r>
       <r>    4.1575    1.0000 </r>
       <r>    4.3937    1.0000 </r>
       <r>    4.4184    1.0000 </r>
       <r>    5.4317    0.0000 </r>
       <r>    5.5551    0.0000 </r>
       <r>    5.5828    0.0000 </r>
       <r>    5.7526    0.0000 </r>
       <r>    5.8429    0.0000 </r>
       <r>    5.9336    0.0000 </r>
       <r>    6.1227    0.0000 </r>
       <r>    6.5887    0.0000 </r>
      </set>
      <set comment="kpoint 3">
       <r>  -57.9876    1.0000 </r>
       <r>  -57.9875    1.0000 </r>
       <r>  -57.8954    1.0000 </r>
       <r>  -57.8948    1.0000 </r>
       <r>  -31.3401    1.0000 </r>
       <r>  -31.3385    1.0000 </r>
       <r>  -31.3356    1.0000 </r>
       <r>  -31.3347    1.0000 </r>
       <r>  -31.3123    1.0000 </r>
       <r>  -31.3072    1.0000 </r>
       <r>  -31.3034    1.0000 </r>
       <r>  -31.3032    1.0000 </r>
       <r>  -31.3021    1.0000 </r>
       <r>  -31.2959    1.0000 </r>
       <r>  -31.2810    1.0000 </r>
       <r>  -31.2761    1.0000 </r>
       <r>   -3.7624    1.0000 </r>
       <r>   -2.1472    1.0000 </r>
       <r>   -1.7011    1.0000 </r>
       <r>   -0.8965    1.0000 </r>
       <r>    1.5576    1.0000 </r>
       <r>    1.7572    1.0000 </r>
       <r>    1.9189    1.0000 </r>
       <r>    2.4985    1.0000 </r>
       <r>    2.6541    1.0000 </r>
       <r>    2.7058    1.0000 </r>
       <r>    2.7596    1.0000 </r>
       <r>    2.8952    1.0000 </r>
       <r>    3.3996    1.0000 </r>
       <r>    3.5585    1.0000 </r>
       <r>    3.6916    1.0000 </r>
       <r>    4.0067    1.0000 </r>
       <r>    4.4428    1.0000 </r>
       <r>    4.5856    1.0000 </r>
       <r>    5.3817    0.0000 </r>
       <r>    5.4066    0.0000 </r>
       <r>    5.5285    0.0000 </r>
       <r>    5.7095    0.0000 </r>
       <r>    5.8159    0.0000 </r>
       <r>    5.9209    0.0000 </r>
       <r>    6.3203    0.0000 </r>
       <r>    6.7791    0.0000 </r>
      </set>
      <set comment="kpoint 4">
       <r>  -57.9876    1.0000 </r>
       <r>  -57.9875    1.0000 </r>
       <r>  -57.8952    1.0000 </r>
       <r>  -57.8950    1.0000 </r>
       <r>  -31.3391    1.0000 </r>
       <r>  -31.3381    1.0000 </r>
       <r>  -31.3371    1.0000 </r>
       <r>  -31.3356    1.0000 </r>
       <r>  -31.3129    1.0000 </r>
       <r>  -31.3102    1.0000 </r>
       <r>  -31.3010    1.0000 </r>
       <r>  -31.3003    1.0000 </r>
       <r>  -31.2999    1.0000 </r>
       <r>  -31.2977    1.0000 </r>
       <r>  -31.2795    1.0000 </r>
       <r>  -31.2786    1.0000 </r>
       <r>   -3.2836    1.0000 </r>
       <r>   -2.7105    1.0000 </r>
       <r>   -1.5129    1.0000 </r>
       <r>   -1.2465    1.0000 </r>
       <r>    1.7377    1.0000 </r>
       <r>    2.1375    1.0000 </r>
       <r>    2.1569    1.0000 </r>
       <r>    2.2705    1.0000 </r>
       <r>    2.4894    1.0000 </r>
       <r>    2.7948    1.0000 </r>
       <r>    2.8233    1.0000 </r>
       <r>    2.9616    1.0000 </r>
       <r>    3.1673    1.0000 </r>
       <r>    3.2706    1.0000 </r>
       <r>    3.2718    1.0000 </r>
       <r>    3.6612    1.0000 </r>
       <r>    4.8415    1.0000 </r>
       <r>    4.8603    1.0000 </r>
       <r>    5.1472    1.0000 </r>
       <r>    5.3286    0.1466 </r>
       <r>    5.4021    0.0000 </r>
       <r>    5.4636    0.0000 </r>
       <r>    5.8068    0.0000 </r>
       <r>    5.8310    0.0000 </r>
       <r>    6.6110    0.0000 </r>
       <r>    6.6882    0.0000 </r>
      </set>
      <set comment="kpoint 5">
       <r>  -57.9877    1.0000 </r>
       <r>  -57.9875    1.0000 </r>
       <r>  -57.8954    1.0000 </r>
       <r>  -57.8947    1.0000 </r>
       <r>  -31.3397    1.0000 </r>
       <r>  -31.3376    1.0000 </r>
       <r>  -31.3359    1.0000 </r>
       <r>  -31.3353    1.0000 </r>
       <r>  -31.3089    1.0000 </r>
       <r>  -31.3088    1.0000 </r>
       <r>  -31.3081    1.0000 </r>
       <r>  -31.3020    1.0000 </r>
       <r>  -31.2986    1.0000 </r>
       <r>  -31.2970    1.0000 </r>
       <r>  -31.2829    1.0000 </r>
       <r>  -31.2751    1.0000 </r>
       <r>   -3.8617    1.0000 </r>
       <r>   -2.0926    1.0000 </r>
       <r>   -1.6964    1.0000 </r>
       <r>   -0.8852    1.0000 </r>
       <r>    1.6380    1.0000 </r>
       <r>    1.7911    1.0000 </r>
       <r>    1.8829    1.0000 </r>
       <r>    2.5281    1.0000 </r>
       <r>    2.5807    1.0000 </r>
       <r>    2.6881    1.0000 </r>
       <r>    2.8558    1.0000 </r>
       <r>    3.3095    1.0000 </r>
       <r>    3.4126    1.0000 </r>
       <r>    3.6637    1.0000 </r>
       <r>    3.8049    1.0000 </r>
       <r>    3.8843    1.0000 </r>
       <r>    4.3181    1.0000 </r>
       <r>    4.3971    1.0000 </r>
       <r>    5.3833    0.0000 </r>
       <r>    5.5164    0.0000 </r>
       <r>    5.5522    0.0000 </r>
       <r>    5.7719    0.0000 </r>
       <r>    5.8074    0.0000 </r>
       <r>    5.9161    0.0000 </r>
       <r>    6.1870    0.0000 </r>
       <r>    6.9567    0.0000 </r>
      </set>
      <set comment="kpoint 6">
       <r>  -57.9876    1.0000 </r>
       <r>  -57.9875    1.0000 </r>
       <r>  -57.8953    1.0000 </r>
       <r>  -57.8950    1.0000 </r>
       <r>  -31.3415    1.0000 </r>
       <r>  -31.3385    1.0000 </r>
       <r>  -31.3363    1.0000 </r>
       <r>  -31.3337    1.0000 </r>
       <r>  -31.3102    1.0000 </r>
       <r>  -31.3069    1.0000 </r>
       <r>  -31.3042    1.0000 </r>
       <r>  -31.3039    1.0000 </r>
       <r>  -31.2988    1.0000 </r>
       <r>  -31.2983    1.0000 </r>
       <r>  -31.2808    1.0000 </r>
       <r>  -31.2772    1.0000 </r>
       <r>   -3.4501    1.0000 </r>
       <r>   -2.5473    1.0000 </r>
       <r>   -1.5036    1.0000 </r>
       <r>   -1.2643    1.0000 </r>
       <r>    1.6884    1.0000 </r>
       <r>    2.0249    1.0000 </r>
       <r>    2.2067    1.0000 </r>
       <r>    2.3476    1.0000 </r>
       <r>    2.7901    1.0000 </r>
       <r>    2.7989    1.0000 </r>
       <r>    2.8412    1.0000 </r>
       <r>    3.0251    1.0000 </r>
       <r>    3.1685    1.0000 </r>
       <r>    3.1778    1.0000 </r>
       <r>    3.4429    1.0000 </r>
       <r>    3.6112    1.0000 </r>
       <r>    4.5486    1.0000 </r>
       <r>    4.6448    1.0000 </r>
       <r>    5.3545    0.0020 </r>
       <r>    5.3821    0.0000 </r>
       <r>    5.5007    0.0000 </r>
       <r>    5.5844    0.0000 </r>
       <r>    5.7321    0.0000 </r>
       <r>    5.8307    0.0000 </r>
       <r>    6.4314    0.0000 </r>
       <r>    6.6509    0.0000 </r>
      </set>
      <set comment="kpoint 7">
       <r>  -57.9876    1.0000 </r>
       <r>  -57.9875    1.0000 </r>
       <r>  -57.8952    1.0000 </r>
       <r>  -57.8950    1.0000 </r>
       <r>  -31.3409    1.0000 </r>
       <r>  -31.3405    1.0000 </r>
       <r>  -31.3353    1.0000 </r>
       <r>  -31.3332    1.0000 </r>
       <r>  -31.3125    1.0000 </r>
       <r>  -31.3107    1.0000 </r>
       <r>  -31.3020    1.0000 </r>
       <r>  -31.3006    1.0000 </r>
       <r>  -31.2996    1.0000 </r>
       <r>  -31.2970    1.0000 </r>
       <r>  -31.2802    1.0000 </r>
       <r>  -31.2776    1.0000 </r>
       <r>   -3.0358    1.0000 </r>
       <r>   -2.8872    1.0000 </r>
       <r>   -1.5622    1.0000 </r>
       <r>   -1.2450    1.0000 </r>
       <r>    1.6583    1.0000 </r>
       <r>    1.8862    1.0000 </r>
       <r>    2.2878    1.0000 </r>
       <r>    2.3375    1.0000 </r>
       <r>    2.3970    1.0000 </r>
       <r>    2.7105    1.0000 </r>
       <r>    2.8266    1.0000 </r>
       <r>    3.0624    1.0000 </r>
       <r>    3.1201    1.0000 </r>
       <r>    3.1737    1.0000 </r>
       <r>    3.2754    1.0000 </r>
       <r>    3.6509    1.0000 </r>
       <r>    4.8690    1.0000 </r>
       <r>    5.0862    1.0000 </r>
       <r>    5.1251    1.0000 </r>
       <r>    5.1739    1.0000 </r>
       <r>    5.3825    0.0000 </r>
       <r>    5.4568    0.0000 </r>
       <r>    5.6858    0.0000 </r>
       <r>    5.8788    0.0000 </r>
       <r>    6.4116    0.0000 </r>
       <r>    6.4974    0.0000 </r>
      </set>
      <set comment="kpoint 8">
       <r>  -57.9876    1.0000 </r>
       <r>  -57.9875    1.0000 </r>
       <r>  -57.8954    1.0000 </r>
       <r>  -57.8948    1.0000 </r>
       <r>  -31.3435    1.0000 </r>
       <r>  -31.3395    1.0000 </r>
       <r>  -31.3330    1.0000 </r>
       <r>  -31.3329    1.0000 </r>
       <r>  -31.3150    1.0000 </r>
       <r>  -31.3081    1.0000 </r>
       <r>  -31.3040    1.0000 </r>
       <r>  -31.3008    1.0000 </r>
       <r>  -31.2996    1.0000 </r>
       <r>  -31.2975    1.0000 </r>
       <r>  -31.2787    1.0000 </r>
       <r>  -31.2774    1.0000 </r>
       <r>   -3.5046    1.0000 </r>
       <r>   -2.2648    1.0000 </r>
       <r>   -1.7461    1.0000 </r>
       <r>   -0.9226    1.0000 </r>
       <r>    1.3102    1.0000 </r>
       <r>    1.7431    1.0000 </r>
       <r>    2.0657    1.0000 </r>
       <r>    2.2578    1.0000 </r>
       <r>    2.4987    1.0000 </r>
       <r>    2.6347    1.0000 </r>
       <r>    2.6638    1.0000 </r>
       <r>    2.8266    1.0000 </r>
       <r>    3.1170    1.0000 </r>
       <r>    3.4243    1.0000 </r>
       <r>    3.7260    1.0000 </r>
       <r>    3.9022    1.0000 </r>
       <r>    4.6476    1.0000 </r>
       <r>    4.9600    1.0000 </r>
       <r>    5.2035    1.0000 </r>
       <r>    5.4229    0.0000 </r>
       <r>    5.4405    0.0000 </r>
       <r>    5.5211    0.0000 </r>
       <r>    5.7008    0.0000 </r>
       <r>    5.9779    0.0000 </r>
       <r>    6.2239    0.0000 </r>
       <r>    6.8010    0.0000 </r>
      </set>
      <set comment="kpoint 9">
       <r>  -57.9876    1.0000 </r>
       <r>  -57.9875    1.0000 </r>
       <r>  -57.8956    1.0000 </r>
       <r>  -57.8946    1.0000 </r>
       <r>  -31.3429    1.0000 </r>
       <r>  -31.3386    1.0000 </r>
       <r>  -31.3341    1.0000 </r>
       <r>  -31.3324    1.0000 </r>
       <r>  -31.3142    1.0000 </r>
       <r>  -31.3063    1.0000 </r>
       <r>  -31.3061    1.0000 </r>
       <r>  -31.3030    1.0000 </r>
       <r>  -31.3012    1.0000 </r>
       <r>  -31.2964    1.0000 </r>
       <r>  -31.2790    1.0000 </r>
       <r>  -31.2757    1.0000 </r>
       <r>   -3.8732    1.0000 </r>
       <r>   -1.8404    1.0000 </r>
       <r>   -1.7461    1.0000 </r>
       <r>   -0.5653    1.0000 </r>
       <r>    1.1043    1.0000 </r>
       <r>    1.2942    1.0000 </r>
       <r>    1.8751    1.0000 </r>
       <r>    2.1674    1.0000 </r>
       <r>    2.4308    1.0000 </r>
       <r>    2.6253    1.0000 </r>
       <r>    2.7248    1.0000 </r>
       <r>    3.1705    1.0000 </r>
       <r>    3.5411    1.0000 </r>
       <r>    3.7217    1.0000 </r>
       <r>    3.9231    1.0000 </r>
       <r>    4.0781    1.0000 </r>
       <r>    4.2989    1.0000 </r>
       <r>    4.7736    1.0000 </r>
       <r>    5.4282    0.0000 </r>
       <r>    5.4341    0.0000 </r>
       <r>    5.5081    0.0000 </r>
       <r>    5.6034    0.0000 </r>
       <r>    5.8663    0.0000 </r>
       <r>    6.0084    0.0000 </r>
       <r>    6.0595    0.0000 </r>
       <r>    6.5355    0.0000 </r>
      </set>
      <set comment="kpoint 10">
       <r>  -57.9877    1.0000 </r>
       <r>  -57.9875    1.0000 </r>
       <r>  -57.8956    1.0000 </r>
       <r>  -57.8946    1.0000 </r>
       <r>  -31.3389    1.0000 </r>
       <r>  -31.3381    1.0000 </r>
       <r>  -31.3370    1.0000 </r>
       <r>  -31.3324    1.0000 </r>
       <r>  -31.3114    1.0000 </r>
       <r>  -31.3091    1.0000 </r>
       <r>  -31.3087    1.0000 </r>
       <r>  -31.3062    1.0000 </r>
       <r>  -31.2968    1.0000 </r>
       <r>  -31.2957    1.0000 </r>
       <r>  -31.2825    1.0000 </r>
       <r>  -31.2730    1.0000 </r>
       <r>   -4.0760    1.0000 </r>
       <r>   -1.8640    1.0000 </r>
       <r>   -1.5372    1.0000 </r>
       <r>   -0.3792    1.0000 </r>
       <r>    0.9810    1.0000 </r>
       <r>    1.3454    1.0000 </r>
       <r>    1.7834    1.0000 </r>
       <r>    1.9835    1.0000 </r>
       <r>    2.4291    1.0000 </r>
       <r>    2.5313    1.0000 </r>
       <r>    3.1154    1.0000 </r>
       <r>    3.6410    1.0000 </r>
       <r>    3.7896    1.0000 </r>
       <r>    3.8538    1.0000 </r>
       <r>    3.9013    1.0000 </r>
       <r>    4.1868    1.0000 </r>
       <r>    4.4654    1.0000 </r>
       <r>    4.5206    1.0000 </r>
       <r>    5.4506    0.0000 </r>
       <r>    5.5278    0.0000 </r>
       <r>    5.5510    0.0000 </r>
       <r>    5.5644    0.0000 </r>
       <r>    5.8817    0.0000 </r>
       <r>    6.0597    0.0000 </r>
       <r>    6.1397    0.0000 </r>
       <r>    6.2689    0.0000 </r>
      </set>
      <set comment="kpoint 11">
       <r>  -57.9876    1.0000 </r>
       <r>  -57.9875    1.0000 </r>
       <r>  -57.8952    1.0000 </r>
       <r>  -57.8950    1.0000 </r>
       <r>  -31.3421    1.0000 </r>
       <r>  -31.3417    1.0000 </r>
       <r>  -31.3354    1.0000 </r>
       <r>  -31.3308    1.0000 </r>
       <r>  -31.3120    1.0000 </r>
       <r>  -31.3083    1.0000 </r>
       <r>  -31.3038    1.0000 </r>
       <r>  -31.3015    1.0000 </r>
       <r>  -31.3014    1.0000 </r>
       <r>  -31.2956    1.0000 </r>
       <r>  -31.2808    1.0000 </r>
       <r>  -31.2766    1.0000 </r>
       <r>   -2.9589    1.0000 </r>
       <r>   -2.9023    1.0000 </r>
       <r>   -1.6077    1.0000 </r>
       <r>   -1.2491    1.0000 </r>
       <r>    1.5943    1.0000 </r>
       <r>    1.7673    1.0000 </r>
       <r>    2.1935    1.0000 </r>
       <r>    2.4441    1.0000 </r>
       <r>    2.5162    1.0000 </r>
       <r>    2.7063    1.0000 </r>
       <r>    2.7818    1.0000 </r>
       <r>    3.0569    1.0000 </r>
       <r>    3.0960    1.0000 </r>
       <r>    3.1886    1.0000 </r>
       <r>    3.2761    1.0000 </r>
       <r>    3.6399    1.0000 </r>
       <r>    4.7271    1.0000 </r>
       <r>    4.9976    1.0000 </r>
       <r>    5.2905    0.9502 </r>
       <r>    5.3462    0.0110 </r>
       <r>    5.3581    0.0008 </r>
       <r>    5.4333    0.0000 </r>
       <r>    5.6031    0.0000 </r>
       <r>    5.8857    0.0000 </r>
       <r>    6.2204    0.0000 </r>
       <r>    6.4517    0.0000 </r>
      </set>
      <set comment="kpoint 12">
       <r>  -57.9876    1.0000 </r>
       <r>  -57.9875    1.0000 </r>
       <r>  -57.8954    1.0000 </r>
       <r>  -57.8948    1.0000 </r>
       <r>  -31.3465    1.0000 </r>
       <r>  -31.3394    1.0000 </r>
       <r>  -31.3329    1.0000 </r>
       <r>  -31.3298    1.0000 </r>
       <r>  -31.3176    1.0000 </r>
       <r>  -31.3085    1.0000 </r>
       <r>  -31.3028    1.0000 </r>
       <r>  -31.3015    1.0000 </r>
       <r>  -31.2984    1.0000 </r>
       <r>  -31.2958    1.0000 </r>
       <r>  -31.2819    1.0000 </r>
       <r>  -31.2749    1.0000 </r>
       <r>   -3.2402    1.0000 </r>
       <r>   -2.3547    1.0000 </r>
       <r>   -1.8442    1.0000 </r>
       <r>   -0.9438    1.0000 </r>
       <r>    1.1226    1.0000 </r>
       <r>    1.7485    1.0000 </r>
       <r>    1.9486    1.0000 </r>
       <r>    2.2123    1.0000 </r>
       <r>    2.4424    1.0000 </r>
       <r>    2.4892    1.0000 </r>
       <r>    2.6002    1.0000 </r>
       <r>    2.9183    1.0000 </r>
       <r>    2.9618    1.0000 </r>
       <r>    3.3251    1.0000 </r>
       <r>    3.7228    1.0000 </r>
       <r>    3.8077    1.0000 </r>
       <r>    4.8590    1.0000 </r>
       <r>    5.0378    1.0000 </r>
       <r>    5.2819    0.9879 </r>
       <r>    5.3718    0.0000 </r>
       <r>    5.4199    0.0000 </r>
       <r>    5.4474    0.0000 </r>
       <r>    5.4854    0.0000 </r>
       <r>    6.0727    0.0000 </r>
       <r>    6.4700    0.0000 </r>
       <r>    6.6854    0.0000 </r>
      </set>
      <set comment="kpoint 13">
       <r>  -57.9876    1.0000 </r>
       <r>  -57.9875    1.0000 </r>
       <r>  -57.8955    1.0000 </r>
       <r>  -57.8947    1.0000 </r>
       <r>  -31.3489    1.0000 </r>
       <r>  -31.3373    1.0000 </r>
       <r>  -31.3312    1.0000 </r>
       <r>  -31.3300    1.0000 </r>
       <r>  -31.3196    1.0000 </r>
       <r>  -31.3064    1.0000 </r>
       <r>  -31.3038    1.0000 </r>
       <r>  -31.3001    1.0000 </r>
       <r>  -31.2994    1.0000 </r>
       <r>  -31.2983    1.0000 </r>
       <r>  -31.2809    1.0000 </r>
       <r>  -31.2741    1.0000 </r>
       <r>   -3.5580    1.0000 </r>
       <r>   -1.9377    1.0000 </r>
       <r>   -1.7926    1.0000 </r>
       <r>   -0.5988    1.0000 </r>
       <r>    0.8595    1.0000 </r>
       <r>    1.0945    1.0000 </r>
       <r>    2.0048    1.0000 </r>
       <r>    2.1987    1.0000 </r>
       <r>    2.2232    1.0000 </r>
       <r>    2.3556    1.0000 </r>
       <r>    2.7270    1.0000 </r>
       <r>    2.8054    1.0000 </r>
       <r>    3.2260    1.0000 </r>
       <r>    3.5909    1.0000 </r>
       <r>    3.7701    1.0000 </r>
       <r>    3.9949    1.0000 </r>
       <r>    4.4150    1.0000 </r>
       <r>    5.1314    1.0000 </r>
       <r>    5.3059    0.7091 </r>
       <r>    5.3474    0.0086 </r>
       <r>    5.4216    0.0000 </r>
       <r>    5.4947    0.0000 </r>
       <r>    5.7603    0.0000 </r>
       <r>    6.0135    0.0000 </r>
       <r>    6.3949    0.0000 </r>
       <r>    6.7430    0.0000 </r>
      </set>
      <set comment="kpoint 14">
       <r>  -57.9876    1.0000 </r>
       <r>  -57.9875    1.0000 </r>
       <r>  -57.8956    1.0000 </r>
       <r>  -57.8946    1.0000 </r>
       <r>  -31.3472    1.0000 </r>
       <r>  -31.3366    1.0000 </r>
       <r>  -31.3333    1.0000 </r>
       <r>  -31.3305    1.0000 </r>
       <r>  -31.3183    1.0000 </r>
       <r>  -31.3044    1.0000 </r>
       <r>  -31.3035    1.0000 </r>
       <r>  -31.3021    1.0000 </r>
       <r>  -31.3012    1.0000 </r>
       <r>  -31.2991    1.0000 </r>
       <r>  -31.2779    1.0000 </r>
       <r>  -31.2758    1.0000 </r>
       <r>   -3.7917    1.0000 </r>
       <r>   -1.9233    1.0000 </r>
       <r>   -1.5496    1.0000 </r>
       <r>   -0.3821    1.0000 </r>
       <r>    0.7799    1.0000 </r>
       <r>    0.9234    1.0000 </r>
       <r>    1.9004    1.0000 </r>
       <r>    2.0633    1.0000 </r>
       <r>    2.3257    1.0000 </r>
       <r>    2.5054    1.0000 </r>
       <r>    2.6295    1.0000 </r>
       <r>    3.1969    1.0000 </r>
       <r>    3.4196    1.0000 </r>
       <r>    3.6797    1.0000 </r>
       <r>    3.8857    1.0000 </r>
       <r>    4.0710    1.0000 </r>
       <r>    4.2460    1.0000 </r>
       <r>    4.9009    1.0000 </r>
       <r>    5.3375    0.0466 </r>
       <r>    5.4181    0.0000 </r>
       <r>    5.4815    0.0000 </r>
       <r>    5.4889    0.0000 </r>
       <r>    5.9163    0.0000 </r>
       <r>    6.0694    0.0000 </r>
       <r>    6.3529    0.0000 </r>
       <r>    6.6726    0.0000 </r>
      </set>
      <set comment="kpoint 15">
       <r>  -57.9876    1.0000 </r>
       <r>  -57.9875    1.0000 </r>
       <r>  -57.8955    1.0000 </r>
       <r>  -57.8947    1.0000 </r>
       <r>  -31.3512    1.0000 </r>
       <r>  -31.3361    1.0000 </r>
       <r>  -31.3304    1.0000 </r>
       <r>  -31.3287    1.0000 </r>
       <r>  -31.3219    1.0000 </r>
       <r>  -31.3078    1.0000 </r>
       <r>  -31.3028    1.0000 </r>
       <r>  -31.3025    1.0000 </r>
       <r>  -31.2965    1.0000 </r>
       <r>  -31.2950    1.0000 </r>
       <r>  -31.2850    1.0000 </r>
       <r>  -31.2722    1.0000 </r>
       <r>   -3.3761    1.0000 </r>
       <r>   -2.0277    1.0000 </r>
       <r>   -1.8137    1.0000 </r>
       <r>   -0.6139    1.0000 </r>
       <r>    0.7512    1.0000 </r>
       <r>    1.0299    1.0000 </r>
       <r>    2.0627    1.0000 </r>
       <r>    2.0671    1.0000 </r>
       <r>    2.2033    1.0000 </r>
       <r>    2.3219    1.0000 </r>
       <r>    2.6186    1.0000 </r>
       <r>    2.7714    1.0000 </r>
       <r>    3.1020    1.0000 </r>
       <r>    3.5294    1.0000 </r>
       <r>    3.6907    1.0000 </r>
       <r>    3.9601    1.0000 </r>
       <r>    4.5396    1.0000 </r>
       <r>    5.1776    1.0000 </r>
       <r>    5.2512    1.0000 </r>
       <r>    5.3849    0.0000 </r>
       <r>    5.4328    0.0000 </r>
       <r>    5.4371    0.0000 </r>
       <r>    5.7286    0.0000 </r>
       <r>    6.0506    0.0000 </r>
       <r>    6.6063    0.0000 </r>
       <r>    6.9457    0.0000 </r>
      </set>
      <set comment="kpoint 16">
       <r>  -57.9876    1.0000 </r>
       <r>  -57.9875    1.0000 </r>
       <r>  -57.8956    1.0000 </r>
       <r>  -57.8946    1.0000 </r>
       <r>  -31.3522    1.0000 </r>
       <r>  -31.3349    1.0000 </r>
       <r>  -31.3297    1.0000 </r>
       <r>  -31.3289    1.0000 </r>
       <r>  -31.3226    1.0000 </r>
       <r>  -31.3069    1.0000 </r>
       <r>  -31.3030    1.0000 </r>
       <r>  -31.3024    1.0000 </r>
       <r>  -31.2967    1.0000 </r>
       <r>  -31.2965    1.0000 </r>
       <r>  -31.2845    1.0000 </r>
       <r>  -31.2718    1.0000 </r>
       <r>   -3.4916    1.0000 </r>
       <r>   -2.0523    1.0000 </r>
       <r>   -1.5590    1.0000 </r>
       <r>   -0.3839    1.0000 </r>
       <r>    0.6271    1.0000 </r>
       <r>    0.6665    1.0000 </r>
       <r>    1.9952    1.0000 </r>
       <r>    2.0790    1.0000 </r>
       <r>    2.1715    1.0000 </r>
       <r>    2.2599    1.0000 </r>
       <r>    2.7059    1.0000 </r>
       <r>    2.7910    1.0000 </r>
       <r>    3.1731    1.0000 </r>
       <r>    3.5926    1.0000 </r>
       <r>    3.6843    1.0000 </r>
       <r>    4.1230    1.0000 </r>
       <r>    4.2639    1.0000 </r>
       <r>    5.1098    1.0000 </r>
       <r>    5.3092    0.6265 </r>
       <r>    5.3407    0.0280 </r>
       <r>    5.4204    0.0000 </r>
       <r>    5.5132    0.0000 </r>
       <r>    5.8406    0.0000 </r>
       <r>    6.0597    0.0000 </r>
       <r>    6.7602    0.0000 </r>
       <r>    6.8505    0.0000 </r>
      </set>
      <set comment="kpoint 17">
       <r>  -57.9877    1.0000 </r>
       <r>  -57.9875    1.0000 </r>
       <r>  -57.8956    1.0000 </r>
       <r>  -57.8946    1.0000 </r>
       <r>  -31.3381    1.0000 </r>
       <r>  -31.3380    1.0000 </r>
       <r>  -31.3375    1.0000 </r>
       <r>  -31.3325    1.0000 </r>
       <r>  -31.3106    1.0000 </r>
       <r>  -31.3102    1.0000 </r>
       <r>  -31.3092    1.0000 </r>
       <r>  -31.3062    1.0000 </r>
       <r>  -31.2961    1.0000 </r>
       <r>  -31.2956    1.0000 </r>
       <r>  -31.2834    1.0000 </r>
       <r>  -31.2726    1.0000 </r>
       <r>   -4.1009    1.0000 </r>
       <r>   -1.8617    1.0000 </r>
       <r>   -1.5359    1.0000 </r>
       <r>   -0.3789    1.0000 </r>
       <r>    1.0015    1.0000 </r>
       <r>    1.4011    1.0000 </r>
       <r>    1.7719    1.0000 </r>
       <r>    1.9647    1.0000 </r>
       <r>    2.4411    1.0000 </r>
       <r>    2.5215    1.0000 </r>
       <r>    3.1898    1.0000 </r>
       <r>    3.6826    1.0000 </r>
       <r>    3.8005    1.0000 </r>
       <r>    3.8867    1.0000 </r>
       <r>    3.9126    1.0000 </r>
       <r>    4.2198    1.0000 </r>
       <r>    4.4829    1.0000 </r>
       <r>    4.4945    1.0000 </r>
       <r>    5.4530    0.0000 </r>
       <r>    5.5526    0.0000 </r>
       <r>    5.5697    0.0000 </r>
       <r>    5.5900    0.0000 </r>
       <r>    5.8282    0.0000 </r>
       <r>    6.0787    0.0000 </r>
       <r>    6.1961    0.0000 </r>
       <r>    6.5936    0.0000 </r>
      </set>
      <set comment="kpoint 18">
       <r>  -57.9876    1.0000 </r>
       <r>  -57.9875    1.0000 </r>
       <r>  -57.8956    1.0000 </r>
       <r>  -57.8946    1.0000 </r>
       <r>  -31.3421    1.0000 </r>
       <r>  -31.3387    1.0000 </r>
       <r>  -31.3345    1.0000 </r>
       <r>  -31.3326    1.0000 </r>
       <r>  -31.3135    1.0000 </r>
       <r>  -31.3067    1.0000 </r>
       <r>  -31.3067    1.0000 </r>
       <r>  -31.3035    1.0000 </r>
       <r>  -31.3006    1.0000 </r>
       <r>  -31.2961    1.0000 </r>
       <r>  -31.2798    1.0000 </r>
       <r>  -31.2752    1.0000 </r>
       <r>   -3.9077    1.0000 </r>
       <r>   -1.8344    1.0000 </r>
       <r>   -1.7403    1.0000 </r>
       <r>   -0.5610    1.0000 </r>
       <r>    1.1330    1.0000 </r>
       <r>    1.3298    1.0000 </r>
       <r>    1.8592    1.0000 </r>
       <r>    2.1597    1.0000 </r>
       <r>    2.4410    1.0000 </r>
       <r>    2.6122    1.0000 </r>
       <r>    2.8046    1.0000 </r>
       <r>    3.2134    1.0000 </r>
       <r>    3.5828    1.0000 </r>
       <r>    3.7398    1.0000 </r>
       <r>    3.9352    1.0000 </r>
       <r>    4.0881    1.0000 </r>
       <r>    4.3026    1.0000 </r>
       <r>    4.7309    1.0000 </r>
       <r>    5.4234    0.0000 </r>
       <r>    5.4512    0.0000 </r>
       <r>    5.5195    0.0000 </r>
       <r>    5.6314    0.0000 </r>
       <r>    5.8782    0.0000 </r>
       <r>    6.0069    0.0000 </r>
       <r>    6.0151    0.0000 </r>
       <r>    6.6720    0.0000 </r>
      </set>
      <set comment="kpoint 19">
       <r>  -57.9876    1.0000 </r>
       <r>  -57.9875    1.0000 </r>
       <r>  -57.8954    1.0000 </r>
       <r>  -57.8948    1.0000 </r>
       <r>  -31.3431    1.0000 </r>
       <r>  -31.3394    1.0000 </r>
       <r>  -31.3333    1.0000 </r>
       <r>  -31.3331    1.0000 </r>
       <r>  -31.3147    1.0000 </r>
       <r>  -31.3078    1.0000 </r>
       <r>  -31.3041    1.0000 </r>
       <r>  -31.3013    1.0000 </r>
       <r>  -31.2999    1.0000 </r>
       <r>  -31.2972    1.0000 </r>
       <r>  -31.2783    1.0000 </r>
       <r>  -31.2778    1.0000 </r>
       <r>   -3.5418    1.0000 </r>
       <r>   -2.2498    1.0000 </r>
       <r>   -1.7366    1.0000 </r>
       <r>   -0.9191    1.0000 </r>
       <r>    1.3423    1.0000 </r>
       <r>    1.7429    1.0000 </r>
       <r>    2.0447    1.0000 </r>
       <r>    2.3162    1.0000 </r>
       <r>    2.4982    1.0000 </r>
       <r>    2.6394    1.0000 </r>
       <r>    2.6962    1.0000 </r>
       <r>    2.8114    1.0000 </r>
       <r>    3.1450    1.0000 </r>
       <r>    3.4408    1.0000 </r>
       <r>    3.7253    1.0000 </r>
       <r>    3.9171    1.0000 </r>
       <r>    4.6208    1.0000 </r>
       <r>    4.9145    1.0000 </r>
       <r>    5.2297    1.0000 </r>
       <r>    5.4152    0.0000 </r>
       <r>    5.4521    0.0000 </r>
       <r>    5.5415    0.0000 </r>
       <r>    5.7239    0.0000 </r>
       <r>    5.9895    0.0000 </r>
       <r>    6.2041    0.0000 </r>
       <r>    6.8102    0.0000 </r>
      </set>
      <set comment="kpoint 20">
       <r>  -57.9876    1.0000 </r>
       <r>  -57.9875    1.0000 </r>
       <r>  -57.8952    1.0000 </r>
       <r>  -57.8950    1.0000 </r>
       <r>  -31.3407    1.0000 </r>
       <r>  -31.3402    1.0000 </r>
       <r>  -31.3354    1.0000 </r>
       <r>  -31.3336    1.0000 </r>
       <r>  -31.3127    1.0000 </r>
       <r>  -31.3109    1.0000 </r>
       <r>  -31.3019    1.0000 </r>
       <r>  -31.3001    1.0000 </r>
       <r>  -31.2994    1.0000 </r>
       <r>  -31.2974    1.0000 </r>
       <r>  -31.2800    1.0000 </r>
       <r>  -31.2778    1.0000 </r>
       <r>   -3.0656    1.0000 </r>
       <r>   -2.8692    1.0000 </r>
       <r>   -1.5539    1.0000 </r>
       <r>   -1.2444    1.0000 </r>
       <r>    1.6723    1.0000 </r>
       <r>    1.9156    1.0000 </r>
       <r>    2.3101    1.0000 </r>
       <r>    2.3134    1.0000 </r>
       <r>    2.3761    1.0000 </r>
       <r>    2.7128    1.0000 </r>
       <r>    2.8298    1.0000 </r>
       <r>    3.0534    1.0000 </r>
       <r>    3.1357    1.0000 </r>
       <r>    3.1718    1.0000 </r>
       <r>    3.2757    1.0000 </r>
       <r>    3.6531    1.0000 </r>
       <r>    4.9012    1.0000 </r>
       <r>    5.0933    1.0000 </r>
       <r>    5.1096    1.0000 </r>
       <r>    5.1368    1.0000 </r>
       <r>    5.3914    0.0000 </r>
       <r>    5.4530    0.0000 </r>
       <r>    5.7016    0.0000 </r>
       <r>    5.8803    0.0000 </r>
       <r>    6.4518    0.0000 </r>
       <r>    6.5351    0.0000 </r>
      </set>
      <set comment="kpoint 21">
       <r>  -57.9876    1.0000 </r>
       <r>  -57.9875    1.0000 </r>
       <r>  -57.8953    1.0000 </r>
       <r>  -57.8950    1.0000 </r>
       <r>  -31.3412    1.0000 </r>
       <r>  -31.3384    1.0000 </r>
       <r>  -31.3365    1.0000 </r>
       <r>  -31.3338    1.0000 </r>
       <r>  -31.3107    1.0000 </r>
       <r>  -31.3072    1.0000 </r>
       <r>  -31.3037    1.0000 </r>
       <r>  -31.3035    1.0000 </r>
       <r>  -31.2985    1.0000 </r>
       <r>  -31.2985    1.0000 </r>
       <r>  -31.2807    1.0000 </r>
       <r>  -31.2773    1.0000 </r>
       <r>   -3.4376    1.0000 </r>
       <r>   -2.5613    1.0000 </r>
       <r>   -1.5036    1.0000 </r>
       <r>   -1.2621    1.0000 </r>
       <r>    1.6955    1.0000 </r>
       <r>    2.0355    1.0000 </r>
[...]
       <r>    3.9409    1.0000 </r>
       <r>    4.1373    1.0000 </r>
       <r>    4.7215    1.0000 </r>
       <r>    4.9263    1.0000 </r>
       <r>    5.2288    1.0000 </r>
       <r>    5.2469    1.0000 </r>
       <r>    5.4440    0.0000 </r>
       <r>    5.4937    0.0000 </r>
       <r>    5.5122    0.0000 </r>
       <r>    5.5347    0.0000 </r>
       <r>    6.5775    0.0000 </r>
       <r>    6.9540    0.0000 </r>
      </set>
      <set comment="kpoint 115">
       <r>  -57.9877    1.0000 </r>
       <r>  -57.9874    1.0000 </r>
       <r>  -57.8954    1.0000 </r>
       <r>  -57.8948    1.0000 </r>
       <r>  -31.3457    1.0000 </r>
       <r>  -31.3454    1.0000 </r>
       <r>  -31.3319    1.0000 </r>
       <r>  -31.3297    1.0000 </r>
       <r>  -31.3131    1.0000 </r>
       <r>  -31.3043    1.0000 </r>
       <r>  -31.3027    1.0000 </r>
       <r>  -31.2960    1.0000 </r>
       <r>  -31.2954    1.0000 </r>
       <r>  -31.2947    1.0000 </r>
       <r>  -31.2858    1.0000 </r>
       <r>  -31.2854    1.0000 </r>
       <r>   -3.2853    1.0000 </r>
       <r>   -2.5312    1.0000 </r>
       <r>   -1.9041    1.0000 </r>
       <r>   -1.1318    1.0000 </r>
       <r>    1.1847    1.0000 </r>
       <r>    2.0161    1.0000 </r>
       <r>    2.2603    1.0000 </r>
       <r>    2.2824    1.0000 </r>
       <r>    2.6083    1.0000 </r>
       <r>    2.6387    1.0000 </r>
       <r>    3.2684    1.0000 </r>
       <r>    3.2703    1.0000 </r>
       <r>    3.2917    1.0000 </r>
       <r>    3.3305    1.0000 </r>
       <r>    4.2465    1.0000 </r>
       <r>    4.2467    1.0000 </r>
       <r>    4.4679    1.0000 </r>
       <r>    4.7348    1.0000 </r>
       <r>    4.7785    1.0000 </r>
       <r>    5.2547    1.0000 </r>
       <r>    5.5427    0.0000 </r>
       <r>    5.5581    0.0000 </r>
       <r>    5.8014    0.0000 </r>
       <r>    5.9486    0.0000 </r>
       <r>    6.1919    0.0000 </r>
       <r>    7.0785    0.0000 </r>
      </set>
      <set comment="kpoint 116">
       <r>  -57.9877    1.0000 </r>
       <r>  -57.9874    1.0000 </r>
       <r>  -57.8955    1.0000 </r>
       <r>  -57.8947    1.0000 </r>
       <r>  -31.3461    1.0000 </r>
       <r>  -31.3460    1.0000 </r>
       <r>  -31.3316    1.0000 </r>
       <r>  -31.3290    1.0000 </r>
       <r>  -31.3133    1.0000 </r>
       <r>  -31.3051    1.0000 </r>
       <r>  -31.3031    1.0000 </r>
       <r>  -31.2948    1.0000 </r>
       <r>  -31.2947    1.0000 </r>
       <r>  -31.2946    1.0000 </r>
       <r>  -31.2860    1.0000 </r>
       <r>  -31.2859    1.0000 </r>
       <r>   -3.3418    1.0000 </r>
       <r>   -2.3296    1.0000 </r>
       <r>   -1.9517    1.0000 </r>
       <r>   -1.2051    1.0000 </r>
       <r>    1.1860    1.0000 </r>
       <r>    1.7666    1.0000 </r>
       <r>    2.3022    1.0000 </r>
       <r>    2.3218    1.0000 </r>
       <r>    2.5714    1.0000 </r>
       <r>    2.6022    1.0000 </r>
       <r>    3.2600    1.0000 </r>
       <r>    3.2965    1.0000 </r>
       <r>    3.3168    1.0000 </r>
       <r>    3.3255    1.0000 </r>
       <r>    4.3321    1.0000 </r>
       <r>    4.3586    1.0000 </r>
       <r>    4.5170    1.0000 </r>
       <r>    4.6141    1.0000 </r>
       <r>    4.8563    1.0000 </r>
       <r>    5.1740    1.0000 </r>
       <r>    5.5426    0.0000 </r>
       <r>    5.5799    0.0000 </r>
       <r>    5.7219    0.0000 </r>
       <r>    6.0237    0.0000 </r>
       <r>    6.3517    0.0000 </r>
       <r>    6.9178    0.0000 </r>
      </set>
     </set>
    </set>
   </array>
  </eigenvalues>
  <separator name="orbital magnetization" >
   <v name="MAGDIPOLOUT">      0.00000000      0.00000000      0.00000000</v>
  </separator>
  <dos>
   <i name="efermi">      5.31377072 </i>
   <total>
    <array>
     <dimension dim="1">gridpoints</dimension>
     <dimension dim="2">spin</dimension>
     <field>energy</field>
     <field>total</field>
     <field>integrated</field>
     <set>
      <set comment="spin 1">
       <r>   -61.2521     0.0000     0.0000 </r>
       <r>   -61.0127     0.0000     0.0000 </r>
       <r>   -60.7733     0.0000     0.0000 </r>
       <r>   -60.5340     0.0000     0.0000 </r>
       <r>   -60.2946     0.0000     0.0000 </r>
       <r>   -60.0552     0.0000     0.0000 </r>
       <r>   -59.8158     0.0000     0.0000 </r>
       <r>   -59.5764     0.0000     0.0000 </r>
       <r>   -59.3370     0.0000     0.0000 </r>
       <r>   -59.0976     0.0000     0.0000 </r>
       <r>   -58.8582     0.0000     0.0000 </r>
       <r>   -58.6188     0.0000     0.0000 </r>
       <r>   -58.3794     0.0000     0.0000 </r>
       <r>   -58.1400     0.0000     0.0000 </r>
       <r>   -57.9007    22.5171     5.3904 </r>
       <r>   -57.6613     0.0000     8.0000 </r>
       <r>   -57.4219     0.0000     8.0000 </r>
       <r>   -57.1825     0.0000     8.0000 </r>
       <r>   -56.9431     0.0000     8.0000 </r>
       <r>   -56.7037     0.0000     8.0000 </r>
       <r>   -56.4643     0.0000     8.0000 </r>
       <r>   -56.2249     0.0000     8.0000 </r>
       <r>   -55.9855     0.0000     8.0000 </r>
       <r>   -55.7461     0.0000     8.0000 </r>
       <r>   -55.5067     0.0000     8.0000 </r>
       <r>   -55.2673     0.0000     8.0000 </r>
       <r>   -55.0280     0.0000     8.0000 </r>
       <r>   -54.7886     0.0000     8.0000 </r>
       <r>   -54.5492     0.0000     8.0000 </r>
       <r>   -54.3098     0.0000     8.0000 </r>
       <r>   -54.0704     0.0000     8.0000 </r>
       <r>   -53.8310     0.0000     8.0000 </r>
       <r>   -53.5916     0.0000     8.0000 </r>
       <r>   -53.3522     0.0000     8.0000 </r>
       <r>   -53.1128     0.0000     8.0000 </r>
       <r>   -52.8734     0.0000     8.0000 </r>
       <r>   -52.6340     0.0000     8.0000 </r>
       <r>   -52.3947     0.0000     8.0000 </r>
       <r>   -52.1553     0.0000     8.0000 </r>
       <r>   -51.9159     0.0000     8.0000 </r>
       <r>   -51.6765     0.0000     8.0000 </r>
       <r>   -51.4371     0.0000     8.0000 </r>
       <r>   -51.1977     0.0000     8.0000 </r>
       <r>   -50.9583     0.0000     8.0000 </r>
       <r>   -50.7189     0.0000     8.0000 </r>
       <r>   -50.4795     0.0000     8.0000 </r>
       <r>   -50.2401     0.0000     8.0000 </r>
       <r>   -50.0007     0.0000     8.0000 </r>
       <r>   -49.7613     0.0000     8.0000 </r>
       <r>   -49.5220     0.0000     8.0000 </r>
       <r>   -49.2826     0.0000     8.0000 </r>
       <r>   -49.0432     0.0000     8.0000 </r>
       <r>   -48.8038     0.0000     8.0000 </r>
       <r>   -48.5644     0.0000     8.0000 </r>
       <r>   -48.3250     0.0000     8.0000 </r>
       <r>   -48.0856     0.0000     8.0000 </r>
       <r>   -47.8462     0.0000     8.0000 </r>
       <r>   -47.6068     0.0000     8.0000 </r>
       <r>   -47.3674     0.0000     8.0000 </r>
       <r>   -47.1280     0.0000     8.0000 </r>
       <r>   -46.8887     0.0000     8.0000 </r>
       <r>   -46.6493     0.0000     8.0000 </r>
       <r>   -46.4099     0.0000     8.0000 </r>
       <r>   -46.1705     0.0000     8.0000 </r>
       <r>   -45.9311     0.0000     8.0000 </r>
       <r>   -45.6917     0.0000     8.0000 </r>
       <r>   -45.4523     0.0000     8.0000 </r>
       <r>   -45.2129     0.0000     8.0000 </r>
       <r>   -44.9735     0.0000     8.0000 </r>
       <r>   -44.7341     0.0000     8.0000 </r>
       <r>   -44.4947     0.0000     8.0000 </r>
       <r>   -44.2553     0.0000     8.0000 </r>
       <r>   -44.0160     0.0000     8.0000 </r>
       <r>   -43.7766     0.0000     8.0000 </r>
       <r>   -43.5372     0.0000     8.0000 </r>
       <r>   -43.2978     0.0000     8.0000 </r>
       <r>   -43.0584     0.0000     8.0000 </r>
       <r>   -42.8190     0.0000     8.0000 </r>
       <r>   -42.5796     0.0000     8.0000 </r>
       <r>   -42.3402     0.0000     8.0000 </r>
       <r>   -42.1008     0.0000     8.0000 </r>
       <r>   -41.8614     0.0000     8.0000 </r>
       <r>   -41.6220     0.0000     8.0000 </r>
       <r>   -41.3827     0.0000     8.0000 </r>
       <r>   -41.1433     0.0000     8.0000 </r>
       <r>   -40.9039     0.0000     8.0000 </r>
       <r>   -40.6645     0.0000     8.0000 </r>
       <r>   -40.4251     0.0000     8.0000 </r>
       <r>   -40.1857     0.0000     8.0000 </r>
       <r>   -39.9463     0.0000     8.0000 </r>
       <r>   -39.7069     0.0000     8.0000 </r>
       <r>   -39.4675     0.0000     8.0000 </r>
       <r>   -39.2281     0.0000     8.0000 </r>
       <r>   -38.9887     0.0000     8.0000 </r>
       <r>   -38.7494     0.0000     8.0000 </r>
       <r>   -38.5100     0.0000     8.0000 </r>
       <r>   -38.2706     0.0000     8.0000 </r>
       <r>   -38.0312     0.0000     8.0000 </r>
       <r>   -37.7918     0.0000     8.0000 </r>
       <r>   -37.5524     0.0000     8.0000 </r>
       <r>   -37.3130     0.0000     8.0000 </r>
       <r>   -37.0736     0.0000     8.0000 </r>
       <r>   -36.8342     0.0000     8.0000 </r>
       <r>   -36.5948     0.0000     8.0000 </r>
       <r>   -36.3554     0.0000     8.0000 </r>
       <r>   -36.1160     0.0000     8.0000 </r>
       <r>   -35.8767     0.0000     8.0000 </r>
       <r>   -35.6373     0.0000     8.0000 </r>
       <r>   -35.3979     0.0000     8.0000 </r>
       <r>   -35.1585     0.0000     8.0000 </r>
       <r>   -34.9191     0.0000     8.0000 </r>
       <r>   -34.6797     0.0000     8.0000 </r>
       <r>   -34.4403     0.0000     8.0000 </r>
       <r>   -34.2009     0.0000     8.0000 </r>
       <r>   -33.9615     0.0000     8.0000 </r>
       <r>   -33.7221     0.0000     8.0000 </r>
       <r>   -33.4827     0.0000     8.0000 </r>
       <r>   -33.2434     0.0000     8.0000 </r>
       <r>   -33.0040     0.0000     8.0000 </r>
       <r>   -32.7646     0.0000     8.0000 </r>
       <r>   -32.5252     0.0000     8.0000 </r>
       <r>   -32.2858     0.0000     8.0000 </r>
       <r>   -32.0464     0.0000     8.0000 </r>
       <r>   -31.8070     0.0000     8.0000 </r>
       <r>   -31.5676     0.0000     8.0000 </r>
       <r>   -31.3282    27.2016    14.5118 </r>
       <r>   -31.0888     0.0000    32.0000 </r>
       <r>   -30.8494     0.0000    32.0000 </r>
       <r>   -30.6100     0.0000    32.0000 </r>
       <r>   -30.3707     0.0000    32.0000 </r>
       <r>   -30.1313     0.0000    32.0000 </r>
       <r>   -29.8919     0.0000    32.0000 </r>
       <r>   -29.6525     0.0000    32.0000 </r>
       <r>   -29.4131     0.0000    32.0000 </r>
       <r>   -29.1737     0.0000    32.0000 </r>
       <r>   -28.9343     0.0000    32.0000 </r>
       <r>   -28.6949     0.0000    32.0000 </r>
       <r>   -28.4555     0.0000    32.0000 </r>
       <r>   -28.2161     0.0000    32.0000 </r>
       <r>   -27.9767     0.0000    32.0000 </r>
       <r>   -27.7374     0.0000    32.0000 </r>
       <r>   -27.4980     0.0000    32.0000 </r>
       <r>   -27.2586     0.0000    32.0000 </r>
       <r>   -27.0192     0.0000    32.0000 </r>
       <r>   -26.7798     0.0000    32.0000 </r>
       <r>   -26.5404     0.0000    32.0000 </r>
       <r>   -26.3010     0.0000    32.0000 </r>
       <r>   -26.0616     0.0000    32.0000 </r>
       <r>   -25.8222     0.0000    32.0000 </r>
       <r>   -25.5828     0.0000    32.0000 </r>
       <r>   -25.3434     0.0000    32.0000 </r>
       <r>   -25.1040     0.0000    32.0000 </r>
       <r>   -24.8647     0.0000    32.0000 </r>
       <r>   -24.6253     0.0000    32.0000 </r>
       <r>   -24.3859     0.0000    32.0000 </r>
       <r>   -24.1465     0.0000    32.0000 </r>
       <r>   -23.9071     0.0000    32.0000 </r>
       <r>   -23.6677     0.0000    32.0000 </r>
       <r>   -23.4283     0.0000    32.0000 </r>
       <r>   -23.1889     0.0000    32.0000 </r>
       <r>   -22.9495     0.0000    32.0000 </r>
       <r>   -22.7101     0.0000    32.0000 </r>
       <r>   -22.4707     0.0000    32.0000 </r>
       <r>   -22.2314     0.0000    32.0000 </r>
       <r>   -21.9920     0.0000    32.0000 </r>
       <r>   -21.7526     0.0000    32.0000 </r>
       <r>   -21.5132     0.0000    32.0000 </r>
       <r>   -21.2738     0.0000    32.0000 </r>
       <r>   -21.0344     0.0000    32.0000 </r>
       <r>   -20.7950     0.0000    32.0000 </r>
       <r>   -20.5556     0.0000    32.0000 </r>
       <r>   -20.3162     0.0000    32.0000 </r>
       <r>   -20.0768     0.0000    32.0000 </r>
       <r>   -19.8374     0.0000    32.0000 </r>
       <r>   -19.5981     0.0000    32.0000 </r>
       <r>   -19.3587     0.0000    32.0000 </r>
       <r>   -19.1193     0.0000    32.0000 </r>
       <r>   -18.8799     0.0000    32.0000 </r>
       <r>   -18.6405     0.0000    32.0000 </r>
       <r>   -18.4011     0.0000    32.0000 </r>
       <r>   -18.1617     0.0000    32.0000 </r>
       <r>   -17.9223     0.0000    32.0000 </r>
       <r>   -17.6829     0.0000    32.0000 </r>
       <r>   -17.4435     0.0000    32.0000 </r>
       <r>   -17.2041     0.0000    32.0000 </r>
       <r>   -16.9647     0.0000    32.0000 </r>
       <r>   -16.7254     0.0000    32.0000 </r>
       <r>   -16.4860     0.0000    32.0000 </r>
       <r>   -16.2466     0.0000    32.0000 </r>
       <r>   -16.0072     0.0000    32.0000 </r>
       <r>   -15.7678     0.0000    32.0000 </r>
       <r>   -15.5284     0.0000    32.0000 </r>
       <r>   -15.2890     0.0000    32.0000 </r>
       <r>   -15.0496     0.0000    32.0000 </r>
       <r>   -14.8102     0.0000    32.0000 </r>
       <r>   -14.5708     0.0000    32.0000 </r>
       <r>   -14.3314     0.0000    32.0000 </r>
       <r>   -14.0921     0.0000    32.0000 </r>
       <r>   -13.8527     0.0000    32.0000 </r>
       <r>   -13.6133     0.0000    32.0000 </r>
       <r>   -13.3739     0.0000    32.0000 </r>
       <r>   -13.1345     0.0000    32.0000 </r>
       <r>   -12.8951     0.0000    32.0000 </r>
       <r>   -12.6557     0.0000    32.0000 </r>
       <r>   -12.4163     0.0000    32.0000 </r>
       <r>   -12.1769     0.0000    32.0000 </r>
       <r>   -11.9375     0.0000    32.0000 </r>
       <r>   -11.6981     0.0000    32.0000 </r>
       <r>   -11.4587     0.0000    32.0000 </r>
       <r>   -11.2194     0.0000    32.0000 </r>
       <r>   -10.9800     0.0000    32.0000 </r>
       <r>   -10.7406     0.0000    32.0000 </r>
       <r>   -10.5012     0.0000    32.0000 </r>
       <r>   -10.2618     0.0000    32.0000 </r>
       <r>   -10.0224     0.0000    32.0000 </r>
       <r>    -9.7830     0.0000    32.0000 </r>
       <r>    -9.5436     0.0000    32.0000 </r>
       <r>    -9.3042     0.0000    32.0000 </r>
       <r>    -9.0648     0.0000    32.0000 </r>
       <r>    -8.8254     0.0000    32.0000 </r>
       <r>    -8.5861     0.0000    32.0000 </r>
       <r>    -8.3467     0.0000    32.0000 </r>
       <r>    -8.1073     0.0000    32.0000 </r>
       <r>    -7.8679     0.0000    32.0000 </r>
       <r>    -7.6285     0.0000    32.0000 </r>
       <r>    -7.3891     0.0000    32.0000 </r>
       <r>    -7.1497     0.0000    32.0000 </r>
       <r>    -6.9103     0.0000    32.0000 </r>
       <r>    -6.6709     0.0000    32.0000 </r>
       <r>    -6.4315     0.0000    32.0000 </r>
       <r>    -6.1921     0.0000    32.0000 </r>
       <r>    -5.9527     0.0000    32.0000 </r>
       <r>    -5.7134     0.0000    32.0000 </r>
       <r>    -5.4740     0.0000    32.0000 </r>
       <r>    -5.2346     0.0000    32.0000 </r>
       <r>    -4.9952     0.0000    32.0000 </r>
       <r>    -4.7558     0.0000    32.0000 </r>
       <r>    -4.5164     0.0000    32.0000 </r>
       <r>    -4.2770     0.0000    32.0000 </r>
       <r>    -4.0376     0.2769    32.0663 </r>
       <r>    -3.7982     0.6634    32.2558 </r>
       <r>    -3.5588     0.8966    32.5769 </r>
       <r>    -3.3194     1.9827    33.2450 </r>
       <r>    -3.0801     1.3704    33.8077 </r>
       <r>    -2.8407     1.4680    34.2494 </r>
       <r>    -2.6013     0.8678    34.5343 </r>
       <r>    -2.3619     0.6469    34.8692 </r>
       <r>    -2.1225     1.1540    35.2456 </r>
       <r>    -1.8831     3.0925    36.1536 </r>
       <r>    -1.6437     2.9799    37.3562 </r>
       <r>    -1.4043     1.8755    38.0000 </r>
       <r>    -1.1649     2.3907    38.5825 </r>
       <r>    -0.9255     1.8493    39.1060 </r>
       <r>    -0.6861     0.6799    39.5097 </r>
       <r>    -0.4467     1.2376    39.9085 </r>
       <r>    -0.2074     0.0000    40.0000 </r>
       <r>     0.0320     0.0000    40.0000 </r>
       <r>     0.2714     0.0000    40.0000 </r>
       <r>     0.5108     0.0000    40.0000 </r>
       <r>     0.7502     0.2519    40.0603 </r>
       <r>     0.9896     1.5962    40.5352 </r>
       <r>     1.2290     1.9791    41.2595 </r>
       <r>     1.4684     2.2118    41.9836 </r>
       <r>     1.7078     1.9910    42.6552 </r>
       <r>     1.9472     3.3819    43.9525 </r>
       <r>     2.1866     6.3625    46.0282 </r>
       <r>     2.4259     6.9075    48.7658 </r>
       <r>     2.6653     7.1696    51.5021 </r>
       <r>     2.9047     7.3559    54.1589 </r>
       <r>     3.1441     5.8402    56.1838 </r>
       <r>     3.3835     6.6425    58.7279 </r>
       <r>     3.6229     4.5094    60.3499 </r>
       <r>     3.8623     5.5519    62.2474 </r>
       <r>     4.1017     3.6329    63.5789 </r>
       <r>     4.3411     2.1158    64.3126 </r>
       <r>     4.5805     2.4738    65.2351 </r>
       <r>     4.8199     3.1700    66.2538 </r>
       <r>     5.0592     4.4671    67.6255 </r>
       <r>     5.2986     6.5482    69.8023 </r>
       <r>     5.5380    17.8796    75.2241 </r>
       <r>     5.7774     6.5254    77.7050 </r>
       <r>     6.0168     5.0817    79.8186 </r>
       <r>     6.2562     3.5240    80.9048 </r>
       <r>     6.4956     2.4400    81.8749 </r>
       <r>     6.7350     3.5437    83.0575 </r>
       <r>     6.9744     2.0790    83.8089 </r>
       <r>     7.2138     0.3811    83.9841 </r>
       <r>     7.4532     0.0639    84.0000 </r>
       <r>     7.6926     0.0000    84.0000 </r>
       <r>     7.9319     0.0000    84.0000 </r>
       <r>     8.1713     0.0000    84.0000 </r>
       <r>     8.4107     0.0000    84.0000 </r>
       <r>     8.6501     0.0000    84.0000 </r>
       <r>     8.8895     0.0000    84.0000 </r>
       <r>     9.1289     0.0000    84.0000 </r>
       <r>     9.3683     0.0000    84.0000 </r>
       <r>     9.6077     0.0000    84.0000 </r>
       <r>     9.8471     0.0000    84.0000 </r>
       <r>    10.0865     0.0000    84.0000 </r>
       <r>    10.3259     0.0000    84.0000 </r>
       <r>    10.5652     0.0000    84.0000 </r>
      </set>
     </set>
    </array>
   </total>
  </dos>
 </calculation>
 <structure name="finalpos" >
  <crystal>
   <varray name="basis" >
    <v>       5.39276878       0.00000000      -3.17050117 </v>
    <v>      -1.76498931       5.09575979      -3.17050117 </v>
    <v>       0.00000000       0.00000000       6.25572000 </v>
   </varray>
   <i name="volume">    171.90877625 </i>
   <varray name="rec_basis" >
    <v>       0.18543350       0.06422755       0.00000000 </v>
    <v>       0.00000000       0.19624159       0.00000000 </v>
    <v>       0.09398073       0.13201002       0.15985370 </v>
   </varray>
  </crystal>
  <varray name="positions" >
   <v>       0.50000000       0.00000000       0.50000000 </v>
   <v>       0.00000000       0.50000000       0.50000000 </v>
   <v>       0.25000000       0.75000000       0.50000000 </v>
   <v>       0.00000000       0.00000000       0.00000000 </v>
   <v>       0.75000000       0.25000000       0.50000000 </v>
   <v>       0.50000000       0.50000000       0.00000000 </v>
   <v>       0.25000000       0.25000000       0.00000000 </v>
   <v>       0.75000000       0.75000000       0.00000000 </v>
  </varray>
 </structure>
</modeling>
