 vasp.6.2.0 18Jan21 (build Jan 05 2022 15:41:44) complex                        
  
 executed on             LinuxIFC date 2025.05.07  20:38:42
 running on   24 total cores
 distrk:  each k-point on   12 cores,    2 groups
 distr:  one band on NCORE=   2 cores,    6 groups


--------------------------------------------------------------------------------------------------------


 INCAR:
   SYSTEM = routine with relax: pwdword
   ICHARG = 2
   NPAR = 6
   KPAR = 2
   NCORE = 2
   ADDGRID = T
   PREC = Acc
   ENCUT = 600
   METAGGA = R2SCAN
   LASPH = .TRUE.
   LMIXTAU = .FALSE.
   ALGO = A
   EDIFF = 1E-9
   NELM = 100
   NELMIN = 6
   IALGO = 38
   LREAL = F
   NSW = 0
   ISIF = -1
   ISMEAR = 0
   SIGMA = 0.02

 POTCAR:    PAW_PBE B 06Sep2000                   
 POTCAR:    PAW_PBE Mo_sv 02Feb2006               
 POTCAR:    PAW_PBE Si 05Jan2001                  
 -----------------------------------------------------------------------------
|                                                                             |
|           W    W    AA    RRRRR   N    N  II  N    N   GGGG   !!!           |
|           W    W   A  A   R    R  NN   N  II  NN   N  G    G  !!!           |
|           W    W  A    A  R    R  N N  N  II  N N  N  G       !!!           |
|           W WW W  AAAAAA  RRRRR   N  N N  II  N  N N  G  GGG   !            |
|           WW  WW  A    A  R   R   N   NN  II  N   NN  G    G                |
|           W    W  A    A  R    R  N    N  II  N    N   GGGG   !!!           |
|                                                                             |
|     For optimal performance we recommend to set                             |
|       NCORE = 2 up to number-of-cores-per-socket                            |
|     NCORE specifies how many cores store one orbital (NPAR=cpu/NCORE).      |
|     This setting can greatly improve the performance of VASP for DFT.       |
|     The default, NCORE=1 might be grossly inefficient on modern             |
|     multi-core architectures or massively parallel machines. Do your        |
|     own testing! More info at https://www.vasp.at/wiki/index.php/NCORE      |
|     Unfortunately you need to use the default for GW and RPA                |
|     calculations (for HF NCORE is supported but not extensively tested      |
|     yet).                                                                   |
|                                                                             |
 -----------------------------------------------------------------------------

 POTCAR:    PAW_PBE B 06Sep2000                   
   VRHFIN =B: s2p1                                                                                  
   LEXCH  = PE                                                                                      
   EATOM  =    71.1703 eV,    5.2309 Ry                                                             
                                                                                                    
   TITEL  = PAW_PBE B 06Sep2000                                                                     
   LULTRA =        F    use ultrasoft PP ?                                                          
   IUNSCR =        1    unscreen: 0-lin 1-nonlin 2-no                                               
   RPACOR =    1.200    partial core radius                                                         
   POMASS =   10.811; ZVAL   =    3.000    mass and valenz                                          
   RCORE  =    1.700    outmost cutoff radius                                                       
   RWIGS  =    1.710; RWIGS  =    0.905    wigner-seitz radius (au A)                               
   ENMAX  =  318.614; ENMIN  =  238.960 eV                                                          
   ICORE  =        2    local potential                                                             
   LCOR   =        T    correct aug charges                                                         
   LPAW   =        T    paw PP                                                                      
   EAUG   =  535.514                                                                                
   DEXC   =    0.000                                                                                
   RMAX   =    1.732    core radius for proj-oper                                                   
   RAUG   =    1.300    factor for augmentation sphere                                              
   RDEP   =    1.757    radius for radial grids                                                     
   RDEPT  =    1.436    core radius for aug-charge                                                  
                                                                                                    
   Atomic configuration                                                                             
    4 entries                                                                                       
     n  l   j            E        occ.                                                              
     1  0  0.50      -180.5896   2.0000                                                             
     2  0  0.50        -9.4431   2.0000                                                             
     2  1  0.50        -3.6068   1.0000                                                             
     3  2  1.50        -4.0817   0.0000                                                             
   Description                                                                                      
     l       E           TYP  RCUT    TYP  RCUT                                                     
     0     -9.4430752     23  1.500                                                                 
     0      0.8675899     23  1.500                                                                 
     1     -3.6067955     23  1.700                                                                 
     1      6.1086146     23  1.700                                                                 
     2     -4.0817478      7  1.700                                                                 
  local pseudopotential read in
  partial core-charges read in
  partial kinetic energy density read in
  atomic valenz-charges read in
  non local Contribution for L=           0  read in
    real space projection operators read in
  non local Contribution for L=           0  read in
    real space projection operators read in
  non local Contribution for L=           1  read in
    real space projection operators read in
  non local Contribution for L=           1  read in
    real space projection operators read in
    PAW grid and wavefunctions read in
 
   number of l-projection  operators is LMAX  =           4
   number of lm-projection operators is LMMAX =           8
 
 POTCAR:    PAW_PBE Mo_sv 02Feb2006               
   VRHFIN =Mo: 4p5s4d                                                                               
   LEXCH  = PE                                                                                      
   EATOM  =  1862.2866 eV,  136.8742 Ry                                                             
                                                                                                    
   TITEL  = PAW_PBE Mo_sv 02Feb2006                                                                 
   LULTRA =        F    use ultrasoft PP ?                                                          
   IUNSCR =        1    unscreen: 0-lin 1-nonlin 2-no                                               
   RPACOR =    2.200    partial core radius                                                         
   POMASS =   95.940; ZVAL   =   14.000    mass and valenz                                          
   RCORE  =    2.500    outmost cutoff radius                                                       
   RWIGS  =    2.750; RWIGS  =    1.455    wigner-seitz radius (au A)                               
   ENMAX  =  242.676; ENMIN  =  182.007 eV                                                          
   ICORE  =        3    local potential                                                             
   LCOR   =        T    correct aug charges                                                         
   LPAW   =        T    paw PP                                                                      
   EAUG   =  446.014                                                                                
   DEXC   =    0.000                                                                                
   RMAX   =    2.563    core radius for proj-oper                                                   
   RAUG   =    1.300    factor for augmentation sphere                                              
   RDEP   =    2.641    radius for radial grids                                                     
   RDEPT  =    2.031    core radius for aug-charge                                                  
                                                                                                    
   Atomic configuration                                                                             
   11 entries                                                                                       
     n  l   j            E        occ.                                                              
     1  0  0.50    -19819.0341   2.0000                                                             
     2  0  0.50     -2799.0127   2.0000                                                             
     2  1  1.50     -2502.0276   6.0000                                                             
     3  0  0.50      -476.4449   2.0000                                                             
     3  1  1.50      -379.1496   6.0000                                                             
     3  2  2.50      -220.9367  10.0000                                                             
     4  0  0.50       -64.3378   2.0000                                                             
     5  0  0.50        -4.0862   1.0000                                                             
     4  1  1.50       -38.4773   6.0000                                                             
     4  2  2.50        -3.7535   5.0000                                                             
     4  3  2.50        -1.3606   0.0000                                                             
   Description                                                                                      
     l       E           TYP  RCUT    TYP  RCUT                                                     
     0    -64.3377829     23  2.100                                                                 
     0     -4.0861640     23  2.400                                                                 
     1    -38.4772993     23  2.100                                                                 
     1     13.6058260     23  2.100                                                                 
     2     -3.7534941     23  2.400                                                                 
     2     -5.1140767     23  2.400                                                                 
     3     -4.0817478     23  2.500                                                                 
  local pseudopotential read in
  partial core-charges read in
  partial kinetic energy density read in
  atomic valenz-charges read in
  non local Contribution for L=           0  read in
    real space projection operators read in
  non local Contribution for L=           0  read in
    real space projection operators read in
  non local Contribution for L=           1  read in
    real space projection operators read in
  non local Contribution for L=           1  read in
    real space projection operators read in
  non local Contribution for L=           2  read in
    real space projection operators read in
  non local Contribution for L=           2  read in
    real space projection operators read in
    PAW grid and wavefunctions read in
 
   number of l-projection  operators is LMAX  =           6
   number of lm-projection operators is LMMAX =          18
 
 POTCAR:    PAW_PBE Si 05Jan2001                  
   VRHFIN =Si: s2p2                                                                                 
   LEXCH  = PE                                                                                      
   EATOM  =   103.0669 eV,    7.5752 Ry                                                             
                                                                                                    
   TITEL  = PAW_PBE Si 05Jan2001                                                                    
   LULTRA =        F    use ultrasoft PP ?                                                          
   IUNSCR =        1    unscreen: 0-lin 1-nonlin 2-no                                               
   RPACOR =    1.500    partial core radius                                                         
   POMASS =   28.085; ZVAL   =    4.000    mass and valenz                                          
   RCORE  =    1.900    outmost cutoff radius                                                       
   RWIGS  =    2.480; RWIGS  =    1.312    wigner-seitz radius (au A)                               
   ENMAX  =  245.345; ENMIN  =  184.009 eV                                                          
   ICORE  =        2    local potential                                                             
   LCOR   =        T    correct aug charges                                                         
   LPAW   =        T    paw PP                                                                      
   EAUG   =  322.069                                                                                
   DEXC   =    0.000                                                                                
   RMAX   =    1.950    core radius for proj-oper                                                   
   RAUG   =    1.300    factor for augmentation sphere                                              
   RDEP   =    1.993    radius for radial grids                                                     
   RDEPT  =    1.837    core radius for aug-charge                                                  
                                                                                                    
   Atomic configuration                                                                             
    6 entries                                                                                       
     n  l   j            E        occ.                                                              
     1  0  0.50     -1785.8828   2.0000                                                             
     2  0  0.50      -139.4969   2.0000                                                             
     2  1  1.50       -95.5546   6.0000                                                             
     3  0  0.50       -10.8127   2.0000                                                             
     3  1  0.50        -4.0811   2.0000                                                             
     3  2  1.50        -4.0817   0.0000                                                             
   Description                                                                                      
     l       E           TYP  RCUT    TYP  RCUT                                                     
     0    -10.8127223     23  1.900                                                                 
     0     -7.6451159     23  1.900                                                                 
     1     -4.0811372     23  1.900                                                                 
     1      2.4879257     23  1.900                                                                 
     2     -4.0817478      7  1.900                                                                 
  local pseudopotential read in
  partial core-charges read in
  partial kinetic energy density read in
  atomic valenz-charges read in
  non local Contribution for L=           0  read in
    real space projection operators read in
  non local Contribution for L=           0  read in
    real space projection operators read in
  non local Contribution for L=           1  read in
    real space projection operators read in
  non local Contribution for L=           1  read in
    real space projection operators read in
    PAW grid and wavefunctions read in
 
   number of l-projection  operators is LMAX  =           4
   number of lm-projection operators is LMMAX =           8
 
  PAW_PBE B 06Sep2000                   :
 energy of atom  1       EATOM=  -71.1703
 kinetic energy error for atom=    0.0007 (will be added to EATOM!!)
  PAW_PBE Mo_sv 02Feb2006               :
 energy of atom  2       EATOM=-1862.2866
 kinetic energy error for atom=    0.0041 (will be added to EATOM!!)
  PAW_PBE Si 05Jan2001                  :
 energy of atom  3       EATOM= -103.0669
 kinetic energy error for atom=    0.0003 (will be added to EATOM!!)
 
 
 POSCAR: EA226
  positions in direct lattice
  No initial velocities read in

 METAGGA = R2SCA    LMAXTAU =  6    LMIXTAU =  F

 exchange correlation table for  LEXCH =        8
   RHO(1)=    0.500       N(1)  =     2000
   RHO(2)=  100.500       N(2)  =     4000
 


--------------------------------------------------------------------------------------------------------


 ion  position               nearest neighbor table
   1  0.500  0.000  0.500-   9 2.21  10 2.21   6 2.40   7 2.40   5 2.42   3 2.42
   2  0.000  0.500  0.500-   9 2.21  10 2.21   3 2.40   5 2.40   6 2.42   7 2.42
   3  0.249  0.749  0.998-   2 2.40   4 2.41   8 2.41   1 2.42   9 3.26  10 3.26   9 3.27  10 3.27
                             7 3.40   6 3.40   7 3.40   6 3.40
   4  0.500  0.500  0.000-   3 2.41   5 2.41   6 2.41   7 2.41
   5  0.751  0.251  0.002-   2 2.40   4 2.41   8 2.41   1 2.42  10 3.26   9 3.26  10 3.27   9 3.27
                             6 3.40   7 3.40   6 3.40   7 3.40
   6  0.749  0.751  0.500-   1 2.40   8 2.41   4 2.41   2 2.42  10 3.26   9 3.26  10 3.27   9 3.27
                             5 3.40   3 3.40   5 3.40   3 3.40
   7  0.251  0.249  0.500-   1 2.40   4 2.41   8 2.41   2 2.42  10 3.26   9 3.26   9 3.27  10 3.27
                             3 3.40   5 3.40   3 3.40   5 3.40
   8  0.000  0.000  0.000-   3 2.41   5 2.41   7 2.41   6 2.41
   9  0.250  0.750  0.500-   1 2.21   2 2.21   3 3.26   6 3.26   7 3.26   5 3.26   7 3.27   6 3.27
                             3 3.27   5 3.27
  10  0.750  0.250  0.500-   1 2.21   2 2.21   5 3.26   6 3.26   7 3.26   3 3.26   6 3.27   7 3.27
                             5 3.27   3 3.27
 
  LATTYP: Found a base centered monoclinic cell.
 ALAT       =     8.8399411915
 B/A-ratio  =     1.0893640020
 C/A-ratio  =     0.7393770907
 COS(beta)  =    -0.6762338693
  
  Lattice vectors:
  
 A1 = (   5.8125918687,   0.0000000000,  -2.9889338183)
 A2 = (  -2.1645068366,   5.3945467267,  -2.9889338183)
 A3 = (   0.0000000000,   0.0000000000,   6.5360500000)


Analysis of symmetry for initial positions (statically):
=====================================================================
 Subroutine PRICEL returns:
 Original cell was already a primitive cell.
 

 Routine SETGRP: Setting up the symmetry group for a 
 base centered monoclinic supercell.


 Subroutine GETGRP returns: Found  4 space group operations
 (whereof  2 operations were pure point group operations)
 out of a pool of  4 trial point group operations.


The static configuration has the point symmetry S_2 .
 The point group associated with its full space group is C_2h.


Analysis of symmetry for dynamics (positions and initial velocities):
=====================================================================
 Subroutine PRICEL returns:
 Original cell was already a primitive cell.
 

 Routine SETGRP: Setting up the symmetry group for a 
 base centered monoclinic supercell.


 Subroutine GETGRP returns: Found  4 space group operations
 (whereof  2 operations were pure point group operations)
 out of a pool of  4 trial point group operations.


The dynamic configuration has the point symmetry S_2 .
 The point group associated with its full space group is C_2h.


 Subroutine INISYM returns: Found  4 space group operations
 (whereof  2 operations are pure point group operations),
 and found     1 'primitive' translations


----------------------------------------------------------------------------------------

                                     Primitive cell                                     

  volume of cell :     204.9463

  direct lattice vectors                    reciprocal lattice vectors
     5.812591869  0.000000000 -2.988933818     0.172040292  0.069029412  0.000000000
    -2.164506837  5.394546727 -2.988933818     0.000000000  0.185372386  0.000000000
     0.000000000  0.000000000  6.536050000     0.078673977  0.116337870  0.152997606

  length of vectors
     6.536050000  6.536050000  6.536050000     0.185372386  0.185372386  0.207683321

  position of ions in fractional coordinates (direct lattice)
     0.500000000  0.000000000  0.500000000
     0.000000000  0.500000000  0.500000000
     0.249060000  0.749060000  0.998120000
     0.500000000  0.500000000  1.000000000
     0.750940000  0.250940000  0.001880000
     0.749060000  0.750940000  0.500000000
     0.250940000  0.249060000  0.500000000
     0.000000000  0.000000000  0.000000000
     0.250000000  0.750000000  0.500000000
     0.750000000  0.250000000  0.500000000

  ion indices of the primitive-cell ions
   primitive index   ion index
                 1           1
                 2           2
                 3           3
                 4           4
                 5           5
                 6           6
                 7           7
                 8           8
                 9           9
                10          10

----------------------------------------------------------------------------------------

 
 
 KPOINTS: EA                                      

Automatic generation of k-mesh.
 Grid dimensions read from file:
 generate k-points for:    7    7    7

 Generating k-lattice:

  Cartesian coordinates                     Fractional coordinates (reciprocal lattice)
     0.024577185  0.009861345  0.000000000     0.142857143 -0.000000000  0.000000000
     0.000000000  0.026481769  0.000000000     0.000000000  0.142857143  0.000000000
     0.011239140  0.016619696  0.021856801     0.000000000  0.000000000  0.142857143

  Length of vectors
     0.026481769  0.026481769  0.029669046

  Shift w.r.t. Gamma in fractional coordinates (k-lattice)
     0.000000000  0.000000000  0.000000000

 
 Subroutine IBZKPT returns following result:
 ===========================================
 
 Found    100 irreducible k-points:
 
 Following reciprocal coordinates:
            Coordinates               Weight
  0.000000  0.000000  0.000000      1.000000
  0.142857 -0.000000  0.000000      4.000000
  0.285714 -0.000000  0.000000      4.000000
  0.428571 -0.000000  0.000000      4.000000
  0.142857  0.142857  0.000000      2.000000
  0.285714  0.142857  0.000000      4.000000
  0.428571  0.142857  0.000000      4.000000
 -0.428571  0.142857  0.000000      4.000000
 -0.285714  0.142857  0.000000      4.000000
 -0.142857  0.142857  0.000000      2.000000
  0.285714  0.285714  0.000000      2.000000
  0.428571  0.285714  0.000000      4.000000
 -0.428571  0.285714  0.000000      4.000000
 -0.285714  0.285714  0.000000      2.000000
  0.428571  0.428571  0.000000      2.000000
 -0.428571  0.428571  0.000000      2.000000
  0.000000 -0.000000  0.142857      2.000000
  0.142857 -0.000000  0.142857      4.000000
  0.285714 -0.000000  0.142857      4.000000
  0.428571 -0.000000  0.142857      4.000000
 -0.428571  0.000000  0.142857      4.000000
 -0.285714  0.000000  0.142857      4.000000
 -0.142857  0.000000  0.142857      4.000000
  0.142857  0.142857  0.142857      2.000000
  0.285714  0.142857  0.142857      4.000000
  0.428571  0.142857  0.142857      4.000000
 -0.428571  0.142857  0.142857      4.000000
 -0.285714  0.142857  0.142857      4.000000
 -0.142857  0.142857  0.142857      4.000000
  0.285714  0.285714  0.142857      2.000000
  0.428571  0.285714  0.142857      4.000000
 -0.428571  0.285714  0.142857      4.000000
 -0.285714  0.285714  0.142857      4.000000
 -0.142857  0.285714  0.142857      4.000000
  0.428571  0.428571  0.142857      2.000000
 -0.428571  0.428571  0.142857      4.000000
 -0.285714  0.428571  0.142857      4.000000
 -0.142857  0.428571  0.142857      4.000000
 -0.428571 -0.428571  0.142857      2.000000
 -0.285714 -0.428571  0.142857      4.000000
 -0.142857 -0.428571  0.142857      4.000000
 -0.285714 -0.285714  0.142857      2.000000
 -0.142857 -0.285714  0.142857      4.000000
 -0.142857 -0.142857  0.142857      2.000000
  0.000000 -0.000000  0.285714      2.000000
  0.142857 -0.000000  0.285714      4.000000
  0.285714 -0.000000  0.285714      4.000000
  0.428571 -0.000000  0.285714      4.000000
 -0.428571  0.000000  0.285714      4.000000
 -0.285714  0.000000  0.285714      4.000000
 -0.142857 -0.000000  0.285714      4.000000
  0.142857  0.142857  0.285714      2.000000
  0.285714  0.142857  0.285714      4.000000
  0.428571  0.142857  0.285714      4.000000
 -0.428571  0.142857  0.285714      4.000000
 -0.285714  0.142857  0.285714      4.000000
 -0.142857  0.142857  0.285714      4.000000
  0.285714  0.285714  0.285714      2.000000
  0.428571  0.285714  0.285714      4.000000
 -0.428571  0.285714  0.285714      4.000000
 -0.285714  0.285714  0.285714      4.000000
 -0.142857  0.285714  0.285714      4.000000
  0.428571  0.428571  0.285714      2.000000
 -0.428571  0.428571  0.285714      4.000000
 -0.285714  0.428571  0.285714      4.000000
 -0.142857  0.428571  0.285714      4.000000
 -0.428571 -0.428571  0.285714      2.000000
 -0.285714 -0.428571  0.285714      4.000000
 -0.142857 -0.428571  0.285714      4.000000
 -0.285714 -0.285714  0.285714      2.000000
 -0.142857 -0.285714  0.285714      4.000000
 -0.142857 -0.142857  0.285714      2.000000
 -0.000000 -0.000000  0.428571      2.000000
  0.142857 -0.000000  0.428571      4.000000
  0.285714 -0.000000  0.428571      4.000000
  0.428571 -0.000000  0.428571      4.000000
 -0.428571  0.000000  0.428571      4.000000
 -0.285714 -0.000000  0.428571      4.000000
 -0.142857 -0.000000  0.428571      4.000000
  0.142857  0.142857  0.428571      2.000000
  0.285714  0.142857  0.428571      4.000000
  0.428571  0.142857  0.428571      4.000000
 -0.428571  0.142857  0.428571      4.000000
 -0.285714  0.142857  0.428571      4.000000
 -0.142857  0.142857  0.428571      4.000000
  0.285714  0.285714  0.428571      2.000000
  0.428571  0.285714  0.428571      4.000000
 -0.428571  0.285714  0.428571      4.000000
 -0.285714  0.285714  0.428571      4.000000
 -0.142857  0.285714  0.428571      4.000000
  0.428571  0.428571  0.428571      2.000000
 -0.428571  0.428571  0.428571      4.000000
 -0.285714  0.428571  0.428571      4.000000
 -0.142857  0.428571  0.428571      4.000000
 -0.428571 -0.428571  0.428571      2.000000
 -0.285714 -0.428571  0.428571      4.000000
 -0.142857 -0.428571  0.428571      4.000000
 -0.285714 -0.285714  0.428571      2.000000
 -0.142857 -0.285714  0.428571      4.000000
 -0.142857 -0.142857  0.428571      2.000000
 
 Following cartesian coordinates:
            Coordinates               Weight
  0.000000  0.000000  0.000000      1.000000
  0.024577  0.009861  0.000000      4.000000
  0.049154  0.019723  0.000000      4.000000
  0.073732  0.029584  0.000000      4.000000
  0.024577  0.036343  0.000000      2.000000
  0.049154  0.046204  0.000000      4.000000
  0.073732  0.056066  0.000000      4.000000
 -0.073732 -0.003102  0.000000      4.000000
 -0.049154  0.006759  0.000000      4.000000
 -0.024577  0.016620  0.000000      2.000000
  0.049154  0.072686  0.000000      2.000000
  0.073732  0.082548  0.000000      4.000000
 -0.073732  0.023380  0.000000      4.000000
 -0.049154  0.033241  0.000000      2.000000
  0.073732  0.109029  0.000000      2.000000
 -0.073732  0.049861  0.000000      2.000000
  0.011239  0.016620  0.021857      2.000000
  0.035816  0.026481  0.021857      4.000000
  0.060394  0.036342  0.021857      4.000000
  0.084971  0.046204  0.021857      4.000000
 -0.062492 -0.012964  0.021857      4.000000
 -0.037915 -0.003103  0.021857      4.000000
 -0.013338  0.006758  0.021857      4.000000
  0.035816  0.052963  0.021857      2.000000
  0.060394  0.062824  0.021857      4.000000
  0.084971  0.072685  0.021857      4.000000
 -0.062492  0.013517  0.021857      4.000000
 -0.037915  0.023379  0.021857      4.000000
 -0.013338  0.033240  0.021857      4.000000
  0.060394  0.089306  0.021857      2.000000
  0.084971  0.099167  0.021857      4.000000
 -0.062492  0.039999  0.021857      4.000000
 -0.037915  0.049861  0.021857      4.000000
 -0.013338  0.059722  0.021857      4.000000
  0.084971  0.125649  0.021857      2.000000
 -0.062492  0.066481  0.021857      4.000000
 -0.037915  0.076342  0.021857      4.000000
 -0.013338  0.086204  0.021857      4.000000
 -0.062492 -0.092410  0.021857      2.000000
 -0.037915 -0.082548  0.021857      4.000000
 -0.013338 -0.072687  0.021857      4.000000
 -0.037915 -0.056067  0.021857      2.000000
 -0.013338 -0.046205  0.021857      4.000000
 -0.013338 -0.019723  0.021857      2.000000
  0.022478  0.033239  0.043714      2.000000
  0.047055  0.043101  0.043714      4.000000
  0.071633  0.052962  0.043714      4.000000
  0.096210  0.062823  0.043714      4.000000
 -0.051253  0.003655  0.043714      4.000000
 -0.026676  0.013517  0.043714      4.000000
 -0.002099  0.023378  0.043714      4.000000
  0.047055  0.069583  0.043714      2.000000
  0.071633  0.079444  0.043714      4.000000
  0.096210  0.089305  0.043714      4.000000
 -0.051253  0.030137  0.043714      4.000000
 -0.026676  0.039998  0.043714      4.000000
 -0.002099  0.049860  0.043714      4.000000
  0.071633  0.105926  0.043714      2.000000
  0.096210  0.115787  0.043714      4.000000
 -0.051253  0.056619  0.043714      4.000000
 -0.026676  0.066480  0.043714      4.000000
 -0.002099  0.076342  0.043714      4.000000
  0.096210  0.142269  0.043714      2.000000
 -0.051253  0.083101  0.043714      4.000000
 -0.026676  0.092962  0.043714      4.000000
 -0.002099  0.102823  0.043714      4.000000
 -0.051253 -0.075790  0.043714      2.000000
 -0.026676 -0.065929  0.043714      4.000000
 -0.002099 -0.056067  0.043714      4.000000
 -0.026676 -0.039447  0.043714      2.000000
 -0.002099 -0.029585  0.043714      4.000000
 -0.002099 -0.003104  0.043714      2.000000
  0.033717  0.049859  0.065570      2.000000
  0.058295  0.059720  0.065570      4.000000
  0.082872  0.069582  0.065570      4.000000
  0.107449  0.079443  0.065570      4.000000
 -0.040014  0.020275  0.065570      4.000000
 -0.015437  0.030136  0.065570      4.000000
  0.009140  0.039998  0.065570      4.000000
  0.058295  0.086202  0.065570      2.000000
  0.082872  0.096064  0.065570      4.000000
  0.107449  0.105925  0.065570      4.000000
 -0.040014  0.046757  0.065570      4.000000
 -0.015437  0.056618  0.065570      4.000000
  0.009140  0.066480  0.065570      4.000000
  0.082872  0.122545  0.065570      2.000000
  0.107449  0.132407  0.065570      4.000000
 -0.040014  0.073239  0.065570      4.000000
 -0.015437  0.083100  0.065570      4.000000
  0.009140  0.092961  0.065570      4.000000
  0.107449  0.158888  0.065570      2.000000
 -0.040014  0.099720  0.065570      4.000000
 -0.015437  0.109582  0.065570      4.000000
  0.009140  0.119443  0.065570      4.000000
 -0.040014 -0.059170  0.065570      2.000000
 -0.015437 -0.049309  0.065570      4.000000
  0.009140 -0.039448  0.065570      4.000000
 -0.015437 -0.022827  0.065570      2.000000
  0.009140 -0.012966  0.065570      4.000000
  0.009140  0.013516  0.065570      2.000000
 


--------------------------------------------------------------------------------------------------------




 Dimension of arrays:
   k-points           NKPTS =    100   k-points in BZ     NKDIM =    100   number of bands    NBANDS=     60
   number of dos      NEDOS =    301   number of ions     NIONS =     10
   non local maximal  LDIM  =      6   non local SUM 2l+1 LMDIM =     18
   total plane-waves  NPLWV = 157464
   max r-space proj   IRMAX =      1   max aug-charges    IRDMAX= 268966
   dimension x,y,z NGX =    54 NGY =   54 NGZ =   54
   dimension x,y,z NGXF=   108 NGYF=  108 NGZF=  108
   support grid    NGXF=   216 NGYF=  216 NGZF=  216
   ions per type =               2   6   2
   NGX,Y,Z   is equivalent  to a cutoff of  13.74, 13.74, 13.74 a.u.
   NGXF,Y,Z  is equivalent  to a cutoff of  27.47, 27.47, 27.47 a.u.

 SYSTEM =  routine with relax: pwdword             
 POSCAR =  EA226                                   

 Startparameter for this run:
   NWRITE =      2    write-flag & timer
   PREC   = acc       normal or accurate (medium, high low for compatibility)
   ISTART =      0    job   : 0-new  1-cont  2-samecut
   ICHARG =      2    charge: 1-file 2-atom 10-const
   ISPIN  =      1    spin polarized calculation?
   LNONCOLLINEAR =      F non collinear calculations
   LSORBIT =      F    spin-orbit coupling
   INIWAV =      1    electr: 0-lowe 1-rand  2-diag
   LASPH  =      T    aspherical Exc in radial PAW
   METAGGA=      F    non-selfconsistent MetaGGA calc.

 Electronic Relaxation 1
   ENCUT  =  600.0 eV  44.10 Ry    6.64 a.u.  13.05 13.05 13.05*2*pi/ulx,y,z
   ENINI  =  600.0     initial cutoff
   ENAUG  =  535.5 eV  augmentation charge cutoff
   NELM   =    100;   NELMIN=  6; NELMDL= -5     # of ELM steps 
   EDIFF  = 0.1E-08   stopping-criterion for ELM
   LREAL  =      F    real-space projection
   NLSPLINE    = F    spline interpolate recip. space projectors
   LCOMPAT=      F    compatible to vasp.4.4
   GGA_COMPAT  = T    GGA compatible to vasp.4.4-vasp.4.6
   LMAXPAW     = -100 max onsite density
   LMAXMIX     =    2 max onsite mixed and CHGCAR
   VOSKOWN=      0    Vosko Wilk Nusair interpolation
   ROPT   =    0.00000   0.00000   0.00000
 Ionic relaxation
   EDIFFG = 0.1E-07   stopping-criterion for IOM
   NSW    =      0    number of steps for IOM
   NBLOCK =      1;   KBLOCK =      1    inner block; outer block 
   IBRION =     -1    ionic relax: 0-MD 1-quasi-New 2-CG
   NFREE  =      0    steps in history (QN), initial steepest desc. (CG)
   ISIF   =     -1    stress and relaxation
   IWAVPR =     10    prediction:  0-non 1-charg 2-wave 3-comb
   ISYM   =      2    0-nonsym 1-usesym 2-fastsym
   LCORR  =      T    Harris-Foulkes like correction to forces

   POTIM  = 0.5000    time-step for ionic-motion
   TEIN   =    0.0    initial temperature
   TEBEG  =    0.0;   TEEND  =   0.0 temperature during run
   SMASS  =  -3.00    Nose mass-parameter (am)
   estimated Nose-frequenzy (Omega)   =  0.10E-29 period in steps = 0.13E+47 mass=  -0.976E-27a.u.
   SCALEE = 1.0000    scale energy and forces
   NPACO  =    256;   APACO  = 16.0  distance and # of slots for P.C.
   PSTRESS=    0.0 pullay stress

  Mass of Ions in am
   POMASS =  10.81 95.94 28.09
  Ionic Valenz
   ZVAL   =   3.00 14.00  4.00
  Atomic Wigner-Seitz radii
   RWIGS  =  -1.00 -1.00 -1.00
  virtual crystal weights 
   VCA    =   1.00  1.00  1.00
   NELECT =      98.0000    total number of electrons
   NUPDOWN=      -1.0000    fix difference up-down

 DOS related values:
   EMIN   =  10.00;   EMAX   =-10.00  energy-range for DOS
   EFERMI =   0.00
   ISMEAR =     0;   SIGMA  =   0.02  broadening in eV -4-tet -1-fermi 0-gaus

 Electronic relaxation 2 (details)
   IALGO  =     58    algorithm
   LDIAG  =      T    sub-space diagonalisation (order eigenvalues)
   LSUBROT=      F    optimize rotation matrix (better conditioning)
   TURBO    =      0    0=normal 1=particle mesh
   IRESTART =      0    0=no restart 2=restart with 2 vectors
   NREBOOT  =      0    no. of reboots
   NMIN     =      0    reboot dimension
   EREF     =   0.00    reference energy to select bands
   IMIX   =      4    mixing-type and parameters
     AMIX     =   0.40;   BMIX     =  1.00
     AMIX_MAG =   1.60;   BMIX_MAG =  1.00
     AMIN     =   0.10
     WC   =   100.;   INIMIX=   1;  MIXPRE=   1;  MAXMIX= -45

 Intra band minimization:
   WEIMIN = 0.0000     energy-eigenvalue tresh-hold
   EBREAK =  0.42E-11  absolut break condition
   DEPER  =   0.30     relativ break condition  

   TIME   =   0.40     timestep for ELM

  volume/ion in A,a.u.               =      20.49       138.30
  Fermi-wavevector in a.u.,A,eV,Ry     =   1.280177  2.419184 22.297963  1.638854
  Thomas-Fermi vector in A             =   2.412620
 
 Write flags
   LWAVE        =      T    write WAVECAR
   LDOWNSAMPLE  =      F    k-point downsampling of WAVECAR
   LCHARG       =      T    write CHGCAR
   LVTOT        =      F    write LOCPOT, total local potential
   LVHAR        =      F    write LOCPOT, Hartree potential only
   LELF         =      F    write electronic localiz. function (ELF)
   LORBIT       =      0    0 simple, 1 ext, 2 COOP (PROOUT), +10 PAW based schemes


 Dipole corrections
   LMONO  =      F    monopole corrections only (constant potential shift)
   LDIPOL =      F    correct potential (dipole corrections)
   IDIPOL =      0    1-x, 2-y, 3-z, 4-all directions 
   EPSILON=  1.0000000 bulk dielectric constant

 Exchange correlation treatment:
   GGA     =    --    GGA type
   LEXCH   =     8    internal setting for exchange type
   VOSKOWN=      0    Vosko Wilk Nusair interpolation
   LHFCALC =     F    Hartree Fock is set to
   LHFONE  =     F    Hartree Fock one center treatment
   AEXX    =    0.0000 exact exchange contribution

 Linear response parameters
   LEPSILON=     F    determine dielectric tensor
   LRPA    =     F    only Hartree local field effects (RPA)
   LNABLA  =     F    use nabla operator in PAW spheres
   LVEL    =     F    velocity operator in full k-point grid
   LINTERFAST=   F  fast interpolation
   KINTER  =     0    interpolate to denser k-point grid
   CSHIFT  =0.1000    complex shift for real part using Kramers Kronig
   OMEGAMAX=  -1.0    maximum frequency
   DEG_THRESHOLD= 0.2000000E-02 threshold for treating states as degnerate
   RTIME   =   -0.100 relaxation time in fs
  (WPLASMAI=    0.000 imaginary part of plasma frequency in eV, 0.658/RTIME)
   DFIELD  = 0.0000000 0.0000000 0.0000000 field for delta impulse in time
 
 Orbital magnetization related:
   ORBITALMAG=     F  switch on orbital magnetization
   LCHIMAG   =     F  perturbation theory with respect to B field
   DQ        =  0.001000  dq finite difference perturbation B field
   LLRAUG    =     F  two centre corrections for induced B field



--------------------------------------------------------------------------------------------------------


 Static calculation
 charge density and potential will be updated during run
 non-spin polarized calculation
 Conjugate gradient for all bands (Freysoldt, et al. PRB 79, 241103 (2009))
 preconditioned conjugated gradient                                        
 perform sub-space diagonalisation
    before iterative eigenvector-optimisation
 modified Broyden-mixing scheme, WC =      100.0
 initial mixing is a Kerker type mixing with AMIX =  0.4000 and BMIX =      1.0000
 Hartree-type preconditioning will be used
 using additional bands           11
 reciprocal scheme for non local part
 use partial core corrections
 no Harris-corrections to forces 
 use gradient corrections 
 use of overlap-Matrix (Vanderbilt PP)
 Gauss-broadening in eV      SIGMA  =   0.02


--------------------------------------------------------------------------------------------------------


  energy-cutoff  :      600.00
  volume of cell :      204.95
      direct lattice vectors                 reciprocal lattice vectors
     5.812591869  0.000000000 -2.988933818     0.172040292  0.069029412  0.000000000
    -2.164506837  5.394546727 -2.988933818     0.000000000  0.185372386  0.000000000
     0.000000000  0.000000000  6.536050000     0.078673977  0.116337870  0.152997606

  length of vectors
     6.536050000  6.536050000  6.536050000     0.185372386  0.185372386  0.207683321


 
 k-points in units of 2pi/SCALE and weight: EA                                      
   0.00000000  0.00000000  0.00000000       0.003
   0.02457718  0.00986134  0.00000000       0.012
   0.04915437  0.01972269  0.00000000       0.012
   0.07373155  0.02958403  0.00000000       0.012
   0.02457718  0.03634311  0.00000000       0.006
   0.04915437  0.04620446  0.00000000       0.012
   0.07373155  0.05606580  0.00000000       0.012
  -0.07373155 -0.00310226  0.00000000       0.012
  -0.04915437  0.00675908  0.00000000       0.012
  -0.02457718  0.01662042  0.00000000       0.006
   0.04915437  0.07268623  0.00000000       0.006
   0.07373155  0.08254757  0.00000000       0.012
  -0.07373155  0.02337951  0.00000000       0.012
  -0.04915437  0.03324085  0.00000000       0.006
   0.07373155  0.10902934  0.00000000       0.006
  -0.07373155  0.04986127  0.00000000       0.006
   0.01123914  0.01661970  0.02185680       0.006
   0.03581632  0.02648104  0.02185680       0.012
   0.06039351  0.03634238  0.02185680       0.012
   0.08497069  0.04620373  0.02185680       0.012
  -0.06249241 -0.01296434  0.02185680       0.012
  -0.03791523 -0.00310299  0.02185680       0.012
  -0.01333804  0.00675835  0.02185680       0.012
   0.03581632  0.05296281  0.02185680       0.006
   0.06039351  0.06282415  0.02185680       0.012
   0.08497069  0.07268550  0.02185680       0.012
  -0.06249241  0.01351743  0.02185680       0.012
  -0.03791523  0.02337878  0.02185680       0.012
  -0.01333804  0.03324012  0.02185680       0.012
   0.06039351  0.08930592  0.02185680       0.006
   0.08497069  0.09916727  0.02185680       0.012
  -0.06249241  0.03999920  0.02185680       0.012
  -0.03791523  0.04986055  0.02185680       0.012
  -0.01333804  0.05972189  0.02185680       0.012
   0.08497069  0.12564904  0.02185680       0.006
  -0.06249241  0.06648097  0.02185680       0.012
  -0.03791523  0.07634232  0.02185680       0.012
  -0.01333804  0.08620366  0.02185680       0.012
  -0.06249241 -0.09240965  0.02185680       0.006
  -0.03791523 -0.08254830  0.02185680       0.012
  -0.01333804 -0.07268696  0.02185680       0.012
  -0.03791523 -0.05606653  0.02185680       0.006
  -0.01333804 -0.04620519  0.02185680       0.012
  -0.01333804 -0.01972342  0.02185680       0.006
   0.02247828  0.03323939  0.04371360       0.006
   0.04705546  0.04310074  0.04371360       0.012
   0.07163265  0.05296208  0.04371360       0.012
   0.09620983  0.06282343  0.04371360       0.012
  -0.05125327  0.00365536  0.04371360       0.012
  -0.02667609  0.01351670  0.04371360       0.012
  -0.00209891  0.02337805  0.04371360       0.012
   0.04705546  0.06958251  0.04371360       0.006
   0.07163265  0.07944385  0.04371360       0.012
   0.09620983  0.08930519  0.04371360       0.012
  -0.05125327  0.03013713  0.04371360       0.012
  -0.02667609  0.03999847  0.04371360       0.012
  -0.00209891  0.04985982  0.04371360       0.012
   0.07163265  0.10592562  0.04371360       0.006
   0.09620983  0.11578696  0.04371360       0.012
  -0.05125327  0.05661890  0.04371360       0.012
  -0.02667609  0.06648024  0.04371360       0.012
  -0.00209891  0.07634159  0.04371360       0.012
   0.09620983  0.14226873  0.04371360       0.006
  -0.05125327  0.08310067  0.04371360       0.012
  -0.02667609  0.09296201  0.04371360       0.012
  -0.00209891  0.10282336  0.04371360       0.012
  -0.05125327 -0.07578995  0.04371360       0.006
  -0.02667609 -0.06592861  0.04371360       0.012
  -0.00209891 -0.05606726  0.04371360       0.012
  -0.02667609 -0.03944684  0.04371360       0.006
  -0.00209891 -0.02958549  0.04371360       0.012
  -0.00209891 -0.00310372  0.04371360       0.006
   0.03371742  0.04985909  0.06557040       0.006
   0.05829460  0.05972043  0.06557040       0.012
   0.08287179  0.06958178  0.06557040       0.012
   0.10744897  0.07944312  0.06557040       0.012
  -0.04001413  0.02027505  0.06557040       0.012
  -0.01543695  0.03013640  0.06557040       0.012
   0.00914023  0.03999774  0.06557040       0.012
   0.05829460  0.08620220  0.06557040       0.006
   0.08287179  0.09606355  0.06557040       0.012
   0.10744897  0.10592489  0.06557040       0.012
  -0.04001413  0.04675682  0.06557040       0.012
  -0.01543695  0.05661817  0.06557040       0.012
   0.00914023  0.06647951  0.06557040       0.012
   0.08287179  0.12254532  0.06557040       0.006
   0.10744897  0.13240666  0.06557040       0.012
  -0.04001413  0.07323859  0.06557040       0.012
  -0.01543695  0.08309994  0.06557040       0.012
   0.00914023  0.09296128  0.06557040       0.012
   0.10744897  0.15888843  0.06557040       0.006
  -0.04001413  0.09972036  0.06557040       0.012
  -0.01543695  0.10958171  0.06557040       0.012
   0.00914023  0.11944305  0.06557040       0.012
  -0.04001413 -0.05917025  0.06557040       0.006
  -0.01543695 -0.04930891  0.06557040       0.012
   0.00914023 -0.03944757  0.06557040       0.012
  -0.01543695 -0.02282714  0.06557040       0.006
   0.00914023 -0.01296580  0.06557040       0.012
   0.00914023  0.01351597  0.06557040       0.006
 
 k-points in reciprocal lattice and weights: EA                                      
   0.00000000  0.00000000  0.00000000       0.003
   0.14285714 -0.00000000  0.00000000       0.012
   0.28571429 -0.00000000  0.00000000       0.012
   0.42857143 -0.00000000  0.00000000       0.012
   0.14285714  0.14285714  0.00000000       0.006
   0.28571429  0.14285714  0.00000000       0.012
   0.42857143  0.14285714  0.00000000       0.012
  -0.42857143  0.14285714  0.00000000       0.012
  -0.28571429  0.14285714  0.00000000       0.012
  -0.14285714  0.14285714  0.00000000       0.006
   0.28571429  0.28571429  0.00000000       0.006
   0.42857143  0.28571429  0.00000000       0.012
  -0.42857143  0.28571429  0.00000000       0.012
  -0.28571429  0.28571429  0.00000000       0.006
   0.42857143  0.42857143  0.00000000       0.006
  -0.42857143  0.42857143  0.00000000       0.006
   0.00000000 -0.00000000  0.14285714       0.006
   0.14285714 -0.00000000  0.14285714       0.012
   0.28571429 -0.00000000  0.14285714       0.012
   0.42857143 -0.00000000  0.14285714       0.012
  -0.42857143  0.00000000  0.14285714       0.012
  -0.28571429  0.00000000  0.14285714       0.012
  -0.14285714  0.00000000  0.14285714       0.012
   0.14285714  0.14285714  0.14285714       0.006
   0.28571429  0.14285714  0.14285714       0.012
   0.42857143  0.14285714  0.14285714       0.012
  -0.42857143  0.14285714  0.14285714       0.012
  -0.28571429  0.14285714  0.14285714       0.012
  -0.14285714  0.14285714  0.14285714       0.012
   0.28571429  0.28571429  0.14285714       0.006
   0.42857143  0.28571429  0.14285714       0.012
  -0.42857143  0.28571429  0.14285714       0.012
  -0.28571429  0.28571429  0.14285714       0.012
  -0.14285714  0.28571429  0.14285714       0.012
   0.42857143  0.42857143  0.14285714       0.006
  -0.42857143  0.42857143  0.14285714       0.012
  -0.28571429  0.42857143  0.14285714       0.012
  -0.14285714  0.42857143  0.14285714       0.012
  -0.42857143 -0.42857143  0.14285714       0.006
  -0.28571429 -0.42857143  0.14285714       0.012
  -0.14285714 -0.42857143  0.14285714       0.012
  -0.28571429 -0.28571429  0.14285714       0.006
  -0.14285714 -0.28571429  0.14285714       0.012
  -0.14285714 -0.14285714  0.14285714       0.006
   0.00000000 -0.00000000  0.28571429       0.006
   0.14285714 -0.00000000  0.28571429       0.012
   0.28571429 -0.00000000  0.28571429       0.012
   0.42857143 -0.00000000  0.28571429       0.012
  -0.42857143  0.00000000  0.28571429       0.012
  -0.28571429  0.00000000  0.28571429       0.012
  -0.14285714 -0.00000000  0.28571429       0.012
   0.14285714  0.14285714  0.28571429       0.006
   0.28571429  0.14285714  0.28571429       0.012
   0.42857143  0.14285714  0.28571429       0.012
  -0.42857143  0.14285714  0.28571429       0.012
  -0.28571429  0.14285714  0.28571429       0.012
  -0.14285714  0.14285714  0.28571429       0.012
   0.28571429  0.28571429  0.28571429       0.006
   0.42857143  0.28571429  0.28571429       0.012
  -0.42857143  0.28571429  0.28571429       0.012
  -0.28571429  0.28571429  0.28571429       0.012
  -0.14285714  0.28571429  0.28571429       0.012
   0.42857143  0.42857143  0.28571429       0.006
  -0.42857143  0.42857143  0.28571429       0.012
  -0.28571429  0.42857143  0.28571429       0.012
  -0.14285714  0.42857143  0.28571429       0.012
  -0.42857143 -0.42857143  0.28571429       0.006
  -0.28571429 -0.42857143  0.28571429       0.012
  -0.14285714 -0.42857143  0.28571429       0.012
  -0.28571429 -0.28571429  0.28571429       0.006
  -0.14285714 -0.28571429  0.28571429       0.012
  -0.14285714 -0.14285714  0.28571429       0.006
  -0.00000000 -0.00000000  0.42857143       0.006
   0.14285714 -0.00000000  0.42857143       0.012
   0.28571429 -0.00000000  0.42857143       0.012
   0.42857143 -0.00000000  0.42857143       0.012
  -0.42857143  0.00000000  0.42857143       0.012
  -0.28571429 -0.00000000  0.42857143       0.012
  -0.14285714 -0.00000000  0.42857143       0.012
   0.14285714  0.14285714  0.42857143       0.006
   0.28571429  0.14285714  0.42857143       0.012
   0.42857143  0.14285714  0.42857143       0.012
  -0.42857143  0.14285714  0.42857143       0.012
  -0.28571429  0.14285714  0.42857143       0.012
  -0.14285714  0.14285714  0.42857143       0.012
   0.28571429  0.28571429  0.42857143       0.006
   0.42857143  0.28571429  0.42857143       0.012
  -0.42857143  0.28571429  0.42857143       0.012
  -0.28571429  0.28571429  0.42857143       0.012
  -0.14285714  0.28571429  0.42857143       0.012
   0.42857143  0.42857143  0.42857143       0.006
  -0.42857143  0.42857143  0.42857143       0.012
  -0.28571429  0.42857143  0.42857143       0.012
  -0.14285714  0.42857143  0.42857143       0.012
  -0.42857143 -0.42857143  0.42857143       0.006
  -0.28571429 -0.42857143  0.42857143       0.012
  -0.14285714 -0.42857143  0.42857143       0.012
  -0.28571429 -0.28571429  0.42857143       0.006
  -0.14285714 -0.28571429  0.42857143       0.012
  -0.14285714 -0.14285714  0.42857143       0.006
 
 position of ions in fractional coordinates (direct lattice) 
   0.50000000  0.00000000  0.50000000
   0.00000000  0.50000000  0.50000000
   0.24906000  0.74906000  0.99812000
   0.50000000  0.50000000  0.00000000
   0.75094000  0.25094000  0.00188000
   0.74906000  0.75094000  0.50000000
   0.25094000  0.24906000  0.50000000
   0.00000000  0.00000000  0.00000000
   0.25000000  0.75000000  0.50000000
   0.75000000  0.25000000  0.50000000
 
 position of ions in cartesian coordinates  (Angst):
   2.90629593  0.00000000  1.77355809
  -1.08225342  2.69727336  1.77355809
  -0.17366136  4.04083917  3.54044760
   1.82404252  2.69727336 -2.98893382
   3.82174639  1.35370756 -2.98226524
   2.72856530  4.05098092 -1.21537573
   0.91951973  1.34356581  1.77355809
   0.00000000  0.00000000  0.00000000
  -0.17023216  4.04591005  0.27909118
   3.81831719  1.34863668  0.27909118
 


--------------------------------------------------------------------------------------------------------


 k-point   1 :   0.0000 0.0000 0.0000  plane waves:    6789
 k-point   2 :   0.1429-0.0000 0.0000  plane waves:    6836
 k-point   3 :   0.2857-0.0000 0.0000  plane waves:    6829
 k-point   4 :   0.4286-0.0000 0.0000  plane waves:    6837
 k-point   5 :   0.1429 0.1429 0.0000  plane waves:    6834
 k-point   6 :   0.2857 0.1429 0.0000  plane waves:    6831
 k-point   7 :   0.4286 0.1429 0.0000  plane waves:    6839
 k-point   8 :  -0.4286 0.1429 0.0000  plane waves:    6828
 k-point   9 :  -0.2857 0.1429 0.0000  plane waves:    6833
 k-point  10 :  -0.1429 0.1429 0.0000  plane waves:    6837
 k-point  11 :   0.2857 0.2857 0.0000  plane waves:    6844
 k-point  12 :   0.4286 0.2857 0.0000  plane waves:    6842
 k-point  13 :  -0.4286 0.2857 0.0000  plane waves:    6830
 k-point  14 :  -0.2857 0.2857 0.0000  plane waves:    6837
 k-point  15 :   0.4286 0.4286 0.0000  plane waves:    6829
 k-point  16 :  -0.4286 0.4286 0.0000  plane waves:    6838
 k-point  17 :   0.0000-0.0000 0.1429  plane waves:    6837
 k-point  18 :   0.1429-0.0000 0.1429  plane waves:    6834
 k-point  19 :   0.2857-0.0000 0.1429  plane waves:    6828
 k-point  20 :   0.4286-0.0000 0.1429  plane waves:    6839
 k-point  21 :  -0.4286 0.0000 0.1429  plane waves:    6831
 k-point  22 :  -0.2857 0.0000 0.1429  plane waves:    6834
 k-point  23 :  -0.1429 0.0000 0.1429  plane waves:    6837
 k-point  24 :   0.1429 0.1429 0.1429  plane waves:    6834
 k-point  25 :   0.2857 0.1429 0.1429  plane waves:    6837
 k-point  26 :   0.4286 0.1429 0.1429  plane waves:    6837
 k-point  27 :  -0.4286 0.1429 0.1429  plane waves:    6836
 k-point  28 :  -0.2857 0.1429 0.1429  plane waves:    6833
 k-point  29 :  -0.1429 0.1429 0.1429  plane waves:    6825
 k-point  30 :   0.2857 0.2857 0.1429  plane waves:    6830
 k-point  31 :   0.4286 0.2857 0.1429  plane waves:    6829
 k-point  32 :  -0.4286 0.2857 0.1429  plane waves:    6830
 k-point  33 :  -0.2857 0.2857 0.1429  plane waves:    6848
 k-point  34 :  -0.1429 0.2857 0.1429  plane waves:    6831
 k-point  35 :   0.4286 0.4286 0.1429  plane waves:    6829
 k-point  36 :  -0.4286 0.4286 0.1429  plane waves:    6844
 k-point  37 :  -0.2857 0.4286 0.1429  plane waves:    6842
 k-point  38 :  -0.1429 0.4286 0.1429  plane waves:    6845
 k-point  39 :  -0.4286-0.4286 0.1429  plane waves:    6858
 k-point  40 :  -0.2857-0.4286 0.1429  plane waves:    6848
 k-point  41 :  -0.1429-0.4286 0.1429  plane waves:    6836
 k-point  42 :  -0.2857-0.2857 0.1429  plane waves:    6856
 k-point  43 :  -0.1429-0.2857 0.1429  plane waves:    6834
 k-point  44 :  -0.1429-0.1429 0.1429  plane waves:    6821
 k-point  45 :   0.0000-0.0000 0.2857  plane waves:    6837
 k-point  46 :   0.1429-0.0000 0.2857  plane waves:    6830
 k-point  47 :   0.2857-0.0000 0.2857  plane waves:    6842
 k-point  48 :   0.4286-0.0000 0.2857  plane waves:    6844
 k-point  49 :  -0.4286 0.0000 0.2857  plane waves:    6831
 k-point  50 :  -0.2857 0.0000 0.2857  plane waves:    6829
 k-point  51 :  -0.1429-0.0000 0.2857  plane waves:    6834
 k-point  52 :   0.1429 0.1429 0.2857  plane waves:    6829
 k-point  53 :   0.2857 0.1429 0.2857  plane waves:    6830
 k-point  54 :   0.4286 0.1429 0.2857  plane waves:    6837
 k-point  55 :  -0.4286 0.1429 0.2857  plane waves:    6828
 k-point  56 :  -0.2857 0.1429 0.2857  plane waves:    6831
 k-point  57 :  -0.1429 0.1429 0.2857  plane waves:    6848
 k-point  58 :   0.2857 0.2857 0.2857  plane waves:    6830
 k-point  59 :   0.4286 0.2857 0.2857  plane waves:    6842
 k-point  60 :  -0.4286 0.2857 0.2857  plane waves:    6842
 k-point  61 :  -0.2857 0.2857 0.2857  plane waves:    6868
 k-point  62 :  -0.1429 0.2857 0.2857  plane waves:    6843
 k-point  63 :   0.4286 0.4286 0.2857  plane waves:    6858
 k-point  64 :  -0.4286 0.4286 0.2857  plane waves:    6841
 k-point  65 :  -0.2857 0.4286 0.2857  plane waves:    6854
 k-point  66 :  -0.1429 0.4286 0.2857  plane waves:    6848
 k-point  67 :  -0.4286-0.4286 0.2857  plane waves:    6863
 k-point  68 :  -0.2857-0.4286 0.2857  plane waves:    6858
 k-point  69 :  -0.1429-0.4286 0.2857  plane waves:    6856
 k-point  70 :  -0.2857-0.2857 0.2857  plane waves:    6850
 k-point  71 :  -0.1429-0.2857 0.2857  plane waves:    6834
 k-point  72 :  -0.1429-0.1429 0.2857  plane waves:    6834
 k-point  73 :  -0.0000-0.0000 0.4286  plane waves:    6838
 k-point  74 :   0.1429-0.0000 0.4286  plane waves:    6829
 k-point  75 :   0.2857-0.0000 0.4286  plane waves:    6842
 k-point  76 :   0.4286-0.0000 0.4286  plane waves:    6839
 k-point  77 :  -0.4286 0.0000 0.4286  plane waves:    6837
 k-point  78 :  -0.2857-0.0000 0.4286  plane waves:    6828
 k-point  79 :  -0.1429-0.0000 0.4286  plane waves:    6830
 k-point  80 :   0.1429 0.1429 0.4286  plane waves:    6829
 k-point  81 :   0.2857 0.1429 0.4286  plane waves:    6837
 k-point  82 :   0.4286 0.1429 0.4286  plane waves:    6839
 k-point  83 :  -0.4286 0.1429 0.4286  plane waves:    6845
 k-point  84 :  -0.2857 0.1429 0.4286  plane waves:    6842
 k-point  85 :  -0.1429 0.1429 0.4286  plane waves:    6844
 k-point  86 :   0.2857 0.2857 0.4286  plane waves:    6844
 k-point  87 :   0.4286 0.2857 0.4286  plane waves:    6848
 k-point  88 :  -0.4286 0.2857 0.4286  plane waves:    6854
 k-point  89 :  -0.2857 0.2857 0.4286  plane waves:    6841
 k-point  90 :  -0.1429 0.2857 0.4286  plane waves:    6858
 k-point  91 :   0.4286 0.4286 0.4286  plane waves:    6863
 k-point  92 :  -0.4286 0.4286 0.4286  plane waves:    6874
 k-point  93 :  -0.2857 0.4286 0.4286  plane waves:    6863
 k-point  94 :  -0.1429 0.4286 0.4286  plane waves:    6848
 k-point  95 :  -0.4286-0.4286 0.4286  plane waves:    6878
 k-point  96 :  -0.2857-0.4286 0.4286  plane waves:    6858
 k-point  97 :  -0.1429-0.4286 0.4286  plane waves:    6836
 k-point  98 :  -0.2857-0.2857 0.4286  plane waves:    6856
 k-point  99 :  -0.1429-0.2857 0.4286  plane waves:    6831
 k-point 100 :  -0.1429-0.1429 0.4286  plane waves:    6834

 maximum and minimum number of plane-waves per node :      3459     3378

 maximum number of plane-waves:      6878
 maximum index in each direction: 
   IXMAX=   13   IYMAX=   13   IZMAX=   13
   IXMIN=  -13   IYMIN=  -13   IZMIN=  -13


 parallel 3D FFT for wavefunctions:
    minimum data exchange during FFTs selected (reduces bandwidth)
 parallel 3D FFT for charge:
    minimum data exchange during FFTs selected (reduces bandwidth)


 total amount of memory used by VASP MPI-rank0   380950. kBytes
=======================================================================

   base      :      30000. kBytes
   nonl-proj :     150112. kBytes
   fftplans  :      17771. kBytes
   grid      :      13358. kBytes
   one-center:         77. kBytes
   wavefun   :     169632. kBytes
 
     INWAV:  cpu time    0.0001: real time    0.0001
 Broyden mixing: mesh for mixing (old mesh)
   NGX = 27   NGY = 27   NGZ = 27
  (NGX  =108   NGY  =108   NGZ  =108)
  gives a total of  19683 points

 initial charge density was supplied:
 charge density of overlapping atoms calculated
 number of electron      98.0000000 magnetization 
 keeping initial charge density in first step


--------------------------------------------------------------------------------------------------------


 Maximum index for augmentation-charges        21911 (set IRDMAX)


--------------------------------------------------------------------------------------------------------


 First call to EWALD:  gamma=   0.301
 Maximum number of real-space cells 3x 3x 3
 Maximum number of reciprocal cells 3x 3x 3

    FEWALD:  cpu time    0.0038: real time    0.0039


--------------------------------------- Iteration      1(   1)  ---------------------------------------


    POTLOK:  cpu time    0.2377: real time    0.2429
    SETDIJ:  cpu time    0.6134: real time    0.6179
    TRIAL :  cpu time   28.7330: real time   29.0001
    CORREC:  cpu time    0.0015: real time    0.0015
    --------------------------------------------
      LOOP:  cpu time   29.6892: real time   29.9724

 eigenvalue-minimisations  : 13008
 total energy-change (2. order) : 0.9786715E+03  (-0.6459203E+04)
 number of electron      98.0000000 magnetization 
 augmentation part       98.0000000 magnetization 

 Free energy of the ion-electron system (eV)
  ---------------------------------------------------
  alpha Z        PSCENC =       407.64059476
  Ewald energy   TEWEN  =     -7473.29666116
  -Hartree energ DENC   =     -3604.02324059
  -exchange      EXHF   =         0.00000000
  -V(xc)+E(xc)   XCENC  =       458.25809976
  PAW double counting   =      9166.97638771    -9126.13493418
  entropy T*S    EENTRO =        -0.00072078
  eigenvalues    EBANDS =      -372.91545439
  atomic energy  EATOM  =     11522.16744521
  ---------------------------------------------------
  free energy    TOTEN  =       978.67151635 eV

  energy without entropy =      978.67223713  energy(sigma->0) =      978.67187674


--------------------------------------------------------------------------------------------------------




--------------------------------------- Iteration      1(   2)  ---------------------------------------


    TRIAL :  cpu time   28.9403: real time   29.2111
    CORREC:  cpu time    0.0017: real time    0.0018
    --------------------------------------------
      LOOP:  cpu time   28.9435: real time   29.2159

 eigenvalue-minimisations  : 13272
 total energy-change (2. order) :-0.1142595E+04  (-0.1110811E+04)
 number of electron      98.0000000 magnetization 
 augmentation part       98.0000000 magnetization 

 Free energy of the ion-electron system (eV)
  ---------------------------------------------------
  alpha Z        PSCENC =       407.64059476
  Ewald energy   TEWEN  =     -7473.29666116
  -Hartree energ DENC   =     -3604.02324059
  -exchange      EXHF   =         0.00000000
  -V(xc)+E(xc)   XCENC  =       458.25809976
  PAW double counting   =      9166.97638771    -9126.13493418
  entropy T*S    EENTRO =        -0.00236052
  eigenvalues    EBANDS =     -1515.50860303
  atomic energy  EATOM  =     11522.16744521
  ---------------------------------------------------
  free energy    TOTEN  =      -163.92327202 eV

  energy without entropy =     -163.92091151  energy(sigma->0) =     -163.92209177


--------------------------------------------------------------------------------------------------------




--------------------------------------- Iteration      1(   3)  ---------------------------------------


    TRIAL :  cpu time   32.6506: real time   32.9592
    CORREC:  cpu time    0.0016: real time    0.0016
    --------------------------------------------
      LOOP:  cpu time   32.6546: real time   32.9636

 eigenvalue-minimisations  : 16428
 total energy-change (2. order) :-0.4832686E+02  (-0.4579791E+02)
 number of electron      98.0000000 magnetization 
 augmentation part       98.0000000 magnetization 

 Free energy of the ion-electron system (eV)
  ---------------------------------------------------
  alpha Z        PSCENC =       407.64059476
  Ewald energy   TEWEN  =     -7473.29666116
  -Hartree energ DENC   =     -3604.02324059
  -exchange      EXHF   =         0.00000000
  -V(xc)+E(xc)   XCENC  =       458.25809976
  PAW double counting   =      9166.97638771    -9126.13493418
  entropy T*S    EENTRO =        -0.00280620
  eigenvalues    EBANDS =     -1563.83502014
  atomic energy  EATOM  =     11522.16744521
  ---------------------------------------------------
  free energy    TOTEN  =      -212.25013482 eV

  energy without entropy =     -212.24732862  energy(sigma->0) =     -212.24873172


--------------------------------------------------------------------------------------------------------




--------------------------------------- Iteration      1(   4)  ---------------------------------------


    TRIAL :  cpu time   31.6617: real time   31.9547
    CORREC:  cpu time    0.0017: real time    0.0017
    --------------------------------------------
      LOOP:  cpu time   31.6647: real time   31.9594

 eigenvalue-minimisations  : 15372
 total energy-change (2. order) :-0.1445805E+01  (-0.1406042E+01)
 number of electron      98.0000000 magnetization 
 augmentation part       98.0000000 magnetization 

 Free energy of the ion-electron system (eV)
  ---------------------------------------------------
  alpha Z        PSCENC =       407.64059476
  Ewald energy   TEWEN  =     -7473.29666116
  -Hartree energ DENC   =     -3604.02324059
  -exchange      EXHF   =         0.00000000
  -V(xc)+E(xc)   XCENC  =       458.25809976
  PAW double counting   =      9166.97638771    -9126.13493418
  entropy T*S    EENTRO =        -0.00508696
  eigenvalues    EBANDS =     -1565.27854475
  atomic energy  EATOM  =     11522.16744521
  ---------------------------------------------------
  free energy    TOTEN  =      -213.69594019 eV

  energy without entropy =     -213.69085323  energy(sigma->0) =     -213.69339671


--------------------------------------------------------------------------------------------------------




--------------------------------------- Iteration      1(   5)  ---------------------------------------


    TRIAL :  cpu time   32.0503: real time   32.3462
    CORREC:  cpu time    0.0017: real time    0.0018
    CHARGE:  cpu time    1.9473: real time    1.9624
    --------------------------------------------
      LOOP:  cpu time   34.0003: real time   34.3130

 eigenvalue-minimisations  : 15876
 total energy-change (2. order) :-0.4003410E-01  (-0.3988366E-01)
 number of electron      98.0000001 magnetization 
 augmentation part       12.8405821 magnetization 

 Free energy of the ion-electron system (eV)
  ---------------------------------------------------
  alpha Z        PSCENC =       407.64059476
  Ewald energy   TEWEN  =     -7473.29666116
  -Hartree energ DENC   =     -3604.02324059
  -exchange      EXHF   =         0.00000000
  -V(xc)+E(xc)   XCENC  =       458.25809976
  PAW double counting   =      9166.97638771    -9126.13493418
  entropy T*S    EENTRO =        -0.00512027
  eigenvalues    EBANDS =     -1565.31854554
  atomic energy  EATOM  =     11522.16744521
  ---------------------------------------------------
  free energy    TOTEN  =      -213.73597429 eV

  energy without entropy =     -213.73085402  energy(sigma->0) =     -213.73341416


--------------------------------------------------------------------------------------------------------




--------------------------------------- Iteration      1(   6)  ---------------------------------------


    POTLOK:  cpu time    0.1865: real time    0.1879
    SETDIJ:  cpu time    0.6383: real time    0.6439
    TRIAL :  cpu time   21.7322: real time   22.0037
    CORREC:  cpu time    7.5055: real time    7.5650
    CHARGE:  cpu time    2.2509: real time    2.2668
    --------------------------------------------
      LOOP:  cpu time   32.3277: real time   32.6825

 eigenvalue-minimisations  :     0
 total energy-change (2. order) : 0.5778793E+02  (-0.1211892E+02)
 number of electron      98.0000001 magnetization 
 augmentation part       14.3253237 magnetization 

 Free energy of the ion-electron system (eV)
  ---------------------------------------------------
  alpha Z        PSCENC =       407.64059476
  Ewald energy   TEWEN  =     -7473.29666116
  -Hartree energ DENC   =     -3325.03852316
  -exchange      EXHF   =         0.00000000
  -V(xc)+E(xc)   XCENC  =       459.07511178
  PAW double counting   =     11478.65916696   -11469.46890292
  entropy T*S    EENTRO =        -0.00293779
  eigenvalues    EBANDS =     -1755.68115505
  atomic energy  EATOM  =     11522.16744521
  ---------------------------------------------------
  free energy    TOTEN  =      -155.94804385 eV

  energy without entropy =     -155.94510607  energy(sigma->0) =     -155.94657496


--------------------------------------------------------------------------------------------------------




--------------------------------------- Iteration      1(   7)  ---------------------------------------


    POTLOK:  cpu time    0.1457: real time    0.1466
    SETDIJ:  cpu time    0.6246: real time    0.6287
    TRIAL :  cpu time   25.3973: real time   25.6031
    CORREC:  cpu time    8.7160: real time    8.7821
    CHARGE:  cpu time    2.1848: real time    2.2008
    --------------------------------------------
      LOOP:  cpu time   37.0804: real time   37.3749

 eigenvalue-minimisations  :     0
 total energy-change (2. order) :-0.1177994E+02  (-0.2522848E+01)
 number of electron      98.0000001 magnetization 
 augmentation part       14.3624512 magnetization 

 Free energy of the ion-electron system (eV)
  ---------------------------------------------------
  alpha Z        PSCENC =       407.64059476
  Ewald energy   TEWEN  =     -7473.29666116
  -Hartree energ DENC   =     -3498.63876460
  -exchange      EXHF   =         0.00000000
  -V(xc)+E(xc)   XCENC  =       466.49707828
  PAW double counting   =     11164.34987389   -11143.76926739
  entropy T*S    EENTRO =        -0.00248979
  eigenvalues    EBANDS =     -1612.67534446
  atomic energy  EATOM  =     11522.16744521
  ---------------------------------------------------
  free energy    TOTEN  =      -167.72798327 eV

  energy without entropy =     -167.72549348  energy(sigma->0) =     -167.72673837


--------------------------------------------------------------------------------------------------------




--------------------------------------- Iteration      1(   8)  ---------------------------------------


    POTLOK:  cpu time    0.1458: real time    0.1467
    SETDIJ:  cpu time    0.6288: real time    0.6335
    TRIAL :  cpu time   26.0507: real time   26.2606
    CORREC:  cpu time    8.1017: real time    8.1647
    CHARGE:  cpu time    2.5233: real time    2.5416
    --------------------------------------------
      LOOP:  cpu time   37.4596: real time   37.7568

 eigenvalue-minimisations  :     0
 total energy-change (2. order) :-0.2504712E+01  (-0.6249740E+00)
 number of electron      98.0000001 magnetization 
 augmentation part       14.2973330 magnetization 

 Free energy of the ion-electron system (eV)
  ---------------------------------------------------
  alpha Z        PSCENC =       407.64059476
  Ewald energy   TEWEN  =     -7473.29666116
  -Hartree energ DENC   =     -3526.22445623
  -exchange      EXHF   =         0.00000000
  -V(xc)+E(xc)   XCENC  =       467.49622493
  PAW double counting   =     11026.43561678   -11002.92818692
  entropy T*S    EENTRO =        -0.00296274
  eigenvalues    EBANDS =     -1591.52078332
  atomic energy  EATOM  =     11522.16744521
  ---------------------------------------------------
  free energy    TOTEN  =      -170.23269574 eV

  energy without entropy =     -170.22973301  energy(sigma->0) =     -170.23121438


--------------------------------------------------------------------------------------------------------




--------------------------------------- Iteration      1(   9)  ---------------------------------------


    POTLOK:  cpu time    0.1464: real time    0.1474
    SETDIJ:  cpu time    0.7801: real time    0.7850
    TRIAL :  cpu time   27.4784: real time   27.6908
    CORREC:  cpu time    9.1914: real time    9.2570
    CHARGE:  cpu time    1.9320: real time    1.9462
    --------------------------------------------
      LOOP:  cpu time   39.5297: real time   39.8285

 eigenvalue-minimisations  :     0
 total energy-change (2. order) :-0.6269055E+00  (-0.2449322E+00)
 number of electron      98.0000001 magnetization 
 augmentation part       14.2972757 magnetization 

 Free energy of the ion-electron system (eV)
  ---------------------------------------------------
  alpha Z        PSCENC =       407.64059476
  Ewald energy   TEWEN  =     -7473.29666116
  -Hartree energ DENC   =     -3512.64929920
  -exchange      EXHF   =         0.00000000
  -V(xc)+E(xc)   XCENC  =       467.17475059
  PAW double counting   =     10941.24806087   -10916.52185074
  entropy T*S    EENTRO =        -0.00307210
  eigenvalues    EBANDS =     -1606.61967886
  atomic energy  EATOM  =     11522.16744521
  ---------------------------------------------------
  free energy    TOTEN  =      -170.85960127 eV

  energy without entropy =     -170.85652917  energy(sigma->0) =     -170.85806522


--------------------------------------------------------------------------------------------------------




--------------------------------------- Iteration      1(  10)  ---------------------------------------


    POTLOK:  cpu time    0.1473: real time    0.1483
    SETDIJ:  cpu time    0.6412: real time    0.6457
    TRIAL :  cpu time   25.6334: real time   25.8515
    CORREC:  cpu time    8.5448: real time    8.6104
    CHARGE:  cpu time    2.4877: real time    2.5045
    --------------------------------------------
      LOOP:  cpu time   37.4567: real time   37.7634

 eigenvalue-minimisations  :     0
 total energy-change (2. order) :-0.2448478E+00  (-0.9250514E-01)
 number of electron      98.0000001 magnetization 
 augmentation part       14.3308407 magnetization 

 Free energy of the ion-electron system (eV)
  ---------------------------------------------------
  alpha Z        PSCENC =       407.64059476
  Ewald energy   TEWEN  =     -7473.29666116
  -Hartree energ DENC   =     -3512.79170174
  -exchange      EXHF   =         0.00000000
  -V(xc)+E(xc)   XCENC  =       467.38316656
  PAW double counting   =     10884.93212077   -10859.05962066
  entropy T*S    EENTRO =        -0.00341289
  eigenvalues    EBANDS =     -1608.07672072
  atomic energy  EATOM  =     11522.16744521
  ---------------------------------------------------
  free energy    TOTEN  =      -171.10444908 eV

  energy without entropy =     -171.10103620  energy(sigma->0) =     -171.10274264


--------------------------------------------------------------------------------------------------------




--------------------------------------- Iteration      1(  11)  ---------------------------------------


    POTLOK:  cpu time    0.1494: real time    0.1504
    SETDIJ:  cpu time    0.6705: real time    0.6748
    TRIAL :  cpu time   25.6450: real time   25.8558
    CORREC:  cpu time    8.2501: real time    8.3128
    CHARGE:  cpu time    1.8863: real time    1.9005
    --------------------------------------------
      LOOP:  cpu time   36.9216: real time   37.2168

 eigenvalue-minimisations  :     0
 total energy-change (2. order) :-0.9250594E-01  (-0.4256105E-01)
 number of electron      98.0000001 magnetization 
 augmentation part       14.3321191 magnetization 

 Free energy of the ion-electron system (eV)
  ---------------------------------------------------
  alpha Z        PSCENC =       407.64059476
  Ewald energy   TEWEN  =     -7473.29666116
  -Hartree energ DENC   =     -3520.90895489
  -exchange      EXHF   =         0.00000000
  -V(xc)+E(xc)   XCENC  =       467.75516154
  PAW double counting   =     10864.91634411   -10838.35357407
  entropy T*S    EENTRO =        -0.00350548
  eigenvalues    EBANDS =     -1601.11389763
  atomic energy  EATOM  =     11522.16744521
  ---------------------------------------------------
  free energy    TOTEN  =      -171.19695502 eV

  energy without entropy =     -171.19344954  energy(sigma->0) =     -171.19520228


--------------------------------------------------------------------------------------------------------




--------------------------------------- Iteration      1(  12)  ---------------------------------------


    POTLOK:  cpu time    0.1480: real time    0.1490
    SETDIJ:  cpu time    0.6158: real time    0.6202
    TRIAL :  cpu time   27.2009: real time   27.4187
    CORREC:  cpu time    9.2321: real time    9.2992
    CHARGE:  cpu time    2.1854: real time    2.2009
    --------------------------------------------
      LOOP:  cpu time   39.3834: real time   39.6899

 eigenvalue-minimisations  :     0
 total energy-change (2. order) :-0.4258426E-01  (-0.1898129E-01)
 number of electron      98.0000001 magnetization 
 augmentation part       14.3155522 magnetization 

 Free energy of the ion-electron system (eV)
  ---------------------------------------------------
  alpha Z        PSCENC =       407.64059476
  Ewald energy   TEWEN  =     -7473.29666116
  -Hartree energ DENC   =     -3522.06166784
  -exchange      EXHF   =         0.00000000
  -V(xc)+E(xc)   XCENC  =       467.78593782
  PAW double counting   =     10859.10118318   -10832.48005490
  entropy T*S    EENTRO =        -0.00364257
  eigenvalues    EBANDS =     -1600.09281088
  atomic energy  EATOM  =     11522.16744521
  ---------------------------------------------------
  free energy    TOTEN  =      -171.23953928 eV

  energy without entropy =     -171.23589671  energy(sigma->0) =     -171.23771799


--------------------------------------------------------------------------------------------------------




--------------------------------------- Iteration      1(  13)  ---------------------------------------


    POTLOK:  cpu time    0.1592: real time    0.1602
    SETDIJ:  cpu time    0.6068: real time    0.6110
    TRIAL :  cpu time   26.2388: real time   26.4450
    CORREC:  cpu time    9.1911: real time    9.2606
    CHARGE:  cpu time    2.2150: real time    2.2313
    --------------------------------------------
      LOOP:  cpu time   38.4143: real time   38.7122

 eigenvalue-minimisations  :     0
 total energy-change (2. order) :-0.1899249E-01  (-0.9550654E-02)
 number of electron      98.0000001 magnetization 
 augmentation part       14.3163764 magnetization 

 Free energy of the ion-electron system (eV)
  ---------------------------------------------------
  alpha Z        PSCENC =       407.64059476
  Ewald energy   TEWEN  =     -7473.29666116
  -Hartree energ DENC   =     -3519.47015271
  -exchange      EXHF   =         0.00000000
  -V(xc)+E(xc)   XCENC  =       467.63484384
  PAW double counting   =     10859.77650454   -10833.38437167
  entropy T*S    EENTRO =        -0.00362913
  eigenvalues    EBANDS =     -1602.32309202
  atomic energy  EATOM  =     11522.16744521
  ---------------------------------------------------
  free energy    TOTEN  =      -171.25853177 eV

  energy without entropy =     -171.25490264  energy(sigma->0) =     -171.25671720


--------------------------------------------------------------------------------------------------------




--------------------------------------- Iteration      1(  14)  ---------------------------------------


    POTLOK:  cpu time    0.1516: real time    0.1528
    SETDIJ:  cpu time    0.9193: real time    0.9251
    TRIAL :  cpu time   24.0089: real time   24.2062
    CORREC:  cpu time    8.1757: real time    8.2528
    CHARGE:  cpu time    2.5858: real time    2.6076
    --------------------------------------------
      LOOP:  cpu time   35.8432: real time   36.1476

 eigenvalue-minimisations  :     0
 total energy-change (2. order) :-0.9526994E-02  (-0.5207558E-02)
 number of electron      98.0000001 magnetization 
 augmentation part       14.3222348 magnetization 

 Free energy of the ion-electron system (eV)
  ---------------------------------------------------
  alpha Z        PSCENC =       407.64059476
  Ewald energy   TEWEN  =     -7473.29666116
  -Hartree energ DENC   =     -3519.00398370
  -exchange      EXHF   =         0.00000000
  -V(xc)+E(xc)   XCENC  =       467.62828435
  PAW double counting   =     10866.28912199   -10839.90634617
  entropy T*S    EENTRO =        -0.00365741
  eigenvalues    EBANDS =     -1602.78288491
  atomic energy  EATOM  =     11522.16744521
  ---------------------------------------------------
  free energy    TOTEN  =      -171.26805876 eV

  energy without entropy =     -171.26440135  energy(sigma->0) =     -171.26623006


--------------------------------------------------------------------------------------------------------




--------------------------------------- Iteration      1(  15)  ---------------------------------------


[...]
     10     -30.1011      2.00000
     11     -30.0968      2.00000
     12     -30.0667      2.00000
     13     -29.9647      2.00000
     14     -29.9528      2.00000
     15     -29.9319      2.00000
     16     -29.9299      2.00000
     17     -29.9262      2.00000
     18     -29.9182      2.00000
     19     -29.8469      2.00000
     20     -29.7044      2.00000
     21     -29.5707      2.00000
     22     -29.4322      2.00000
     23     -28.7302      2.00000
     24     -28.5804      2.00000
     25      -3.3303      2.00000
     26      -2.9708      2.00000
     27      -1.7414      2.00000
     28       1.3218      2.00000
     29       1.4099      2.00000
     30       1.5707      2.00000
     31       1.6939      2.00000
     32       1.9541      2.00000
     33       2.4567      2.00000
     34       2.6935      2.00000
     35       2.7727      2.00000
     36       3.9851      2.00000
     37       4.1778      2.00000
     38       4.3518      2.00000
     39       4.4368      2.00000
     40       4.6709      2.00000
     41       4.7730      2.00000
     42       4.9707      2.00000
     43       5.2013      2.00000
     44       5.4816      2.00000
     45       5.5375      2.00000
     46       5.5879      2.00000
     47       5.6654      2.00000
     48       5.7140      2.00000
     49       5.7898      2.00000
     50       6.1256      2.00000
     51       6.1717      2.00000
     52       6.5579      0.00000
     53       6.9533      0.00000
     54       6.9838      0.00000
     55       7.2736      0.00000
     56       7.4616      0.00000
     57       8.0416      0.00000
     58       8.0594      0.00000
     59       8.1809      0.00000
     60       8.1994      0.00000

 k-point    94 :      -0.1429    0.4286    0.4286
  band No.  band energies     occupation 
      1     -56.7884      2.00000
      2     -56.6633      2.00000
      3     -56.5738      2.00000
      4     -56.5658      2.00000
      5     -56.3108      2.00000
      6     -56.1810      2.00000
      7     -31.3308      2.00000
      8     -31.0954      2.00000
      9     -30.8774      2.00000
     10     -30.3667      2.00000
     11     -30.0795      2.00000
     12     -30.0084      2.00000
     13     -29.9826      2.00000
     14     -29.9446      2.00000
     15     -29.9256      2.00000
     16     -29.9226      2.00000
     17     -29.9197      2.00000
     18     -29.8951      2.00000
     19     -29.6998      2.00000
     20     -29.6755      2.00000
     21     -29.5863      2.00000
     22     -29.1555      2.00000
     23     -28.9094      2.00000
     24     -28.6206      2.00000
     25      -3.3654      2.00000
     26      -3.1928      2.00000
     27      -1.1927      2.00000
     28       0.8091      2.00000
     29       1.5479      2.00000
     30       1.7873      2.00000
     31       1.8260      2.00000
     32       2.0780      2.00000
     33       2.7505      2.00000
     34       2.8719      2.00000
     35       3.0420      2.00000
     36       3.4905      2.00000
     37       3.9065      2.00000
     38       4.0343      2.00000
     39       4.0489      2.00000
     40       4.3569      2.00000
     41       4.6318      2.00000
     42       4.6506      2.00000
     43       5.0074      2.00000
     44       5.1572      2.00000
     45       5.2379      2.00000
     46       5.4659      2.00000
     47       5.9507      2.00000
     48       6.0376      2.00000
     49       6.1804      2.00000
     50       6.3904      0.05017
     51       6.5925      0.00000
     52       6.7408      0.00000
     53       6.8782      0.00000
     54       7.1002      0.00000
     55       7.3993      0.00000
     56       7.7557      0.00000
     57       7.8750      0.00000
     58       7.9806      0.00000
     59       8.0488      0.00000
     60       8.7001      0.00000

 k-point    95 :      -0.4286   -0.4286    0.4286
  band No.  band energies     occupation 
      1     -56.8245      2.00000
      2     -56.5748      2.00000
      3     -56.5748      2.00000
      4     -56.5627      2.00000
      5     -56.4031      2.00000
      6     -56.1430      2.00000
      7     -31.3681      2.00000
      8     -31.3680      2.00000
      9     -30.1288      2.00000
     10     -30.1085      2.00000
     11     -30.0736      2.00000
     12     -30.0244      2.00000
     13     -29.9905      2.00000
     14     -29.9905      2.00000
     15     -29.9289      2.00000
     16     -29.9288      2.00000
     17     -29.9262      2.00000
     18     -29.9261      2.00000
     19     -29.9169      2.00000
     20     -29.8647      2.00000
     21     -29.7322      2.00000
     22     -29.5594      2.00000
     23     -28.5790      2.00000
     24     -28.5788      2.00000
     25      -3.2283      2.00000
     26      -3.0663      2.00000
     27      -1.7476      2.00000
     28       1.3105      2.00000
     29       1.3869      2.00000
     30       1.3869      2.00000
     31       1.5962      2.00000
     32       1.8450      2.00000
     33       2.2108      2.00000
     34       2.6221      2.00000
     35       2.6221      2.00000
     36       4.5165      2.00000
     37       4.5166      2.00000
     38       4.5468      2.00000
     39       4.8311      2.00000
     40       5.0752      2.00000
     41       5.0753      2.00000
     42       5.4335      2.00000
     43       5.4838      2.00000
     44       5.5364      2.00000
     45       5.5366      2.00000
     46       5.5939      2.00000
     47       5.5939      2.00000
     48       5.6396      2.00000
     49       5.6397      2.00000
     50       5.7441      2.00000
     51       6.0602      2.00000
     52       6.3308      1.97599
     53       6.5191      0.00000
     54       6.9269      0.00000
     55       7.0576      0.00000
     56       7.6187      0.00000
     57       7.8548      0.00000
     58       7.8549      0.00000
     59       7.9791      0.00000
     60       8.1574      0.00000

 k-point    96 :      -0.2857   -0.4286    0.4286
  band No.  band energies     occupation 
      1     -56.8168      2.00000
      2     -56.6016      2.00000
      3     -56.5742      2.00000
      4     -56.5633      2.00000
      5     -56.3758      2.00000
      6     -56.1513      2.00000
      7     -31.3370      2.00000
      8     -31.3357      2.00000
      9     -30.3697      2.00000
     10     -30.3393      2.00000
     11     -30.1017      2.00000
     12     -30.0213      2.00000
     13     -29.9422      2.00000
     14     -29.9342      2.00000
     15     -29.9264      2.00000
     16     -29.9261      2.00000
     17     -29.9170      2.00000
     18     -29.8723      2.00000
     19     -29.7390      2.00000
     20     -29.7173      2.00000
     21     -29.7143      2.00000
     22     -29.5649      2.00000
     23     -28.6187      2.00000
     24     -28.6171      2.00000
     25      -3.3509      2.00000
     26      -3.1941      2.00000
     27      -1.2246      2.00000
     28       0.8311      2.00000
     29       1.4909      2.00000
     30       1.5531      2.00000
     31       1.6352      2.00000
     32       1.9404      2.00000
     33       2.2895      2.00000
     34       2.7312      2.00000
     35       2.7468      2.00000
     36       4.2280      2.00000
     37       4.4484      2.00000
     38       4.5017      2.00000
     39       4.7168      2.00000
     40       4.7505      2.00000
     41       4.8279      2.00000
     42       4.9173      2.00000
     43       5.0914      2.00000
     44       5.2453      2.00000
     45       5.4197      2.00000
     46       5.6003      2.00000
     47       5.7442      2.00000
     48       5.8334      2.00000
     49       5.9352      2.00000
     50       6.0911      2.00000
     51       6.4844      0.00000
     52       6.5213      0.00000
     53       6.7554      0.00000
     54       6.8309      0.00000
     55       7.0451      0.00000
     56       7.6591      0.00000
     57       7.9782      0.00000
     58       8.0943      0.00000
     59       8.1740      0.00000
     60       8.2928      0.00000

 k-point    97 :      -0.1429   -0.4286    0.4286
  band No.  band energies     occupation 
      1     -56.7940      2.00000
      2     -56.6548      2.00000
      3     -56.5725      2.00000
      4     -56.5650      2.00000
      5     -56.3212      2.00000
      6     -56.1755      2.00000
      7     -31.2447      2.00000
      8     -31.2397      2.00000
      9     -30.6470      2.00000
     10     -30.6234      2.00000
     11     -30.0829      2.00000
     12     -30.0079      2.00000
     13     -29.9782      2.00000
     14     -29.9477      2.00000
     15     -29.9251      2.00000
     16     -29.9180      2.00000
     17     -29.9179      2.00000
     18     -29.8799      2.00000
     19     -29.6832      2.00000
     20     -29.5818      2.00000
     21     -29.4385      2.00000
     22     -29.4156      2.00000
     23     -28.7350      2.00000
     24     -28.7290      2.00000
     25      -3.5316      2.00000
     26      -3.1837      2.00000
     27      -0.5918      2.00000
     28       0.2048      2.00000
     29       1.6630      2.00000
     30       1.7145      2.00000
     31       1.9400      2.00000
     32       2.2235      2.00000
     33       2.5393      2.00000
     34       2.9278      2.00000
     35       3.0089      2.00000
     36       3.9174      2.00000
     37       4.0333      2.00000
     38       4.0551      2.00000
     39       4.2004      2.00000
     40       4.2130      2.00000
     41       4.2957      2.00000
     42       4.5245      2.00000
     43       4.7309      2.00000
     44       4.7535      2.00000
     45       5.3461      2.00000
     46       5.6594      2.00000
     47       5.9345      2.00000
     48       6.2259      2.00000
     49       6.4383      0.00000
     50       6.4887      0.00000
     51       6.6854      0.00000
     52       6.7896      0.00000
     53       6.9665      0.00000
     54       7.1357      0.00000
     55       7.3277      0.00000
     56       7.5899      0.00000
     57       7.8023      0.00000
     58       7.8694      0.00000
     59       8.2740      0.00000
     60       8.8223      0.00000

 k-point    98 :      -0.2857   -0.2857    0.4286
  band No.  band energies     occupation 
      1     -56.8096      2.00000
      2     -56.6202      2.00000
      3     -56.5747      2.00000
      4     -56.5640      2.00000
      5     -56.3556      2.00000
      6     -56.1589      2.00000
      7     -31.3653      2.00000
      8     -31.2453      2.00000
      9     -30.6308      2.00000
     10     -30.1010      2.00000
     11     -30.0949      2.00000
     12     -30.0666      2.00000
     13     -29.9645      2.00000
     14     -29.9544      2.00000
     15     -29.9321      2.00000
     16     -29.9299      2.00000
     17     -29.9276      2.00000
     18     -29.9169      2.00000
     19     -29.8469      2.00000
     20     -29.7056      2.00000
     21     -29.5698      2.00000
     22     -29.4322      2.00000
     23     -28.7303      2.00000
     24     -28.5803      2.00000
     25      -3.6143      2.00000
     26      -3.0879      2.00000
     27      -0.6062      2.00000
     28       0.2497      2.00000
     29       1.6092      2.00000
     30       1.6655      2.00000
     31       1.7410      2.00000
     32       1.9474      2.00000
     33       2.4164      2.00000
     34       2.8535      2.00000
     35       2.9092      2.00000
     36       4.1618      2.00000
     37       4.1699      2.00000
     38       4.2380      2.00000
     39       4.3068      2.00000
     40       4.3416      2.00000
     41       4.5793      2.00000
     42       4.6506      2.00000
     43       5.0314      2.00000
     44       5.6724      2.00000
     45       5.7000      2.00000
     46       5.7960      2.00000
     47       5.8966      2.00000
     48       5.9500      2.00000
     49       6.0295      2.00000
     50       6.3250      1.99232
     51       6.4150      0.00022
     52       6.5779      0.00000
     53       6.6299      0.00000
     54       6.8718      0.00000
     55       7.2234      0.00000
     56       7.2737      0.00000
     57       7.9272      0.00000
     58       7.9713      0.00000
     59       8.4192      0.00000
     60       8.5524      0.00000

 k-point    99 :      -0.1429   -0.2857    0.4286
  band No.  band energies     occupation 
      1     -56.7884      2.00000
      2     -56.6632      2.00000
      3     -56.5736      2.00000
      4     -56.5658      2.00000
      5     -56.3108      2.00000
      6     -56.1810      2.00000
      7     -31.3311      2.00000
      8     -31.0955      2.00000
      9     -30.8772      2.00000
     10     -30.3666      2.00000
     11     -30.0772      2.00000
     12     -30.0081      2.00000
     13     -29.9846      2.00000
     14     -29.9448      2.00000
     15     -29.9274      2.00000
     16     -29.9227      2.00000
     17     -29.9180      2.00000
     18     -29.8950      2.00000
     19     -29.6996      2.00000
     20     -29.6769      2.00000
     21     -29.5850      2.00000
     22     -29.1555      2.00000
     23     -28.9095      2.00000
     24     -28.6205      2.00000
     25      -3.7430      2.00000
     26      -2.9865      2.00000
     27      -0.3941      2.00000
     28       0.0761      2.00000
     29       1.7244      2.00000
     30       1.8071      2.00000
     31       2.0520      2.00000
     32       2.0596      2.00000
     33       2.6235      2.00000
     34       3.0704      2.00000
     35       3.1625      2.00000
     36       3.5042      2.00000
     37       3.7799      2.00000
     38       3.8074      2.00000
     39       4.0154      2.00000
     40       4.1290      2.00000
     41       4.2777      2.00000
     42       4.4864      2.00000
     43       5.0727      2.00000
     44       5.1998      2.00000
     45       5.5794      2.00000
     46       5.6767      2.00000
     47       5.9827      2.00000
     48       6.1177      2.00000
     49       6.3024      1.99998
     50       6.3722      0.50168
     51       6.6131      0.00000
     52       6.7534      0.00000
     53       6.9829      0.00000
     54       7.1103      0.00000
     55       7.2777      0.00000
     56       7.6981      0.00000
     57       7.7352      0.00000
     58       8.1566      0.00000
     59       8.1902      0.00000
     60       8.5911      0.00000

 k-point   100 :      -0.1429   -0.1429    0.4286
  band No.  band energies     occupation 
      1     -56.7723      2.00000
      2     -56.6862      2.00000
      3     -56.5747      2.00000
      4     -56.5681      2.00000
      5     -56.2848      2.00000
      6     -56.1969      2.00000
      7     -31.3588      2.00000
      8     -31.0781      2.00000
      9     -30.8968      2.00000
     10     -30.1155      2.00000
     11     -30.1011      2.00000
     12     -30.0634      2.00000
     13     -30.0013      2.00000
     14     -29.9491      2.00000
     15     -29.9383      2.00000
     16     -29.9345      2.00000
     17     -29.9295      2.00000
     18     -29.9196      2.00000
     19     -29.8103      2.00000
     20     -29.6597      2.00000
     21     -29.5957      2.00000
     22     -29.1400      2.00000
     23     -28.9204      2.00000
     24     -28.5835      2.00000
     25      -3.8259      2.00000
     26      -2.7628      2.00000
     27      -0.9952      2.00000
     28       0.7836      2.00000
     29       1.7930      2.00000
     30       1.8698      2.00000
     31       2.0134      2.00000
     32       2.1355      2.00000
     33       2.4229      2.00000
     34       2.9219      2.00000
     35       3.2418      2.00000
     36       3.3988      2.00000
     37       3.4945      2.00000
     38       3.7849      2.00000
     39       3.9236      2.00000
     40       4.2007      2.00000
     41       4.2848      2.00000
     42       4.4983      2.00000
     43       5.2509      2.00000
     44       5.5676      2.00000
     45       5.6125      2.00000
     46       5.8452      2.00000
     47       5.8478      2.00000
     48       5.9083      2.00000
     49       6.1603      2.00000
     50       6.4090      0.00108
     51       6.5909      0.00000
     52       6.5984      0.00000
     53       7.1008      0.00000
     54       7.1622      0.00000
     55       7.2374      0.00000
     56       7.3844      0.00000
     57       7.6720      0.00000
     58       7.9700      0.00000
     59       8.0111      0.00000
     60       8.8382      0.00000


--------------------------------------------------------------------------------------------------------


 soft charge-density along one line, spin component           1
         0         1         2         3         4         5         6         7         8         9
 total charge-density along one line
 
 pseudopotential strength for first ion, spin component:           1
  6.117   9.283   0.000   0.000   0.000   0.000   0.000   0.000
  9.283  14.078   0.000   0.000   0.000   0.000   0.000   0.000
  0.000   0.000  -2.056  -0.002   0.002  -3.454  -0.005   0.004
  0.000   0.000  -0.002  -2.055  -0.002  -0.005  -3.452  -0.003
  0.000   0.000   0.002  -0.002  -2.058   0.004  -0.003  -3.457
  0.000   0.000  -3.454  -0.005   0.004  -5.592  -0.009   0.007
  0.000   0.000  -0.005  -3.452  -0.003  -0.009  -5.589  -0.006
  0.000   0.000   0.004  -0.003  -3.457   0.007  -0.006  -5.597
 total augmentation occupancy for first ion, spin component:           1
  3.114  -0.714   0.000   0.000   0.000   0.000   0.000   0.000
 -0.714   0.182   0.000   0.000   0.000   0.000   0.000   0.000
  0.000   0.000   2.162   0.046  -0.046  -0.541   0.022  -0.010
  0.000   0.000   0.046   2.141   0.031   0.022  -0.543   0.015
  0.000   0.000  -0.046   0.031   2.199  -0.010   0.015  -0.533
  0.000   0.000  -0.541   0.022  -0.010   0.139  -0.014   0.008
  0.000   0.000   0.022  -0.543   0.015  -0.014   0.141  -0.010
  0.000   0.000  -0.010   0.015  -0.533   0.008  -0.010   0.133


------------------------ aborting loop because EDIFF is reached ----------------------------------------




--------------------------------------------------------------------------------------------------------



  FREE ENERGIE OF THE ION-ELECTRON SYSTEM (eV)
  ---------------------------------------------------
  free  energy   TOTEN  =      -171.27843431 eV

  energy  without entropy=     -171.27465979  energy(sigma->0) =     -171.27654705
 


--------------------------------------------------------------------------------------------------------


    POTLOK:  cpu time    1.4250: real time    1.4343


--------------------------------------------------------------------------------------------------------


 writing wavefunctions
     LOOP+:  cpu time 1658.6208: real time 1671.7611
    4ORBIT:  cpu time    0.0000: real time    0.0000

 total amount of memory used by VASP MPI-rank0   380950. kBytes
=======================================================================

   base      :      30000. kBytes
   nonl-proj :     150112. kBytes
   fftplans  :      17771. kBytes
   grid      :      13358. kBytes
   one-center:         77. kBytes
   wavefun   :     169632. kBytes
 
  
  
 General timing and accounting informations for this job:
 ========================================================
  
                  Total CPU time used (sec):     1664.489
                            User time (sec):     1648.480
                          System time (sec):       16.009
                         Elapsed time (sec):     1678.750
  
                   Maximum memory used (kb):      567884.
                   Average memory used (kb):          N/A
  
                          Minor page faults:      2208948
                          Major page faults:           30
                 Voluntary context switches:        11476
