<?xml version="1.0" encoding="ISO-8859-1"?>
<modeling>
 <generator>
  <i name="program" type="string">vasp </i>
  <i name="version" type="string">6.2.0  </i>
  <i name="subversion" type="string">18Jan21 (build Jan 05 2022 15:41:44) complex                          parallel </i>
  <i name="platform" type="string">LinuxIFC </i>
  <i name="date" type="string">2025 05 07 </i>
  <i name="time" type="string">16:53:28 </i>
 </generator>
 <incar>
  <i type="string" name="SYSTEM">routine with relax: pwdword</i>
  <i type="string" name="PREC">Acc</i>
  <i type="int" name="IALGO">    38</i>
  <i type="string" name="ALGO">A</i>
  <i type="logical" name="ADDGRID"> T  </i>
  <i type="int" name="ICHARG">     2</i>
  <i type="int" name="NELM">   100</i>
  <i type="int" name="NELMIN">     6</i>
  <i name="EDIFF">      0.00000000</i>
  <i type="int" name="NSW">     0</i>
  <i type="int" name="ISIF">    -1</i>
  <i name="ENCUT">    600.00000000</i>
  <i type="logical" name="LREAL"> F  </i>
  <i type="int" name="ISMEAR">     0</i>
  <i name="SIGMA">      0.02000000</i>
  <i type="logical" name="LASPH"> T  </i>
  <i type="string" name="METAGGA">R2SCAN</i>
  <i type="logical" name="LMIXTAU"> F  </i>
 </incar>
 <primitive_cell>
  <structure name="primitive_cell" >
   <crystal>
    <varray name="basis" >
     <v>       4.93030578       0.00000000      -2.89386573 </v>
     <v>      -1.61637975       4.65781404      -2.89386573 </v>
     <v>       0.00000000       0.00000000       5.71685000 </v>
    </varray>
    <i name="volume">    131.28430142 </i>
    <varray name="rec_basis" >
     <v>       0.20282718       0.07038618       0.00000000 </v>
     <v>       0.00000000       0.21469299       0.00000000 </v>
     <v>       0.10267098       0.14430689       0.17492150 </v>
    </varray>
   </crystal>
   <varray name="positions" >
    <v>       0.00000000       0.00000000       0.00000000 </v>
    <v>       0.50000000       0.50000000       0.00000000 </v>
    <v>       0.25000000       0.25000000       0.00000000 </v>
    <v>       0.24333000       0.25667000       0.50000000 </v>
    <v>       0.75000000       0.75000000       0.00000000 </v>
    <v>       0.75667000       0.74333000       0.50000000 </v>
    <v>       0.25667000       0.75667000       0.01334000 </v>
    <v>       0.74333000       0.24333000       0.98666000 </v>
    <v>       0.75000000       0.25000000       0.50000000 </v>
    <v>       0.25000000       0.75000000       0.50000000 </v>
   </varray>
  </structure>
  <varray name="primitive_index" >
   <v type="int" >        1 </v>
   <v type="int" >        2 </v>
   <v type="int" >        3 </v>
   <v type="int" >        4 </v>
   <v type="int" >        5 </v>
   <v type="int" >        6 </v>
   <v type="int" >        7 </v>
   <v type="int" >        8 </v>
   <v type="int" >        9 </v>
   <v type="int" >       10 </v>
  </varray>
 </primitive_cell>
 <kpoints>
  <generation param="Gamma">
   <v type="int" name="divisions">       8        8        9 </v>
   <v name="usershift">      0.00000000       0.00000000       0.00000000 </v>
   <v name="genvec1">      0.12500000      -0.00000000       0.00000000 </v>
   <v name="genvec2">      0.00000000       0.12500000       0.00000000 </v>
   <v name="genvec3">     -0.00000000       0.00000000       0.11111111 </v>
   <v name="shift">      0.00000000       0.00000000       0.00000000 </v>
  </generation>
  <varray name="kpointlist" >
   <v>       0.00000000       0.00000000       0.00000000 </v>
   <v>       0.12500000      -0.00000000       0.00000000 </v>
   <v>       0.25000000      -0.00000000       0.00000000 </v>
   <v>       0.37500000      -0.00000000       0.00000000 </v>
   <v>       0.50000000      -0.00000000       0.00000000 </v>
   <v>       0.12500000       0.12500000       0.00000000 </v>
   <v>       0.25000000       0.12500000       0.00000000 </v>
   <v>       0.37500000       0.12500000       0.00000000 </v>
   <v>       0.50000000       0.12500000       0.00000000 </v>
   <v>      -0.37500000       0.12500000       0.00000000 </v>
   <v>      -0.25000000       0.12500000       0.00000000 </v>
   <v>      -0.12500000       0.12500000       0.00000000 </v>
   <v>       0.25000000       0.25000000       0.00000000 </v>
   <v>       0.37500000       0.25000000       0.00000000 </v>
   <v>       0.50000000       0.25000000       0.00000000 </v>
   <v>      -0.37500000       0.25000000       0.00000000 </v>
   <v>      -0.25000000       0.25000000       0.00000000 </v>
   <v>       0.37500000       0.37500000       0.00000000 </v>
   <v>       0.50000000       0.37500000       0.00000000 </v>
   <v>      -0.37500000       0.37500000       0.00000000 </v>
   <v>       0.50000000       0.50000000       0.00000000 </v>
   <v>      -0.00000000       0.00000000       0.11111111 </v>
   <v>       0.12500000      -0.00000000       0.11111111 </v>
   <v>       0.25000000       0.00000000       0.11111111 </v>
   <v>       0.37500000      -0.00000000       0.11111111 </v>
   <v>       0.50000000      -0.00000000       0.11111111 </v>
   <v>      -0.37500000       0.00000000       0.11111111 </v>
   <v>      -0.25000000       0.00000000       0.11111111 </v>
   <v>      -0.12500000      -0.00000000       0.11111111 </v>
   <v>       0.12500000       0.12500000       0.11111111 </v>
   <v>       0.25000000       0.12500000       0.11111111 </v>
   <v>       0.37500000       0.12500000       0.11111111 </v>
   <v>       0.50000000       0.12500000       0.11111111 </v>
   <v>      -0.37500000       0.12500000       0.11111111 </v>
   <v>      -0.25000000       0.12500000       0.11111111 </v>
   <v>      -0.12500000       0.12500000       0.11111111 </v>
   <v>       0.25000000       0.25000000       0.11111111 </v>
   <v>       0.37500000       0.25000000       0.11111111 </v>
   <v>       0.50000000       0.25000000       0.11111111 </v>
   <v>      -0.37500000       0.25000000       0.11111111 </v>
   <v>      -0.25000000       0.25000000       0.11111111 </v>
   <v>      -0.12500000       0.25000000       0.11111111 </v>
   <v>       0.37500000       0.37500000       0.11111111 </v>
   <v>       0.50000000       0.37500000       0.11111111 </v>
   <v>      -0.37500000       0.37500000       0.11111111 </v>
   <v>      -0.25000000       0.37500000       0.11111111 </v>
   <v>      -0.12500000       0.37500000       0.11111111 </v>
   <v>       0.50000000       0.50000000       0.11111111 </v>
   <v>      -0.37500000       0.50000000       0.11111111 </v>
   <v>      -0.25000000       0.50000000       0.11111111 </v>
   <v>      -0.12500000       0.50000000       0.11111111 </v>
   <v>      -0.37500000      -0.37500000       0.11111111 </v>
   <v>      -0.25000000      -0.37500000       0.11111111 </v>
   <v>      -0.12500000      -0.37500000       0.11111111 </v>
   <v>      -0.25000000      -0.25000000       0.11111111 </v>
   <v>      -0.12500000      -0.25000000       0.11111111 </v>
   <v>      -0.12500000      -0.12500000       0.11111111 </v>
   <v>      -0.00000000       0.00000000       0.22222222 </v>
   <v>       0.12500000       0.00000000       0.22222222 </v>
   <v>       0.25000000      -0.00000000       0.22222222 </v>
   <v>       0.37500000      -0.00000000       0.22222222 </v>
   <v>       0.50000000       0.00000000       0.22222222 </v>
   <v>      -0.37500000       0.00000000       0.22222222 </v>
   <v>      -0.25000000       0.00000000       0.22222222 </v>
   <v>      -0.12500000       0.00000000       0.22222222 </v>
   <v>       0.12500000       0.12500000       0.22222222 </v>
   <v>       0.25000000       0.12500000       0.22222222 </v>
   <v>       0.37500000       0.12500000       0.22222222 </v>
   <v>       0.50000000       0.12500000       0.22222222 </v>
   <v>      -0.37500000       0.12500000       0.22222222 </v>
   <v>      -0.25000000       0.12500000       0.22222222 </v>
   <v>      -0.12500000       0.12500000       0.22222222 </v>
   <v>       0.25000000       0.25000000       0.22222222 </v>
   <v>       0.37500000       0.25000000       0.22222222 </v>
   <v>       0.50000000       0.25000000       0.22222222 </v>
   <v>      -0.37500000       0.25000000       0.22222222 </v>
   <v>      -0.25000000       0.25000000       0.22222222 </v>
   <v>      -0.12500000       0.25000000       0.22222222 </v>
   <v>       0.37500000       0.37500000       0.22222222 </v>
   <v>       0.50000000       0.37500000       0.22222222 </v>
   <v>      -0.37500000       0.37500000       0.22222222 </v>
   <v>      -0.25000000       0.37500000       0.22222222 </v>
   <v>      -0.12500000       0.37500000       0.22222222 </v>
   <v>       0.50000000       0.50000000       0.22222222 </v>
   <v>      -0.37500000       0.50000000       0.22222222 </v>
   <v>      -0.25000000       0.50000000       0.22222222 </v>
   <v>      -0.12500000       0.50000000       0.22222222 </v>
   <v>      -0.37500000      -0.37500000       0.22222222 </v>
   <v>      -0.25000000      -0.37500000       0.22222222 </v>
   <v>      -0.12500000      -0.37500000       0.22222222 </v>
   <v>      -0.25000000      -0.25000000       0.22222222 </v>
   <v>      -0.12500000      -0.25000000       0.22222222 </v>
   <v>      -0.12500000      -0.12500000       0.22222222 </v>
   <v>       0.00000000       0.00000000       0.33333333 </v>
   <v>       0.12500000      -0.00000000       0.33333333 </v>
   <v>       0.25000000       0.00000000       0.33333333 </v>
   <v>       0.37500000       0.00000000       0.33333333 </v>
   <v>       0.50000000       0.00000000       0.33333333 </v>
   <v>      -0.37500000       0.00000000       0.33333333 </v>
   <v>      -0.25000000       0.00000000       0.33333333 </v>
   <v>      -0.12500000       0.00000000       0.33333333 </v>
   <v>       0.12500000       0.12500000       0.33333333 </v>
   <v>       0.25000000       0.12500000       0.33333333 </v>
   <v>       0.37500000       0.12500000       0.33333333 </v>
   <v>       0.50000000       0.12500000       0.33333333 </v>
   <v>      -0.37500000       0.12500000       0.33333333 </v>
   <v>      -0.25000000       0.12500000       0.33333333 </v>
   <v>      -0.12500000       0.12500000       0.33333333 </v>
   <v>       0.25000000       0.25000000       0.33333333 </v>
   <v>       0.37500000       0.25000000       0.33333333 </v>
   <v>       0.50000000       0.25000000       0.33333333 </v>
   <v>      -0.37500000       0.25000000       0.33333333 </v>
   <v>      -0.25000000       0.25000000       0.33333333 </v>
   <v>      -0.12500000       0.25000000       0.33333333 </v>
   <v>       0.37500000       0.37500000       0.33333333 </v>
   <v>       0.50000000       0.37500000       0.33333333 </v>
   <v>      -0.37500000       0.37500000       0.33333333 </v>
   <v>      -0.25000000       0.37500000       0.33333333 </v>
   <v>      -0.12500000       0.37500000       0.33333333 </v>
   <v>       0.50000000       0.50000000       0.33333333 </v>
   <v>      -0.37500000       0.50000000       0.33333333 </v>
   <v>      -0.25000000       0.50000000       0.33333333 </v>
   <v>      -0.12500000       0.50000000       0.33333333 </v>
   <v>      -0.37500000      -0.37500000       0.33333333 </v>
   <v>      -0.25000000      -0.37500000       0.33333333 </v>
   <v>      -0.12500000      -0.37500000       0.33333333 </v>
   <v>      -0.25000000      -0.25000000       0.33333333 </v>
   <v>      -0.12500000      -0.25000000       0.33333333 </v>
   <v>      -0.12500000      -0.12500000       0.33333333 </v>
   <v>      -0.00000000       0.00000000       0.44444444 </v>
   <v>       0.12500000      -0.00000000       0.44444444 </v>
   <v>       0.25000000       0.00000000       0.44444444 </v>
   <v>       0.37500000       0.00000000       0.44444444 </v>
   <v>       0.50000000      -0.00000000       0.44444444 </v>
   <v>      -0.37500000       0.00000000       0.44444444 </v>
   <v>      -0.25000000       0.00000000       0.44444444 </v>
   <v>      -0.12500000       0.00000000       0.44444444 </v>
   <v>       0.12500000       0.12500000       0.44444444 </v>
   <v>       0.25000000       0.12500000       0.44444444 </v>
   <v>       0.37500000       0.12500000       0.44444444 </v>
   <v>       0.50000000       0.12500000       0.44444444 </v>
   <v>      -0.37500000       0.12500000       0.44444444 </v>
   <v>      -0.25000000       0.12500000       0.44444444 </v>
   <v>      -0.12500000       0.12500000       0.44444444 </v>
   <v>       0.25000000       0.25000000       0.44444444 </v>
   <v>       0.37500000       0.25000000       0.44444444 </v>
   <v>       0.50000000       0.25000000       0.44444444 </v>
   <v>      -0.37500000       0.25000000       0.44444444 </v>
   <v>      -0.25000000       0.25000000       0.44444444 </v>
   <v>      -0.12500000       0.25000000       0.44444444 </v>
   <v>       0.37500000       0.37500000       0.44444444 </v>
   <v>       0.50000000       0.37500000       0.44444444 </v>
   <v>      -0.37500000       0.37500000       0.44444444 </v>
   <v>      -0.25000000       0.37500000       0.44444444 </v>
   <v>      -0.12500000       0.37500000       0.44444444 </v>
   <v>       0.50000000       0.50000000       0.44444444 </v>
   <v>      -0.37500000       0.50000000       0.44444444 </v>
   <v>      -0.25000000       0.50000000       0.44444444 </v>
   <v>      -0.12500000       0.50000000       0.44444444 </v>
   <v>      -0.37500000      -0.37500000       0.44444444 </v>
   <v>      -0.25000000      -0.37500000       0.44444444 </v>
   <v>      -0.12500000      -0.37500000       0.44444444 </v>
   <v>      -0.25000000      -0.25000000       0.44444444 </v>
   <v>      -0.12500000      -0.25000000       0.44444444 </v>
   <v>      -0.12500000      -0.12500000       0.44444444 </v>
  </varray>
  <varray name="weights" >
   <v>       0.00173611 </v>
   <v>       0.00694444 </v>
   <v>       0.00694444 </v>
   <v>       0.00694444 </v>
   <v>       0.00347222 </v>
   <v>       0.00347222 </v>
   <v>       0.00694444 </v>
   <v>       0.00694444 </v>
   <v>       0.00694444 </v>
   <v>       0.00694444 </v>
   <v>       0.00694444 </v>
   <v>       0.00347222 </v>
   <v>       0.00347222 </v>
   <v>       0.00694444 </v>
   <v>       0.00694444 </v>
   <v>       0.00694444 </v>
   <v>       0.00347222 </v>
   <v>       0.00347222 </v>
   <v>       0.00694444 </v>
   <v>       0.00347222 </v>
   <v>       0.00173611 </v>
   <v>       0.00347222 </v>
   <v>       0.00694444 </v>
   <v>       0.00694444 </v>
   <v>       0.00694444 </v>
   <v>       0.00694444 </v>
   <v>       0.00694444 </v>
   <v>       0.00694444 </v>
   <v>       0.00694444 </v>
   <v>       0.00347222 </v>
   <v>       0.00694444 </v>
   <v>       0.00694444 </v>
   <v>       0.00694444 </v>
   <v>       0.00694444 </v>
   <v>       0.00694444 </v>
   <v>       0.00694444 </v>
   <v>       0.00347222 </v>
   <v>       0.00694444 </v>
   <v>       0.00694444 </v>
   <v>       0.00694444 </v>
   <v>       0.00694444 </v>
   <v>       0.00694444 </v>
   <v>       0.00347222 </v>
   <v>       0.00694444 </v>
   <v>       0.00694444 </v>
   <v>       0.00694444 </v>
   <v>       0.00694444 </v>
   <v>       0.00347222 </v>
   <v>       0.00694444 </v>
   <v>       0.00694444 </v>
   <v>       0.00694444 </v>
   <v>       0.00347222 </v>
   <v>       0.00694444 </v>
   <v>       0.00694444 </v>
   <v>       0.00347222 </v>
   <v>       0.00694444 </v>
   <v>       0.00347222 </v>
   <v>       0.00347222 </v>
   <v>       0.00694444 </v>
   <v>       0.00694444 </v>
   <v>       0.00694444 </v>
   <v>       0.00694444 </v>
   <v>       0.00694444 </v>
   <v>       0.00694444 </v>
   <v>       0.00694444 </v>
   <v>       0.00347222 </v>
   <v>       0.00694444 </v>
   <v>       0.00694444 </v>
   <v>       0.00694444 </v>
   <v>       0.00694444 </v>
   <v>       0.00694444 </v>
   <v>       0.00694444 </v>
   <v>       0.00347222 </v>
   <v>       0.00694444 </v>
   <v>       0.00694444 </v>
   <v>       0.00694444 </v>
   <v>       0.00694444 </v>
   <v>       0.00694444 </v>
   <v>       0.00347222 </v>
   <v>       0.00694444 </v>
   <v>       0.00694444 </v>
   <v>       0.00694444 </v>
   <v>       0.00694444 </v>
   <v>       0.00347222 </v>
   <v>       0.00694444 </v>
   <v>       0.00694444 </v>
   <v>       0.00694444 </v>
   <v>       0.00347222 </v>
   <v>       0.00694444 </v>
   <v>       0.00694444 </v>
   <v>       0.00347222 </v>
   <v>       0.00694444 </v>
   <v>       0.00347222 </v>
   <v>       0.00347222 </v>
   <v>       0.00694444 </v>
   <v>       0.00694444 </v>
   <v>       0.00694444 </v>
   <v>       0.00694444 </v>
   <v>       0.00694444 </v>
   <v>       0.00694444 </v>
   <v>       0.00694444 </v>
   <v>       0.00347222 </v>
   <v>       0.00694444 </v>
   <v>       0.00694444 </v>
   <v>       0.00694444 </v>
   <v>       0.00694444 </v>
   <v>       0.00694444 </v>
   <v>       0.00694444 </v>
   <v>       0.00347222 </v>
   <v>       0.00694444 </v>
   <v>       0.00694444 </v>
   <v>       0.00694444 </v>
   <v>       0.00694444 </v>
   <v>       0.00694444 </v>
   <v>       0.00347222 </v>
   <v>       0.00694444 </v>
   <v>       0.00694444 </v>
   <v>       0.00694444 </v>
   <v>       0.00694444 </v>
   <v>       0.00347222 </v>
   <v>       0.00694444 </v>
   <v>       0.00694444 </v>
   <v>       0.00694444 </v>
   <v>       0.00347222 </v>
   <v>       0.00694444 </v>
   <v>       0.00694444 </v>
   <v>       0.00347222 </v>
   <v>       0.00694444 </v>
   <v>       0.00347222 </v>
   <v>       0.00347222 </v>
   <v>       0.00694444 </v>
   <v>       0.00694444 </v>
   <v>       0.00694444 </v>
   <v>       0.00694444 </v>
   <v>       0.00694444 </v>
   <v>       0.00694444 </v>
   <v>       0.00694444 </v>
   <v>       0.00347222 </v>
   <v>       0.00694444 </v>
   <v>       0.00694444 </v>
   <v>       0.00694444 </v>
   <v>       0.00694444 </v>
   <v>       0.00694444 </v>
   <v>       0.00694444 </v>
   <v>       0.00347222 </v>
   <v>       0.00694444 </v>
   <v>       0.00694444 </v>
   <v>       0.00694444 </v>
   <v>       0.00694444 </v>
   <v>       0.00694444 </v>
   <v>       0.00347222 </v>
   <v>       0.00694444 </v>
   <v>       0.00694444 </v>
   <v>       0.00694444 </v>
   <v>       0.00694444 </v>
   <v>       0.00347222 </v>
   <v>       0.00694444 </v>
   <v>       0.00694444 </v>
   <v>       0.00694444 </v>
   <v>       0.00347222 </v>
   <v>       0.00694444 </v>
   <v>       0.00694444 </v>
   <v>       0.00347222 </v>
   <v>       0.00694444 </v>
   <v>       0.00347222 </v>
  </varray>
 </kpoints>
 <parameters>
  <separator name="general" >
   <i type="string" name="SYSTEM">routine with relax: pwdword</i>
   <i type="logical" name="LCOMPAT"> F  </i>
  </separator>
  <separator name="electronic" >
   <i type="string" name="PREC">acc</i>
   <i name="ENMAX">    600.00000000</i>
   <i name="ENAUG">    535.51400000</i>
   <i name="EDIFF">      0.00000000</i>
   <i type="int" name="IALGO">    58</i>
   <i type="int" name="IWAVPR">    10</i>
   <i type="int" name="NBANDS">    60</i>
   <i type="int" name="NBANDSLOW">    -1</i>
   <i type="int" name="NBANDSHIGH">    -1</i>
   <i name="NELECT">     98.00000000</i>
   <i type="int" name="TURBO">     0</i>
   <i type="int" name="IRESTART">     0</i>
   <i type="int" name="NREBOOT">     0</i>
   <i type="int" name="NMIN">     0</i>
   <i name="EREF">      0.00000000</i>
   <separator name="electronic smearing" >
    <i type="int" name="ISMEAR">     0</i>
    <i name="SIGMA">      0.02000000</i>
    <i name="KSPACING">      0.50000000</i>
    <i type="logical" name="KGAMMA"> T  </i>
    <i type="logical" name="KBLOWUP"> F  </i>
   </separator>
   <separator name="electronic projectors" >
    <i type="logical" name="LREAL"> F  </i>
    <v name="ROPT">      0.00000000      0.00000000      0.00000000</v>
    <i type="int" name="LMAXPAW">  -100</i>
    <i type="int" name="LMAXMIX">     2</i>
    <i type="logical" name="NLSPLINE"> F  </i>
   </separator>
   <separator name="electronic startup" >
    <i type="int" name="ISTART">     0</i>
    <i type="int" name="ICHARG">     2</i>
    <i type="int" name="INIWAV">     1</i>
   </separator>
   <separator name="electronic spin" >
    <i type="int" name="ISPIN">     1</i>
    <i type="logical" name="LNONCOLLINEAR"> F  </i>
    <v name="MAGMOM">      1.00000000      1.00000000      1.00000000      1.00000000      1.00000000      1.00000000      1.00000000      1.00000000      1.00000000      1.00000000</v>
    <i name="NUPDOWN">     -1.00000000</i>
    <i type="logical" name="LSORBIT"> F  </i>
    <v name="SAXIS">      0.00000000      0.00000000      1.00000000</v>
    <i type="logical" name="LSPIRAL"> F  </i>
    <v name="QSPIRAL">      0.00000000      0.00000000      0.00000000</v>
    <i type="logical" name="LZEROZ"> F  </i>
   </separator>
   <separator name="electronic exchange-correlation" >
    <i type="logical" name="LASPH"> T  </i>
    <i type="logical" name="LMETAGGA"> F  </i>
   </separator>
   <separator name="electronic convergence" >
    <i type="int" name="NELM">   100</i>
    <i type="int" name="NELMDL">    -5</i>
    <i type="int" name="NELMIN">     6</i>
    <i name="ENINI">    600.00000000</i>
    <separator name="electronic convergence detail" >
     <i type="logical" name="LDIAG"> T  </i>
     <i type="logical" name="LSUBROT"> F  </i>
     <i name="WEIMIN">      0.00000000</i>
     <i name="EBREAK">      0.00000000</i>
     <i name="DEPER">      0.30000000</i>
     <i type="int" name="NRMM">     4</i>
     <i name="TIME">      0.40000000</i>
    </separator>
   </separator>
   <separator name="electronic mixer" >
    <i name="AMIX">      0.40000000</i>
    <i name="BMIX">      1.00000000</i>
    <i name="AMIN">      0.10000000</i>
    <i name="AMIX_MAG">      1.60000000</i>
    <i name="BMIX_MAG">      1.00000000</i>
    <separator name="electronic mixer details" >
     <i type="int" name="IMIX">     4</i>
     <i type="logical" name="MIXFIRST"> F  </i>
     <i type="int" name="MAXMIX">   -45</i>
     <i name="WC">    100.00000000</i>
     <i type="int" name="INIMIX">     1</i>
     <i type="int" name="MIXPRE">     1</i>
     <i type="int" name="MREMOVE">     5</i>
    </separator>
   </separator>
   <separator name="electronic dipolcorrection" >
    <i type="logical" name="LDIPOL"> F  </i>
    <i type="logical" name="LMONO"> F  </i>
    <i type="int" name="IDIPOL">     0</i>
    <i name="EPSILON">      1.00000000</i>
    <v name="DIPOL">   -100.00000000   -100.00000000   -100.00000000</v>
    <i name="EFIELD">      0.00000000</i>
   </separator>
  </separator>
  <separator name="grids" >
   <i type="int" name="NGX">    48</i>
   <i type="int" name="NGY">    48</i>
   <i type="int" name="NGZ">    48</i>
   <i type="int" name="NGXF">    96</i>
   <i type="int" name="NGYF">    96</i>
   <i type="int" name="NGZF">    96</i>
   <i type="logical" name="ADDGRID"> T  </i>
  </separator>
  <separator name="ionic" >
   <i type="int" name="NSW">     0</i>
   <i type="int" name="IBRION">    -1</i>
   <i type="int" name="MDALGO">     0</i>
   <i type="int" name="ISIF">    -1</i>
   <i name="PSTRESS">      0.00000000</i>
   <i name="EDIFFG">      0.00000001</i>
   <i type="int" name="NFREE">     0</i>
   <i name="POTIM">      0.50000000</i>
   <i name="SMASS">     -3.00000000</i>
   <i name="SCALEE">      1.00000000</i>
  </separator>
  <separator name="ionic md" >
   <i name="TEBEG">      0.00010000</i>
   <i name="TEEND">      0.00010000</i>
   <i type="int" name="NBLOCK">     1</i>
   <i type="int" name="KBLOCK">     1</i>
   <i type="int" name="NPACO">   256</i>
   <i name="APACO">     16.00000000</i>
  </separator>
  <separator name="symmetry" >
   <i type="int" name="ISYM">     2</i>
   <i name="SYMPREC">      0.00001000</i>
  </separator>
  <separator name="dos" >
   <i type="int" name="LORBIT">     0</i>
   <v name="RWIGS">     -1.00000000     -1.00000000     -1.00000000</v>
   <i type="int" name="NEDOS">   301</i>
   <i name="EMIN">     10.00000000</i>
   <i name="EMAX">    -10.00000000</i>
   <i name="EFERMI">      0.00000000</i>
  </separator>
  <separator name="writing" >
   <i type="int" name="NWRITE">     2</i>
   <i type="logical" name="LWAVE"> T  </i>
   <i type="logical" name="LDOWNSAMPLE"> F  </i>
   <i type="logical" name="LCHARG"> T  </i>
   <i type="logical" name="LPARD"> F  </i>
   <i type="logical" name="LVTOT"> F  </i>
   <i type="logical" name="LVHAR"> F  </i>
   <i type="logical" name="LELF"> F  </i>
   <i type="logical" name="LOPTICS"> F  </i>
   <v name="STM">      0.00000000      0.00000000      0.00000000      0.00000000      0.00000000      0.00000000      0.00000000</v>
  </separator>
  <separator name="performance" >
   <i type="int" name="NPAR">     6</i>
   <i type="int" name="NSIM">     4</i>
   <i type="int" name="NBLK">    -1</i>
   <i type="logical" name="LPLANE"> T  </i>
   <i type="logical" name="LSCALAPACK"> T  </i>
   <i type="logical" name="LSCAAWARE"> F  </i>
   <i type="logical" name="LSCALU"> F  </i>
   <i type="logical" name="LASYNC"> F  </i>
   <i type="logical" name="LORBITALREAL"> F  </i>
  </separator>
  <separator name="miscellaneous" >
   <i type="int" name="IDIOT">     3</i>
   <i type="int" name="PHON_NSTRUCT">    -1</i>
   <i type="logical" name="LMUSIC"> F  </i>
   <v name="POMASS">     10.81100000     95.94000000     28.08500000</v>
   <v name="DARWINR">      0.00000000      0.00000000      0.00000000</v>
   <v name="DARWINV">      1.00000000      1.00000000      1.00000000</v>
   <i type="logical" name="LCORR"> T  </i>
  </separator>
  <i type="logical" name="GGA_COMPAT"> T  </i>
  <i type="logical" name="LBERRY"> F  </i>
  <i type="int" name="ICORELEVEL">     0</i>
  <i type="logical" name="LDAU"> F  </i>
  <i type="int" name="I_CONSTRAINED_M">     0</i>
  <separator name="electronic exchange-correlation" >
   <i type="string" name="GGA">--</i>
   <i type="int" name="VOSKOWN">     0</i>
   <i type="logical" name="LHFCALC"> F  </i>
   <i type="string" name="PRECFOCK"></i>
   <i type="logical" name="LSYMGRAD"> F  </i>
   <i type="logical" name="LHFONE"> F  </i>
   <i type="logical" name="LRHFCALC"> F  </i>
   <i type="logical" name="LTHOMAS"> F  </i>
   <i type="logical" name="LMODELHF"> F  </i>
   <i type="logical" name="LFOCKACE"> F  </i>
   <i name="ENCUT4O">     -1.00000000</i>
   <i type="int" name="EXXOEP">     0</i>
   <i type="int" name="FOURORBIT">     0</i>
   <i name="AEXX">      0.00000000</i>
   <i name="HFALPHA">      0.00000000</i>
   <i name="MCALPHA">      0.00000000</i>
   <i name="ALDAX">      1.00000000</i>
   <i name="AGGAX">      1.00000000</i>
   <i name="ALDAC">      1.00000000</i>
   <i name="AGGAC">      1.00000000</i>
   <i type="int" name="NKREDX">     1</i>
   <i type="int" name="NKREDY">     1</i>
   <i type="int" name="NKREDZ">     1</i>
   <i type="logical" name="SHIFTRED"> F  </i>
   <i type="logical" name="ODDONLY"> F  </i>
   <i type="logical" name="EVENONLY"> F  </i>
   <i type="int" name="LMAXFOCK">     0</i>
   <i type="int" name="NMAXFOCKAE">     0</i>
   <i type="logical" name="LFOCKAEDFT"> F  </i>
   <i name="HFSCREEN">      0.00000000</i>
   <i name="HFSCREENC">      0.00000000</i>
   <i type="int" name="NBANDSGWLOW">     0</i>
  </separator>
  <separator name="vdW DFT" >
   <i type="logical" name="LUSE_VDW"> F  </i>
   <i name="Zab_VDW">     -0.84910000</i>
   <i name="PARAM1">      0.12340000</i>
   <i name="PARAM2">      1.00000000</i>
   <i name="PARAM3">      0.00000000</i>
  </separator>
  <separator name="model GW" >
   <i type="int" name="MODEL_GW">     0</i>
   <i name="MODEL_EPS0">      7.87705809</i>
   <i name="MODEL_ALPHA">      1.00000000</i>
  </separator>
  <separator name="linear response parameters" >
   <i type="logical" name="LEPSILON"> F  </i>
   <i type="logical" name="LRPA"> F  </i>
   <i type="logical" name="LNABLA"> F  </i>
   <i type="logical" name="LVEL"> F  </i>
   <i type="int" name="KINTER">     0</i>
   <i name="CSHIFT">      0.10000000</i>
   <i name="OMEGAMAX">     -1.00000000</i>
   <i name="DEG_THRESHOLD">      0.00200000</i>
   <i name="RTIME">     -0.10000000</i>
   <i name="WPLASMAI">      0.00000000</i>
   <v name="DFIELD">      0.00000000      0.00000000      0.00000000</v>
   <v name="WPLASMA">      0.00000000      0.00000000      0.00000000      0.00000000      0.00000000      0.00000000      0.00000000      0.00000000      0.00000000</v>
  </separator>
  <separator name="orbital magnetization" >
   <i type="logical" name="NUCIND"> F  </i>
   <v name="MAGPOS">      0.00000000      0.00000000      0.00000000</v>
   <i type="logical" name="LNICSALL"> T  </i>
   <i type="logical" name="ORBITALMAG"> F  </i>
   <i type="logical" name="LMAGBLOCH"> F  </i>
   <i type="logical" name="LCHIMAG"> F  </i>
   <i type="logical" name="LGAUGE"> T  </i>
   <i type="int" name="MAGATOM">     0</i>
   <v name="MAGDIPOL">      0.00000000      0.00000000      0.00000000</v>
   <v name="AVECCONST">      0.00000000      0.00000000      0.00000000</v>
  </separator>
  <separator name="response functions" >
   <i type="logical" name="LFINITE_TEMPERATURE"> F  </i>
   <i type="logical" name="LADDER"> F  </i>
   <i type="logical" name="LRPAFORCE"> F  </i>
   <i type="logical" name="LFXC"> F  </i>
   <i type="logical" name="LHARTREE"> T  </i>
   <i type="int" name="IBSE">     0</i>
   <v type="int" name="KPOINT">    -1     0     0     0</v>
   <i type="logical" name="LTCTC"> F  </i>
   <i type="logical" name="LTCTE"> F  </i>
   <i type="logical" name="LTETE"> F  </i>
   <i type="logical" name="LTRIPLET"> F  </i>
   <i type="logical" name="LFXCEPS"> F  </i>
   <i type="logical" name="LFXHEG"> F  </i>
   <i type="int" name="NATURALO">     2</i>
   <i type="logical" name="LHOLEGF"> F  </i>
   <i type="logical" name="L2ORDER"> F  </i>
   <i type="logical" name="LDMP1"> F  </i>
   <i type="logical" name="LMP2LT"> F  </i>
   <i type="logical" name="LSMP2LT"> F  </i>
   <i type="logical" name="LGWLF"> F  </i>
   <i name="ENCUTGW">     -2.00000000</i>
   <i name="ENCUTGWSOFT">     -2.00000000</i>
   <i name="ENCUTLF">     -1.00000000</i>
   <i type="logical" name="LESF_SPLINES"> F  </i>
   <i type="int" name="LMAXMP2">    -1</i>
   <i name="SCISSOR">      0.00000000</i>
   <i type="int" name="NOMEGA">     0</i>
   <i type="int" name="NOMEGAR">     0</i>
   <i type="int" name="NBANDSGW">    -1</i>
   <i type="int" name="NBANDSO">    -1</i>
   <i type="int" name="NBANDSV">    -1</i>
   <i type="int" name="NELM">   100</i>
   <i type="int" name="NELMHF">     1</i>
   <i type="int" name="DIM">     3</i>
   <i type="int" name="IESPILON">     4</i>
   <i type="int" name="ANTIRES">     0</i>
   <i name="OMEGAMAX">    -30.00000000</i>
   <i name="OMEGAMIN">    -30.00000000</i>
   <i name="OMEGATL">   -200.00000000</i>
   <i type="int" name="OMEGAGRID">     0</i>
   <i name="CSHIFT">     -0.10000000</i>
   <i type="logical" name="LSELFENERGY"> F  </i>
   <i type="logical" name="LSPECTRAL"> F  </i>
   <i type="logical" name="LSPECTRALGW"> F  </i>
   <i type="logical" name="LSINGLES"> F  </i>
   <i type="logical" name="LFERMIGW"> F  </i>
   <i type="logical" name="ODDONLYGW"> F  </i>
   <i type="logical" name="EVENONLYGW"> F  </i>
   <i type="int" name="NKREDLFX">     1</i>
   <i type="int" name="NKREDLFY">     1</i>
   <i type="int" name="NKREDLFZ">     1</i>
   <i type="int" name="MAXMEM">  2800</i>
   <i type="int" name="TELESCOPE">     0</i>
   <i type="int" name="NTAUPAR">    -1</i>
   <i type="int" name="NOMEGAPAR">    -1</i>
   <i name="DAMP_NEWTON">      0.80000001</i>
   <i name="LAMBDA">      1.00000000</i>
  </separator>
  <separator name="External order field" >
   <i name="OFIELD_KAPPA">      0.00000000</i>
   <v name="OFIELD_K">      0.00000000      0.00000000      0.00000000</v>
   <i name="OFIELD_Q6_NEAR">      0.00000000</i>
   <i name="OFIELD_Q6_FAR">      0.00000000</i>
   <i name="OFIELD_A">      0.00000000</i>
  </separator>
 </parameters>
 <atominfo>
  <atoms>      10 </atoms>
  <types>       3 </types>
  <array name="atoms" >
   <dimension dim="1">ion</dimension>
   <field type="string">element</field>
   <field type="int">atomtype</field>
   <set>
    <rc><c>B </c><c>   1</c></rc>
    <rc><c>B </c><c>   1</c></rc>
    <rc><c>Mo</c><c>   2</c></rc>
    <rc><c>Mo</c><c>   2</c></rc>
    <rc><c>Mo</c><c>   2</c></rc>
    <rc><c>Mo</c><c>   2</c></rc>
    <rc><c>Mo</c><c>   2</c></rc>
    <rc><c>Mo</c><c>   2</c></rc>
    <rc><c>Si</c><c>   3</c></rc>
    <rc><c>Si</c><c>   3</c></rc>
   </set>
  </array>
  <array name="atomtypes" >
   <dimension dim="1">type</dimension>
   <field type="int">atomspertype</field>
   <field type="string">element</field>
   <field>mass</field>
   <field>valence</field>
   <field type="string">pseudopotential</field>
   <set>
    <rc><c>   2</c><c>B </c><c>     10.81100000</c><c>      3.00000000</c><c>  PAW_PBE B 06Sep2000                   </c></rc>
    <rc><c>   6</c><c>Mo</c><c>     95.94000000</c><c>     14.00000000</c><c>  PAW_PBE Mo_sv 02Feb2006               </c></rc>
    <rc><c>   2</c><c>Si</c><c>     28.08500000</c><c>      4.00000000</c><c>  PAW_PBE Si 05Jan2001                  </c></rc>
   </set>
  </array>
 </atominfo>
 <structure name="initialpos" >
  <crystal>
   <varray name="basis" >
    <v>       4.93030578       0.00000000      -2.89386573 </v>
    <v>      -1.61637975       4.65781404      -2.89386573 </v>
    <v>       0.00000000       0.00000000       5.71685000 </v>
   </varray>
   <i name="volume">    131.28430142 </i>
   <varray name="rec_basis" >
    <v>       0.20282718       0.07038618       0.00000000 </v>
    <v>       0.00000000       0.21469299       0.00000000 </v>
    <v>       0.10267098       0.14430689       0.17492150 </v>
   </varray>
  </crystal>
  <varray name="positions" >
   <v>       0.00000000       0.00000000       0.00000000 </v>
   <v>       0.50000000       0.50000000       0.00000000 </v>
   <v>       0.25000000       0.25000000       0.00000000 </v>
   <v>       0.24333000       0.25667000       0.50000000 </v>
   <v>       0.75000000       0.75000000       0.00000000 </v>
   <v>       0.75667000       0.74333000       0.50000000 </v>
   <v>       0.25667000       0.75667000       0.01334000 </v>
   <v>       0.74333000       0.24333000       0.98666000 </v>
   <v>       0.75000000       0.25000000       0.50000000 </v>
   <v>       0.25000000       0.75000000       0.50000000 </v>
  </varray>
 </structure>
 <calculation>
  <scstep>
   <time name="total">   22.64   22.87</time>
   <energy>
    <i name="alphaZ">    636.36280005 </i>
    <i name="ewald">  -9508.98969465 </i>
    <i name="hartreedc">  -2360.87333783 </i>
    <i name="XCdc">    470.78602291 </i>
    <i name="pawpsdc">   9166.97638771 </i>
    <i name="pawaedc">  -9126.13493418 </i>
    <i name="eentropy">     -0.00056190 </i>
    <i name="bandstr">    303.65530409 </i>
    <i name="atom">  11522.16744521 </i>
    <i name="e_fr_energy">   1103.94943142 </i>
    <i name="e_wo_entrp">   1103.94999331 </i>
    <i name="e_0_energy">   1103.94971236 </i>
   </energy>
  </scstep>
  <scstep>
   <time name="total">   22.94   23.17</time>
   <energy>
    <i name="e_fr_energy">   -181.62631794 </i>
    <i name="e_wo_entrp">   -181.62506907 </i>
    <i name="e_0_energy">   -181.62569351 </i>
   </energy>
  </scstep>
  <scstep>
   <time name="total">   25.17   25.43</time>
   <energy>
    <i name="e_fr_energy">   -232.73761023 </i>
    <i name="e_wo_entrp">   -232.73626886 </i>
    <i name="e_0_energy">   -232.73693955 </i>
   </energy>
  </scstep>
  <scstep>
   <time name="total">   24.21   24.47</time>
   <energy>
    <i name="e_fr_energy">   -233.53178906 </i>
    <i name="e_wo_entrp">   -233.53050054 </i>
    <i name="e_0_energy">   -233.53114480 </i>
   </energy>
  </scstep>
  <scstep>
   <time name="total">   27.25   27.52</time>
   <energy>
    <i name="e_fr_energy">   -233.54898370 </i>
    <i name="e_wo_entrp">   -233.54769465 </i>
    <i name="e_0_energy">   -233.54833917 </i>
   </energy>
  </scstep>
  <scstep>
   <time name="total">   25.96   26.19</time>
   <energy>
    <i name="e_fr_energy">   -158.95984141 </i>
    <i name="e_wo_entrp">   -158.95847197 </i>
    <i name="e_0_energy">   -158.95915669 </i>
   </energy>
  </scstep>
  <scstep>
   <time name="total">   26.08   26.31</time>
   <energy>
    <i name="e_fr_energy">   -180.05874978 </i>
    <i name="e_wo_entrp">   -180.05731945 </i>
    <i name="e_0_energy">   -180.05803462 </i>
   </energy>
  </scstep>
  <scstep>
   <time name="total">   25.75   25.98</time>
   <energy>
    <i name="e_fr_energy">   -183.78799139 </i>
    <i name="e_wo_entrp">   -183.78632247 </i>
    <i name="e_0_energy">   -183.78715693 </i>
   </energy>
  </scstep>
  <scstep>
   <time name="total">   25.66   25.90</time>
   <energy>
    <i name="e_fr_energy">   -184.77626383 </i>
    <i name="e_wo_entrp">   -184.77475161 </i>
    <i name="e_0_energy">   -184.77550772 </i>
   </energy>
  </scstep>
  <scstep>
   <time name="total">   25.61   25.84</time>
   <energy>
    <i name="e_fr_energy">   -185.12456049 </i>
    <i name="e_wo_entrp">   -185.12301837 </i>
    <i name="e_0_energy">   -185.12378943 </i>
   </energy>
  </scstep>
  <scstep>
   <time name="total">   25.81   26.05</time>
   <energy>
    <i name="e_fr_energy">   -185.23285398 </i>
    <i name="e_wo_entrp">   -185.23121506 </i>
    <i name="e_0_energy">   -185.23203452 </i>
   </energy>
  </scstep>
  <scstep>
   <time name="total">   25.71   25.94</time>
   <energy>
    <i name="e_fr_energy">   -185.27356150 </i>
    <i name="e_wo_entrp">   -185.27194614 </i>
    <i name="e_0_energy">   -185.27275382 </i>
   </energy>
  </scstep>
  <scstep>
   <time name="total">   25.80   26.03</time>
   <energy>
    <i name="e_fr_energy">   -185.28933774 </i>
    <i name="e_wo_entrp">   -185.28776065 </i>
    <i name="e_0_energy">   -185.28854920 </i>
   </energy>
  </scstep>
  <scstep>
   <time name="total">   25.69   25.91</time>
   <energy>
    <i name="e_fr_energy">   -185.29914271 </i>
    <i name="e_wo_entrp">   -185.29757687 </i>
    <i name="e_0_energy">   -185.29835979 </i>
   </energy>
  </scstep>
  <scstep>
   <time name="total">   25.77   25.99</time>
   <energy>
    <i name="e_fr_energy">   -185.30368747 </i>
    <i name="e_wo_entrp">   -185.30211431 </i>
    <i name="e_0_energy">   -185.30290089 </i>
   </energy>
  </scstep>
  <scstep>
   <time name="total">   25.77   26.00</time>
   <energy>
    <i name="e_fr_energy">   -185.30561621 </i>
    <i name="e_wo_entrp">   -185.30403788 </i>
    <i name="e_0_energy">   -185.30482704 </i>
   </energy>
  </scstep>
  <scstep>
   <time name="total">   25.70   25.92</time>
   <energy>
    <i name="e_fr_energy">   -185.30629295 </i>
    <i name="e_wo_entrp">   -185.30471214 </i>
    <i name="e_0_energy">   -185.30550254 </i>
   </energy>
  </scstep>
  <scstep>
   <time name="total">   25.71   25.95</time>
   <energy>
    <i name="e_fr_energy">   -185.30663494 </i>
    <i name="e_wo_entrp">   -185.30505598 </i>
    <i name="e_0_energy">   -185.30584546 </i>
   </energy>
  </scstep>
  <scstep>
   <time name="total">   25.65   25.88</time>
   <energy>
    <i name="e_fr_energy">   -185.30678750 </i>
    <i name="e_wo_entrp">   -185.30521111 </i>
    <i name="e_0_energy">   -185.30599931 </i>
   </energy>
  </scstep>
  <scstep>
   <time name="total">   25.73   25.97</time>
   <energy>
    <i name="e_fr_energy">   -185.30684481 </i>
    <i name="e_wo_entrp">   -185.30527120 </i>
    <i name="e_0_energy">   -185.30605801 </i>
   </energy>
  </scstep>
  <scstep>
   <time name="total">   25.72   25.95</time>
   <energy>
    <i name="e_fr_energy">   -185.30687063 </i>
    <i name="e_wo_entrp">   -185.30529904 </i>
    <i name="e_0_energy">   -185.30608483 </i>
   </energy>
  </scstep>
  <scstep>
   <time name="total">   25.75   25.98</time>
   <energy>
    <i name="e_fr_energy">   -185.30688321 </i>
    <i name="e_wo_entrp">   -185.30531287 </i>
    <i name="e_0_energy">   -185.30609804 </i>
   </energy>
  </scstep>
  <scstep>
   <time name="total">   25.62   25.86</time>
   <energy>
    <i name="e_fr_energy">   -185.30688833 </i>
    <i name="e_wo_entrp">   -185.30531858 </i>
    <i name="e_0_energy">   -185.30610345 </i>
   </energy>
  </scstep>
  <scstep>
   <time name="total">   25.67   25.90</time>
   <energy>
    <i name="e_fr_energy">   -185.30689078 </i>
    <i name="e_wo_entrp">   -185.30532129 </i>
    <i name="e_0_energy">   -185.30610603 </i>
   </energy>
  </scstep>
  <scstep>
   <time name="total">   25.72   25.95</time>
   <energy>
    <i name="e_fr_energy">   -185.30689194 </i>
    <i name="e_wo_entrp">   -185.30532238 </i>
    <i name="e_0_energy">   -185.30610716 </i>
   </energy>
  </scstep>
  <scstep>
   <time name="total">   25.63   25.86</time>
   <energy>
    <i name="e_fr_energy">   -185.30689233 </i>
    <i name="e_wo_entrp">   -185.30532264 </i>
    <i name="e_0_energy">   -185.30610748 </i>
   </energy>
  </scstep>
  <scstep>
   <time name="total">   25.61   25.85</time>
   <energy>
    <i name="e_fr_energy">   -185.30689252 </i>
    <i name="e_wo_entrp">   -185.30532267 </i>
    <i name="e_0_energy">   -185.30610760 </i>
   </energy>
  </scstep>
  <scstep>
   <time name="total">   25.69   25.92</time>
   <energy>
    <i name="e_fr_energy">   -185.30689261 </i>
    <i name="e_wo_entrp">   -185.30532252 </i>
    <i name="e_0_energy">   -185.30610756 </i>
   </energy>
  </scstep>
  <scstep>
   <time name="total">   25.71   25.94</time>
   <energy>
    <i name="e_fr_energy">   -185.30689266 </i>
    <i name="e_wo_entrp">   -185.30532257 </i>
    <i name="e_0_energy">   -185.30610761 </i>
   </energy>
  </scstep>
  <scstep>
   <time name="total">   25.74   25.97</time>
   <energy>
    <i name="e_fr_energy">   -185.30689267 </i>
    <i name="e_wo_entrp">   -185.30532258 </i>
    <i name="e_0_energy">   -185.30610762 </i>
   </energy>
  </scstep>
  <scstep>
   <time name="total">   25.12   25.35</time>
   <energy>
    <i name="e_fr_energy">   -185.30689267 </i>
    <i name="e_wo_entrp">   -185.30532258 </i>
    <i name="e_0_energy">   -185.30610763 </i>
   </energy>
  </scstep>
  <scstep>
   <time name="total">   45.14   45.54</time>
   <energy>
    <i name="e_fr_energy">   -185.30689268 </i>
    <i name="e_wo_entrp">   -185.30532254 </i>
    <i name="e_0_energy">   -185.30610761 </i>
   </energy>
  </scstep>
  <scstep>
   <time name="total">   25.69   25.91</time>
   <energy>
    <i name="e_fr_energy">   -185.30689262 </i>
    <i name="e_wo_entrp">   -185.30532248 </i>
    <i name="e_0_energy">   -185.30610755 </i>
   </energy>
  </scstep>
  <scstep>
   <time name="total">   25.77   26.00</time>
   <energy>
    <i name="e_fr_energy">   -185.30689266 </i>
    <i name="e_wo_entrp">   -185.30532253 </i>
    <i name="e_0_energy">   -185.30610760 </i>
   </energy>
  </scstep>
  <scstep>
   <time name="total">   25.83   26.06</time>
   <energy>
    <i name="e_fr_energy">   -185.30689269 </i>
    <i name="e_wo_entrp">   -185.30532257 </i>
    <i name="e_0_energy">   -185.30610763 </i>
   </energy>
  </scstep>
  <scstep>
   <time name="total">   25.59   25.82</time>
   <energy>
    <i name="e_fr_energy">   -185.30689269 </i>
    <i name="e_wo_entrp">   -185.30532257 </i>
    <i name="e_0_energy">   -185.30610763 </i>
   </energy>
  </scstep>
  <scstep>
   <time name="total">   25.66   25.88</time>
   <energy>
    <i name="e_fr_energy">   -185.30689269 </i>
    <i name="e_wo_entrp">   -185.30532258 </i>
    <i name="e_0_energy">   -185.30610764 </i>
   </energy>
  </scstep>
  <scstep>
   <time name="total">   29.31   29.58</time>
   <energy>
    <i name="alphaZ">    636.36280005 </i>
    <i name="ewald">  -9508.98969465 </i>
    <i name="hartreedc">  -2233.72759100 </i>
    <i name="XCdc">    479.77485816 </i>
    <i name="pawpsdc">  12818.16036214 </i>
    <i name="pawaedc"> -12798.65888539 </i>
    <i name="eentropy">     -0.00157011 </i>
    <i name="bandstr">  -1100.39461710 </i>
    <i name="atom">  11522.16744521 </i>
    <i name="e_fr_energy">   -185.30689269 </i>
    <i name="e_wo_entrp">   -185.30532258 </i>
    <i name="e_0_energy">   -185.30610763 </i>
   </energy>
  </scstep>
  <structure>
   <crystal>
    <varray name="basis" >
     <v>       4.93030578       0.00000000      -2.89386573 </v>
     <v>      -1.61637975       4.65781404      -2.89386573 </v>
     <v>       0.00000000       0.00000000       5.71685000 </v>
    </varray>
    <i name="volume">    131.28430142 </i>
    <varray name="rec_basis" >
     <v>       0.20282718       0.07038618       0.00000000 </v>
     <v>       0.00000000       0.21469299       0.00000000 </v>
     <v>       0.10267098       0.14430689       0.17492150 </v>
    </varray>
   </crystal>
   <varray name="positions" >
    <v>       0.00000000       0.00000000       0.00000000 </v>
    <v>       0.50000000       0.50000000       0.00000000 </v>
    <v>       0.25000000       0.25000000       0.00000000 </v>
    <v>       0.24333000       0.25667000       0.50000000 </v>
    <v>       0.75000000       0.75000000       0.00000000 </v>
    <v>       0.75667000       0.74333000       0.50000000 </v>
    <v>       0.25667000       0.75667000       0.01334000 </v>
    <v>       0.74333000       0.24333000       0.98666000 </v>
    <v>       0.75000000       0.25000000       0.50000000 </v>
    <v>       0.25000000       0.75000000       0.50000000 </v>
   </varray>
  </structure>
  <varray name="forces" >
   <v>       0.00000000       0.00000000       0.00000000 </v>
   <v>       0.00000000       0.00000000       0.00000000 </v>
   <v>       0.00000000       0.00000000       0.00000000 </v>
   <v>       0.00000000       0.00000000       0.00000000 </v>
   <v>       0.00000000       0.00000000       0.00000000 </v>
   <v>       0.00000000       0.00000000       0.00000000 </v>
   <v>       0.00000000       0.00000000       0.00000000 </v>
   <v>       0.00000000       0.00000000       0.00000000 </v>
   <v>       0.00000000       0.00000000       0.00000000 </v>
   <v>       0.00000000       0.00000000       0.00000000 </v>
  </varray>
  <varray name="stress" >
   <v>       0.00000000       0.00000000       0.00000000 </v>
   <v>       0.00000000       0.00000000       0.00000000 </v>
   <v>       0.00000000       0.00000000       0.00000000 </v>
  </varray>
  <energy>
   <i name="e_fr_energy">   -185.30689269 </i>
   <i name="e_wo_entrp">   -185.30532258 </i>
   <i name="e_0_energy">   -185.30610763 </i>
  </energy>
  <time name="totalsc">  997.01 1006.12</time>
  <eigenvalues>
   <array>
    <dimension dim="1">band</dimension>
    <dimension dim="2">kpoint</dimension>
    <dimension dim="3">spin</dimension>
    <field>eigene</field>
    <field>occ</field>
    <set>
     <set comment="spin 1">
      <set comment="kpoint 1">
       <r>  -51.0394    1.0000 </r>
       <r>  -50.8787    1.0000 </r>
       <r>  -50.8786    1.0000 </r>
       <r>  -50.8707    1.0000 </r>
       <r>  -50.7961    1.0000 </r>
       <r>  -50.7936    1.0000 </r>
       <r>  -25.4093    1.0000 </r>
       <r>  -24.9150    1.0000 </r>
       <r>  -24.9150    1.0000 </r>
       <r>  -24.8991    1.0000 </r>
       <r>  -24.7164    1.0000 </r>
       <r>  -24.6831    1.0000 </r>
       <r>  -24.6831    1.0000 </r>
       <r>  -24.2057    1.0000 </r>
       <r>  -24.2057    1.0000 </r>
       <r>  -24.2027    1.0000 </r>
       <r>  -24.0276    1.0000 </r>
       <r>  -24.0119    1.0000 </r>
       <r>  -23.9561    1.0000 </r>
       <r>  -23.9561    1.0000 </r>
       <r>  -23.9499    1.0000 </r>
       <r>  -23.9110    1.0000 </r>
       <r>  -23.9110    1.0000 </r>
       <r>  -23.9025    1.0000 </r>
       <r>    0.2515    1.0000 </r>
       <r>    1.7953    1.0000 </r>
       <r>    2.6334    1.0000 </r>
       <r>    4.6674    1.0000 </r>
       <r>    4.7183    1.0000 </r>
       <r>    4.7183    1.0000 </r>
       <r>    7.0099    1.0000 </r>
       <r>    7.5046    1.0000 </r>
       <r>    7.5046    1.0000 </r>
       <r>    7.5057    1.0000 </r>
       <r>    7.7265    1.0000 </r>
       <r>    7.7824    1.0000 </r>
       <r>    9.0292    1.0000 </r>
       <r>    9.0292    1.0000 </r>
       <r>    9.0502    1.0000 </r>
       <r>   10.2353    1.0000 </r>
       <r>   10.2686    1.0000 </r>
       <r>   10.2686    1.0000 </r>
       <r>   10.3652    1.0000 </r>
       <r>   10.3652    1.0000 </r>
       <r>   10.5643    1.0000 </r>
       <r>   10.6064    1.0000 </r>
       <r>   10.6265    1.0000 </r>
       <r>   10.6265    1.0000 </r>
       <r>   12.1504    0.0000 </r>
       <r>   12.2325    0.0000 </r>
       <r>   12.2325    0.0000 </r>
       <r>   13.0541    0.0000 </r>
       <r>   13.0565    0.0000 </r>
       <r>   13.2527    0.0000 </r>
       <r>   13.3423    0.0000 </r>
       <r>   13.9161    0.0000 </r>
       <r>   13.9161    0.0000 </r>
       <r>   13.9370    0.0000 </r>
       <r>   14.5289    0.0000 </r>
       <r>   16.0526    0.0000 </r>
      </set>
      <set comment="kpoint 2">
       <r>  -51.0333    1.0000 </r>
       <r>  -50.8834    1.0000 </r>
       <r>  -50.8755    1.0000 </r>
       <r>  -50.8693    1.0000 </r>
       <r>  -50.7991    1.0000 </r>
       <r>  -50.7969    1.0000 </r>
       <r>  -25.3772    1.0000 </r>
       <r>  -24.9192    1.0000 </r>
       <r>  -24.8837    1.0000 </r>
       <r>  -24.8729    1.0000 </r>
       <r>  -24.7010    1.0000 </r>
       <r>  -24.6700    1.0000 </r>
       <r>  -24.6669    1.0000 </r>
       <r>  -24.2175    1.0000 </r>
       <r>  -24.2159    1.0000 </r>
       <r>  -24.1936    1.0000 </r>
       <r>  -24.0482    1.0000 </r>
       <r>  -24.0342    1.0000 </r>
       <r>  -23.9973    1.0000 </r>
       <r>  -23.9597    1.0000 </r>
       <r>  -23.9564    1.0000 </r>
       <r>  -23.9253    1.0000 </r>
       <r>  -23.9233    1.0000 </r>
       <r>  -23.9159    1.0000 </r>
       <r>    0.3899    1.0000 </r>
       <r>    1.8973    1.0000 </r>
       <r>    2.6985    1.0000 </r>
       <r>    4.4790    1.0000 </r>
       <r>    4.8370    1.0000 </r>
       <r>    4.8739    1.0000 </r>
       <r>    7.0320    1.0000 </r>
       <r>    7.4535    1.0000 </r>
       <r>    7.5831    1.0000 </r>
       <r>    7.5864    1.0000 </r>
       <r>    7.7207    1.0000 </r>
       <r>    7.7732    1.0000 </r>
       <r>    8.5581    1.0000 </r>
       <r>    8.8441    1.0000 </r>
       <r>    8.8524    1.0000 </r>
       <r>    9.8868    1.0000 </r>
       <r>   10.1111    1.0000 </r>
       <r>   10.1746    1.0000 </r>
       <r>   10.4136    1.0000 </r>
       <r>   10.4154    1.0000 </r>
       <r>   10.6133    1.0000 </r>
       <r>   10.6823    1.0000 </r>
       <r>   10.6995    1.0000 </r>
       <r>   10.9358    1.0000 </r>
       <r>   12.1992    0.0000 </r>
       <r>   12.2721    0.0000 </r>
       <r>   12.3556    0.0000 </r>
       <r>   12.5073    0.0000 </r>
       <r>   12.6118    0.0000 </r>
       <r>   13.0818    0.0000 </r>
       <r>   13.1716    0.0000 </r>
       <r>   13.8865    0.0000 </r>
       <r>   14.6064    0.0000 </r>
       <r>   14.6439    0.0000 </r>
       <r>   14.7115    0.0000 </r>
       <r>   15.2793    0.0000 </r>
      </set>
      <set comment="kpoint 3">
       <r>  -51.0158    1.0000 </r>
       <r>  -50.9007    1.0000 </r>
       <r>  -50.8663    1.0000 </r>
       <r>  -50.8617    1.0000 </r>
       <r>  -50.8075    1.0000 </r>
       <r>  -50.8062    1.0000 </r>
       <r>  -25.2898    1.0000 </r>
       <r>  -24.9438    1.0000 </r>
       <r>  -24.7953    1.0000 </r>
       <r>  -24.7894    1.0000 </r>
       <r>  -24.6565    1.0000 </r>
       <r>  -24.6298    1.0000 </r>
       <r>  -24.6225    1.0000 </r>
       <r>  -24.2534    1.0000 </r>
       <r>  -24.2524    1.0000 </r>
       <r>  -24.1622    1.0000 </r>
       <r>  -24.1213    1.0000 </r>
       <r>  -24.1152    1.0000 </r>
       <r>  -24.1127    1.0000 </r>
       <r>  -23.9663    1.0000 </r>
       <r>  -23.9661    1.0000 </r>
       <r>  -23.9534    1.0000 </r>
       <r>  -23.9483    1.0000 </r>
       <r>  -23.9407    1.0000 </r>
       <r>    0.7883    1.0000 </r>
       <r>    2.1872    1.0000 </r>
       <r>    2.8360    1.0000 </r>
       <r>    3.9292    1.0000 </r>
       <r>    5.2781    1.0000 </r>
       <r>    5.3263    1.0000 </r>
       <r>    6.9029    1.0000 </r>
       <r>    7.2561    1.0000 </r>
       <r>    7.6813    1.0000 </r>
       <r>    7.7304    1.0000 </r>
       <r>    7.7764    1.0000 </r>
       <r>    7.7873    1.0000 </r>
       <r>    8.0233    1.0000 </r>
       <r>    8.4996    1.0000 </r>
       <r>    8.5069    1.0000 </r>
       <r>    9.1259    1.0000 </r>
       <r>    9.6223    1.0000 </r>
       <r>    9.7163    1.0000 </r>
       <r>   10.1689    1.0000 </r>
       <r>   10.2249    1.0000 </r>
       <r>   10.9597    1.0000 </r>
       <r>   11.0179    1.0000 </r>
       <r>   11.0309    1.0000 </r>
       <r>   11.5026    1.0000 </r>
       <r>   11.6722    1.0000 </r>
       <r>   11.7663    1.0000 </r>
       <r>   12.4928    0.0000 </r>
       <r>   12.5879    0.0000 </r>
       <r>   12.6600    0.0000 </r>
       <r>   13.1204    0.0000 </r>
       <r>   13.1606    0.0000 </r>
       <r>   13.8867    0.0000 </r>
       <r>   14.4592    0.0000 </r>
       <r>   14.9563    0.0000 </r>
       <r>   15.1296    0.0000 </r>
       <r>   15.1417    0.0000 </r>
      </set>
      <set comment="kpoint 4">
       <r>  -50.9896    1.0000 </r>
       <r>  -50.9272    1.0000 </r>
       <r>  -50.8526    1.0000 </r>
       <r>  -50.8495    1.0000 </r>
       <r>  -50.8201    1.0000 </r>
       <r>  -50.8201    1.0000 </r>
       <r>  -25.1745    1.0000 </r>
       <r>  -24.9908    1.0000 </r>
       <r>  -24.6712    1.0000 </r>
       <r>  -24.6696    1.0000 </r>
       <r>  -24.5887    1.0000 </r>
       <r>  -24.5662    1.0000 </r>
       <r>  -24.5626    1.0000 </r>
       <r>  -24.3066    1.0000 </r>
       <r>  -24.3059    1.0000 </r>
       <r>  -24.2760    1.0000 </r>
       <r>  -24.2364    1.0000 </r>
       <r>  -24.2356    1.0000 </r>
       <r>  -24.1147    1.0000 </r>
       <r>  -24.0015    1.0000 </r>
       <r>  -23.9719    1.0000 </r>
       <r>  -23.9689    1.0000 </r>
       <r>  -23.9629    1.0000 </r>
       <r>  -23.9559    1.0000 </r>
       <r>    1.3977    1.0000 </r>
       <r>    2.6054    1.0000 </r>
       <r>    2.7604    1.0000 </r>
       <r>    3.3539    1.0000 </r>
       <r>    5.9633    1.0000 </r>
       <r>    6.0274    1.0000 </r>
       <r>    6.5402    1.0000 </r>
       <r>    6.8662    1.0000 </r>
       <r>    7.4609    1.0000 </r>
       <r>    7.5341    1.0000 </r>
       <r>    7.9220    1.0000 </r>
       <r>    7.9290    1.0000 </r>
       <r>    8.0278    1.0000 </r>
       <r>    8.2030    1.0000 </r>
       <r>    8.2220    1.0000 </r>
       <r>    8.5316    1.0000 </r>
       <r>    9.1701    1.0000 </r>
       <r>    9.1990    1.0000 </r>
       <r>    9.7803    1.0000 </r>
       <r>    9.8157    1.0000 </r>
       <r>   11.3482    1.0000 </r>
       <r>   11.3493    1.0000 </r>
       <r>   11.5503    1.0000 </r>
       <r>   11.6427    1.0000 </r>
       <r>   11.6601    1.0000 </r>
       <r>   11.9558    0.3611 </r>
       <r>   12.4562    0.0000 </r>
       <r>   12.5836    0.0000 </r>
       <r>   12.6467    0.0000 </r>
       <r>   12.9203    0.0000 </r>
       <r>   12.9655    0.0000 </r>
       <r>   13.4877    0.0000 </r>
       <r>   14.0278    0.0000 </r>
       <r>   14.7965    0.0000 </r>
       <r>   15.1467    0.0000 </r>
       <r>   15.3742    0.0000 </r>
      </set>
      <set comment="kpoint 5">
       <r>  -50.9584    1.0000 </r>
       <r>  -50.9584    1.0000 </r>
       <r>  -50.8364    1.0000 </r>
       <r>  -50.8364    1.0000 </r>
       <r>  -50.8348    1.0000 </r>
       <r>  -50.8348    1.0000 </r>
       <r>  -25.0674    1.0000 </r>
       <r>  -25.0674    1.0000 </r>
       <r>  -24.5804    1.0000 </r>
       <r>  -24.5804    1.0000 </r>
       <r>  -24.5546    1.0000 </r>
       <r>  -24.5546    1.0000 </r>
       <r>  -24.4408    1.0000 </r>
       <r>  -24.4408    1.0000 </r>
       <r>  -24.3359    1.0000 </r>
       <r>  -24.3359    1.0000 </r>
       <r>  -24.3151    1.0000 </r>
       <r>  -24.3151    1.0000 </r>
       <r>  -24.0583    1.0000 </r>
       <r>  -24.0583    1.0000 </r>
       <r>  -23.9706    1.0000 </r>
       <r>  -23.9706    1.0000 </r>
       <r>  -23.9651    1.0000 </r>
       <r>  -23.9651    1.0000 </r>
       <r>    2.1300    1.0000 </r>
       <r>    2.1300    1.0000 </r>
       <r>    3.0215    1.0000 </r>
       <r>    3.0215    1.0000 </r>
       <r>    6.4962    1.0000 </r>
       <r>    6.4962    1.0000 </r>
       <r>    6.7908    1.0000 </r>
       <r>    6.7908    1.0000 </r>
       <r>    6.8733    1.0000 </r>
       <r>    6.8733    1.0000 </r>
       <r>    8.0005    1.0000 </r>
       <r>    8.0005    1.0000 </r>
       <r>    8.0490    1.0000 </r>
       <r>    8.0490    1.0000 </r>
       <r>    8.1957    1.0000 </r>
       <r>    8.1957    1.0000 </r>
       <r>    9.3155    1.0000 </r>
       <r>    9.3155    1.0000 </r>
       <r>    9.3724    1.0000 </r>
       <r>    9.3725    1.0000 </r>
       <r>   11.5798    1.0000 </r>
       <r>   11.5798    1.0000 </r>
       <r>   11.6256    1.0000 </r>
       <r>   11.6256    1.0000 </r>
       <r>   12.2576    0.0000 </r>
       <r>   12.2576    0.0000 </r>
       <r>   12.4904    0.0000 </r>
       <r>   12.4904    0.0000 </r>
       <r>   12.5875    0.0000 </r>
       <r>   12.5875    0.0000 </r>
       <r>   12.7131    0.0000 </r>
       <r>   12.7131    0.0000 </r>
       <r>   14.3690    0.0000 </r>
       <r>   14.3690    0.0000 </r>
       <r>   15.3919    0.0000 </r>
       <r>   15.4197    0.0000 </r>
      </set>
      <set comment="kpoint 6">
       <r>  -51.0236    1.0000 </r>
       <r>  -50.8872    1.0000 </r>
       <r>  -50.8789    1.0000 </r>
       <r>  -50.8624    1.0000 </r>
       <r>  -50.8074    1.0000 </r>
       <r>  -50.7985    1.0000 </r>
       <r>  -25.3265    1.0000 </r>
       <r>  -24.9066    1.0000 </r>
       <r>  -24.8764    1.0000 </r>
       <r>  -24.8092    1.0000 </r>
       <r>  -24.6872    1.0000 </r>
       <r>  -24.6532    1.0000 </r>
       <r>  -24.6258    1.0000 </r>
       <r>  -24.2486    1.0000 </r>
       <r>  -24.2185    1.0000 </r>
       <r>  -24.1831    1.0000 </r>
       <r>  -24.1135    1.0000 </r>
       <r>  -24.0468    1.0000 </r>
       <r>  -24.0413    1.0000 </r>
       <r>  -23.9861    1.0000 </r>
       <r>  -23.9568    1.0000 </r>
       <r>  -23.9496    1.0000 </r>
       <r>  -23.9441    1.0000 </r>
       <r>  -23.9296    1.0000 </r>
       <r>    0.6125    1.0000 </r>
       <r>    2.0590    1.0000 </r>
       <r>    2.7945    1.0000 </r>
       <r>    4.2576    1.0000 </r>
       <r>    4.8979    1.0000 </r>
       <r>    5.1977    1.0000 </r>
       <r>    7.0383    1.0000 </r>
       <r>    7.4645    1.0000 </r>
       <r>    7.5178    1.0000 </r>
       <r>    7.5426    1.0000 </r>
       <r>    7.7841    1.0000 </r>
       <r>    7.8923    1.0000 </r>
       <r>    8.1955    1.0000 </r>
       <r>    8.3411    1.0000 </r>
       <r>    8.8099    1.0000 </r>
       <r>    9.6429    1.0000 </r>
       <r>    9.7237    1.0000 </r>
       <r>    9.8242    1.0000 </r>
       <r>   10.3099    1.0000 </r>
       <r>   10.3611    1.0000 </r>
       <r>   10.7546    1.0000 </r>
       <r>   10.8904    1.0000 </r>
       <r>   10.9034    1.0000 </r>
       <r>   11.2679    1.0000 </r>
       <r>   11.6836    1.0000 </r>
       <r>   12.1823    0.0000 </r>
       <r>   12.2153    0.0000 </r>
       <r>   12.3526    0.0000 </r>
       <r>   12.8191    0.0000 </r>
       <r>   13.1065    0.0000 </r>
       <r>   13.2669    0.0000 </r>
       <r>   14.2340    0.0000 </r>
       <r>   14.6779    0.0000 </r>
       <r>   14.8631    0.0000 </r>
       <r>   14.9859    0.0000 </r>
       <r>   15.0604    0.0000 </r>
      </set>
      <set comment="kpoint 7">
       <r>  -51.0034    1.0000 </r>
       <r>  -50.9059    1.0000 </r>
       <r>  -50.8732    1.0000 </r>
       <r>  -50.8499    1.0000 </r>
       <r>  -50.8203    1.0000 </r>
       <r>  -50.8060    1.0000 </r>
       <r>  -25.2275    1.0000 </r>
       <r>  -24.9303    1.0000 </r>
       <r>  -24.7964    1.0000 </r>
       <r>  -24.7000    1.0000 </r>
       <r>  -24.6456    1.0000 </r>
       <r>  -24.6090    1.0000 </r>
       <r>  -24.5620    1.0000 </r>
       <r>  -24.3147    1.0000 </r>
       <r>  -24.2469    1.0000 </r>
       <r>  -24.2278    1.0000 </r>
       <r>  -24.1566    1.0000 </r>
       <r>  -24.1489    1.0000 </r>
       <r>  -24.0992    1.0000 </r>
       <r>  -24.0069    1.0000 </r>
       <r>  -23.9766    1.0000 </r>
       <r>  -23.9739    1.0000 </r>
       <r>  -23.9619    1.0000 </r>
       <r>  -23.9595    1.0000 </r>
       <r>    1.0795    1.0000 </r>
       <r>    2.3885    1.0000 </r>
       <r>    2.9147    1.0000 </r>
       <r>    3.7262    1.0000 </r>
       <r>    5.2655    1.0000 </r>
       <r>    5.8062    1.0000 </r>
       <r>    6.8425    1.0000 </r>
       <r>    7.1972    1.0000 </r>
       <r>    7.3424    1.0000 </r>
       <r>    7.6064    1.0000 </r>
       <r>    7.8359    1.0000 </r>
       <r>    7.9044    1.0000 </r>
       <r>    7.9872    1.0000 </r>
       <r>    8.1139    1.0000 </r>
       <r>    8.5520    1.0000 </r>
       <r>    8.9981    1.0000 </r>
       <r>    9.0546    1.0000 </r>
       <r>    9.4990    1.0000 </r>
       <r>   10.0699    1.0000 </r>
       <r>   10.1376    1.0000 </r>
       <r>   11.0414    1.0000 </r>
       <r>   11.1014    1.0000 </r>
       <r>   11.3603    1.0000 </r>
       <r>   11.4123    1.0000 </r>
       <r>   11.6329    1.0000 </r>
       <r>   11.7253    1.0000 </r>
       <r>   12.1650    0.0000 </r>
       <r>   12.5419    0.0000 </r>
       <r>   12.9601    0.0000 </r>
       <r>   13.1010    0.0000 </r>
       <r>   13.2725    0.0000 </r>
       <r>   14.0606    0.0000 </r>
       <r>   14.4214    0.0000 </r>
       <r>   14.9871    0.0000 </r>
       <r>   15.0687    0.0000 </r>
       <r>   15.3242    0.0000 </r>
      </set>
      <set comment="kpoint 8">
       <r>  -50.9757    1.0000 </r>
       <r>  -50.9337    1.0000 </r>
       <r>  -50.8610    1.0000 </r>
       <r>  -50.8356    1.0000 </r>
       <r>  -50.8349    1.0000 </r>
       <r>  -50.8186    1.0000 </r>
       <r>  -25.1106    1.0000 </r>
       <r>  -24.9848    1.0000 </r>
       <r>  -24.6720    1.0000 </r>
       <r>  -24.5851    1.0000 </r>
       <r>  -24.5760    1.0000 </r>
       <r>  -24.5553    1.0000 </r>
       <r>  -24.4937    1.0000 </r>
       <r>  -24.4091    1.0000 </r>
       <r>  -24.3599    1.0000 </r>
       <r>  -24.2895    1.0000 </r>
       <r>  -24.2753    1.0000 </r>
       <r>  -24.2029    1.0000 </r>
       <r>  -24.0978    1.0000 </r>
       <r>  -24.0247    1.0000 </r>
       <r>  -24.0112    1.0000 </r>
       <r>  -23.9852    1.0000 </r>
       <r>  -23.9785    1.0000 </r>
       <r>  -23.9651    1.0000 </r>
       <r>    1.7324    1.0000 </r>
       <r>    2.6801    1.0000 </r>
       <r>    2.8063    1.0000 </r>
       <r>    3.2499    1.0000 </r>
       <r>    5.9207    1.0000 </r>
       <r>    6.5070    1.0000 </r>
       <r>    6.6132    1.0000 </r>
       <r>    6.7534    1.0000 </r>
       <r>    6.9567    1.0000 </r>
       <r>    7.5598    1.0000 </r>
       <r>    7.7814    1.0000 </r>
       <r>    7.8162    1.0000 </r>
       <r>    7.9488    1.0000 </r>
       <r>    7.9973    1.0000 </r>
       <r>    8.2916    1.0000 </r>
       <r>    8.4813    1.0000 </r>
       <r>    8.9506    1.0000 </r>
       <r>    9.3757    1.0000 </r>
       <r>    9.6751    1.0000 </r>
       <r>    9.6949    1.0000 </r>
       <r>   11.1975    1.0000 </r>
       <r>   11.2620    1.0000 </r>
       <r>   11.6017    1.0000 </r>
       <r>   11.7684    1.0000 </r>
       <r>   11.7766    1.0000 </r>
       <r>   12.0432    0.0000 </r>
       <r>   12.0907    0.0000 </r>
       <r>   12.6775    0.0000 </r>
       <r>   12.7670    0.0000 </r>
       <r>   12.9908    0.0000 </r>
       <r>   13.1333    0.0000 </r>
       <r>   13.1614    0.0000 </r>
       <r>   14.4892    0.0000 </r>
       <r>   14.8000    0.0000 </r>
       <r>   15.1406    0.0000 </r>
       <r>   15.2416    0.0000 </r>
      </set>
      <set comment="kpoint 9">
       <r>  -50.9647    1.0000 </r>
       <r>  -50.9447    1.0000 </r>
       <r>  -50.8507    1.0000 </r>
       <r>  -50.8454    1.0000 </r>
       <r>  -50.8343    1.0000 </r>
       <r>  -50.8198    1.0000 </r>
       <r>  -25.0719    1.0000 </r>
       <r>  -25.0112    1.0000 </r>
       <r>  -24.6175    1.0000 </r>
       <r>  -24.5856    1.0000 </r>
       <r>  -24.5563    1.0000 </r>
       <r>  -24.5235    1.0000 </r>
       <r>  -24.4883    1.0000 </r>
       <r>  -24.4105    1.0000 </r>
       <r>  -24.3823    1.0000 </r>
       <r>  -24.3661    1.0000 </r>
       <r>  -24.2549    1.0000 </r>
       <r>  -24.2475    1.0000 </r>
       <r>  -24.0828    1.0000 </r>
       <r>  -24.0415    1.0000 </r>
       <r>  -24.0049    1.0000 </r>
       <r>  -23.9890    1.0000 </r>
       <r>  -23.9864    1.0000 </r>
       <r>  -23.9624    1.0000 </r>
       <r>    1.9828    1.0000 </r>
       <r>    2.4615    1.0000 </r>
       <r>    2.9367    1.0000 </r>
       <r>    3.1694    1.0000 </r>
       <r>    6.2335    1.0000 </r>
       <r>    6.4127    1.0000 </r>
       <r>    6.5845    1.0000 </r>
       <r>    6.7040    1.0000 </r>
       <r>    6.9068    1.0000 </r>
       <r>    7.4225    1.0000 </r>
       <r>    7.7616    1.0000 </r>
       <r>    7.8532    1.0000 </r>
       <r>    7.9780    1.0000 </r>
       <r>    8.0768    1.0000 </r>
       <r>    8.1852    1.0000 </r>
       <r>    8.2854    1.0000 </r>
       <r>    9.1406    1.0000 </r>
       <r>    9.3544    1.0000 </r>
       <r>    9.4836    1.0000 </r>
       <r>    9.6132    1.0000 </r>
       <r>   11.1820    1.0000 </r>
       <r>   11.2875    1.0000 </r>
       <r>   11.6647    1.0000 </r>
       <r>   11.8176    1.0000 </r>
       <r>   11.9552    0.3787 </r>
       <r>   12.0077    0.0000 </r>
       <r>   12.2566    0.0000 </r>
       <r>   12.5164    0.0000 </r>
       <r>   12.8258    0.0000 </r>
       <r>   12.9518    0.0000 </r>
       <r>   12.9775    0.0000 </r>
       <r>   13.0258    0.0000 </r>
       <r>   14.4442    0.0000 </r>
       <r>   14.7368    0.0000 </r>
       <r>   14.9701    0.0000 </r>
       <r>   15.4382    0.0000 </r>
      </set>
      <set comment="kpoint 10">
       <r>  -50.9940    1.0000 </r>
       <r>  -50.9151    1.0000 </r>
       <r>  -50.8635    1.0000 </r>
       <r>  -50.8506    1.0000 </r>
       <r>  -50.8288    1.0000 </r>
       <r>  -50.8069    1.0000 </r>
       <r>  -25.1852    1.0000 </r>
       <r>  -24.9446    1.0000 </r>
       <r>  -24.7397    1.0000 </r>
       <r>  -24.6710    1.0000 </r>
       <r>  -24.6291    1.0000 </r>
       <r>  -24.5731    1.0000 </r>
       <r>  -24.5481    1.0000 </r>
       <r>  -24.3165    1.0000 </r>
       <r>  -24.2941    1.0000 </r>
       <r>  -24.2708    1.0000 </r>
       <r>  -24.1949    1.0000 </r>
       <r>  -24.1450    1.0000 </r>
       <r>  -24.1383    1.0000 </r>
       <r>  -23.9966    1.0000 </r>
       <r>  -23.9902    1.0000 </r>
       <r>  -23.9889    1.0000 </r>
       <r>  -23.9827    1.0000 </r>
       <r>  -23.9495    1.0000 </r>
       <r>    1.2891    1.0000 </r>
       <r>    2.5274    1.0000 </r>
       <r>    2.9111    1.0000 </r>
       <r>    3.5660    1.0000 </r>
       <r>    5.5236    1.0000 </r>
       <r>    5.8685    1.0000 </r>
       <r>    6.8032    1.0000 </r>
       <r>    6.9456    1.0000 </r>
       <r>    7.2307    1.0000 </r>
       <r>    7.7851    1.0000 </r>
       <r>    7.8710    1.0000 </r>
       <r>    7.9671    1.0000 </r>
       <r>    7.9870    1.0000 </r>
       <r>    8.0603    1.0000 </r>
       <r>    8.3421    1.0000 </r>
       <r>    8.7805    1.0000 </r>
       <r>    8.9185    1.0000 </r>
       <r>    9.3655    1.0000 </r>
       <r>    9.9629    1.0000 </r>
       <r>   10.0358    1.0000 </r>
       <r>   11.0698    1.0000 </r>
       <r>   11.2069    1.0000 </r>
       <r>   11.3111    1.0000 </r>
       <r>   11.4779    1.0000 </r>
       <r>   11.7642    1.0000 </r>
       <r>   11.9125    0.9966 </r>
       <r>   11.9511    0.4905 </r>
       <r>   12.8479    0.0000 </r>
       <r>   12.8524    0.0000 </r>
       <r>   13.0539    0.0000 </r>
       <r>   13.1492    0.0000 </r>
       <r>   13.8346    0.0000 </r>
       <r>   14.2419    0.0000 </r>
       <r>   14.7986    0.0000 </r>
       <r>   15.0675    0.0000 </r>
       <r>   15.4574    0.0000 </r>
      </set>
      <set comment="kpoint 11">
       <r>  -51.0173    1.0000 </r>
       <r>  -50.8916    1.0000 </r>
       <r>  -50.8724    1.0000 </r>
       <r>  -50.8647    1.0000 </r>
       <r>  -50.8139    1.0000 </r>
       <r>  -50.7983    1.0000 </r>
       <r>  -25.2945    1.0000 </r>
       <r>  -24.9056    1.0000 </r>
       <r>  -24.8381    1.0000 </r>
       <r>  -24.7957    1.0000 </r>
       <r>  -24.6709    1.0000 </r>
       <r>  -24.6397    1.0000 </r>
       <r>  -24.6113    1.0000 </r>
       <r>  -24.2507    1.0000 </r>
       <r>  -24.2328    1.0000 </r>
       <r>  -24.1833    1.0000 </r>
       <r>  -24.1456    1.0000 </r>
       <r>  -24.0791    1.0000 </r>
       <r>  -24.0532    1.0000 </r>
       <r>  -23.9825    1.0000 </r>
       <r>  -23.9750    1.0000 </r>
       <r>  -23.9708    1.0000 </r>
       <r>  -23.9642    1.0000 </r>
       <r>  -23.9242    1.0000 </r>
       <r>    0.7501    1.0000 </r>
       <r>    2.1568    1.0000 </r>
       <r>    2.8495    1.0000 </r>
       <r>    4.1948    1.0000 </r>
       <r>    5.0150    1.0000 </r>
       <r>    5.2018    1.0000 </r>
       <r>    7.0826    1.0000 </r>
       <r>    7.2945    1.0000 </r>
       <r>    7.4431    1.0000 </r>
       <r>    7.6457    1.0000 </r>
       <r>    7.7927    1.0000 </r>
       <r>    8.0638    1.0000 </r>
       <r>    8.0825    1.0000 </r>
       <r>    8.2466    1.0000 </r>
       <r>    8.6067    1.0000 </r>
       <r>    9.4018    1.0000 </r>
       <r>    9.5764    1.0000 </r>
       <r>    9.6835    1.0000 </r>
       <r>   10.2419    1.0000 </r>
       <r>   10.3798    1.0000 </r>
       <r>   10.8197    1.0000 </r>
       <r>   10.9716    1.0000 </r>
       <r>   11.0490    1.0000 </r>
       <r>   11.2730    1.0000 </r>
       <r>   11.3470    1.0000 </r>
       <r>   12.0052    0.0001 </r>
       <r>   12.2246    0.0000 </r>
       <r>   12.6177    0.0000 </r>
       <r>   13.0083    0.0000 </r>
       <r>   13.1067    0.0000 </r>
       <r>   13.2275    0.0000 </r>
       <r>   14.1672    0.0000 </r>
       <r>   14.6067    0.0000 </r>
       <r>   14.8784    0.0000 </r>
       <r>   15.0936    0.0000 </r>
       <r>   15.3317    0.0000 </r>
      </set>
      <set comment="kpoint 12">
       <r>  -51.0311    1.0000 </r>
       <r>  -50.8788    1.0000 </r>
       <r>  -50.8786    1.0000 </r>
       <r>  -50.8708    1.0000 </r>
       <r>  -50.8029    1.0000 </r>
       <r>  -50.7953    1.0000 </r>
       <r>  -25.3654    1.0000 </r>
       <r>  -24.8945    1.0000 </r>
       <r>  -24.8827    1.0000 </r>
       <r>  -24.8796    1.0000 </r>
       <r>  -24.6852    1.0000 </r>
       <r>  -24.6839    1.0000 </r>
       <r>  -24.6537    1.0000 </r>
       <r>  -24.2130    1.0000 </r>
       <r>  -24.2099    1.0000 </r>
       <r>  -24.2089    1.0000 </r>
       <r>  -24.0681    1.0000 </r>
       <r>  -24.0232    1.0000 </r>
       <r>  -23.9963    1.0000 </r>
       <r>  -23.9715    1.0000 </r>
       <r>  -23.9641    1.0000 </r>
       <r>  -23.9403    1.0000 </r>
       <r>  -23.9330    1.0000 </r>
       <r>  -23.9111    1.0000 </r>
       <r>    0.4377    1.0000 </r>
       <r>    1.9320    1.0000 </r>
       <r>    2.7231    1.0000 </r>
       <r>    4.6288    1.0000 </r>
       <r>    4.7580    1.0000 </r>
       <r>    4.8103    1.0000 </r>
       <r>    7.0757    1.0000 </r>
       <r>    7.5386    1.0000 </r>
       <r>    7.5486    1.0000 </r>
       <r>    7.5515    1.0000 </r>
       <r>    7.5745    1.0000 </r>
       <r>    7.9335    1.0000 </r>
       <r>    8.5906    1.0000 </r>
       <r>    8.5929    1.0000 </r>
       <r>    8.7977    1.0000 </r>
       <r>    9.9083    1.0000 </r>
       <r>   10.0204    1.0000 </r>
       <r>   10.0821    1.0000 </r>
       <r>   10.3765    1.0000 </r>
       <r>   10.5333    1.0000 </r>
       <r>   10.5347    1.0000 </r>
       <r>   10.7445    1.0000 </r>
       <r>   10.8108    1.0000 </r>
       <r>   10.9392    1.0000 </r>
       <r>   11.7942    1.0000 </r>
       <r>   12.0668    0.0000 </r>
       <r>   12.4382    0.0000 </r>
       <r>   12.4577    0.0000 </r>
       <r>   13.0471    0.0000 </r>
       <r>   13.1319    0.0000 </r>
       <r>   13.2907    0.0000 </r>
       <r>   14.0324    0.0000 </r>
       <r>   14.0501    0.0000 </r>
       <r>   14.8001    0.0000 </r>
       <r>   15.0614    0.0000 </r>
       <r>   15.2210    0.0000 </r>
      </set>
      <set comment="kpoint 13">
       <r>  -50.9818    1.0000 </r>
       <r>  -50.9151    1.0000 </r>
       <r>  -50.8796    1.0000 </r>
       <r>  -50.8357    1.0000 </r>
       <r>  -50.8348    1.0000 </r>
       <r>  -50.8124    1.0000 </r>
       <r>  -25.1223    1.0000 </r>
       <r>  -24.9065    1.0000 </r>
       <r>  -24.7697    1.0000 </r>
       <r>  -24.6125    1.0000 </r>
       <r>  -24.5844    1.0000 </r>
       <r>  -24.5578    1.0000 </r>
       <r>  -24.4910    1.0000 </r>
       <r>  -24.4200    1.0000 </r>
       <r>  -24.3718    1.0000 </r>
       <r>  -24.2478    1.0000 </r>
       <r>  -24.1967    1.0000 </r>
       <r>  -24.1217    1.0000 </r>
       <r>  -24.0997    1.0000 </r>
       <r>  -24.0716    1.0000 </r>
       <r>  -24.0438    1.0000 </r>
       <r>  -24.0010    1.0000 </r>
       <r>  -23.9943    1.0000 </r>
       <r>  -23.9642    1.0000 </r>
       <r>    1.5926    1.0000 </r>
       <r>    2.7201    1.0000 </r>
       <r>    3.0044    1.0000 </r>
       <r>    3.3592    1.0000 </r>
       <r>    5.4326    1.0000 </r>
       <r>    6.5062    1.0000 </r>
       <r>    6.6673    1.0000 </r>
       <r>    6.9588    1.0000 </r>
       <r>    7.0308    1.0000 </r>
       <r>    7.4359    1.0000 </r>
       <r>    7.5582    1.0000 </r>
       <r>    7.8121    1.0000 </r>
       <r>    7.8555    1.0000 </r>
       <r>    8.2279    1.0000 </r>
       <r>    8.4113    1.0000 </r>
       <r>    8.5758    1.0000 </r>
       <r>    8.6643    1.0000 </r>
       <r>    9.5039    1.0000 </r>
       <r>    9.9355    1.0000 </r>
       <r>    9.9592    1.0000 </r>
       <r>   10.9655    1.0000 </r>
       <r>   11.1355    1.0000 </r>
       <r>   11.3234    1.0000 </r>
       <r>   11.5009    1.0000 </r>
       <r>   11.6180    1.0000 </r>
       <r>   11.9433    0.7025 </r>
       <r>   12.0807    0.0000 </r>
       <r>   12.7655    0.0000 </r>
       <r>   12.9270    0.0000 </r>
       <r>   13.1725    0.0000 </r>
       <r>   13.3311    0.0000 </r>
       <r>   13.5311    0.0000 </r>
       <r>   14.8846    0.0000 </r>
       <r>   15.0849    0.0000 </r>
       <r>   15.1790    0.0000 </r>
       <r>   15.5778    0.0000 </r>
      </set>
      <set comment="kpoint 14">
       <r>  -50.9543    1.0000 </r>
       <r>  -50.9367    1.0000 </r>
       <r>  -50.8736    1.0000 </r>
       <r>  -50.8509    1.0000 </r>
       <r>  -50.8248    1.0000 </r>
       <r>  -50.8195    1.0000 </r>
       <r>  -25.0050    1.0000 </r>
       <r>  -24.9446    1.0000 </r>
       <r>  -24.6672    1.0000 </r>
       <r>  -24.5560    1.0000 </r>
       <r>  -24.5420    1.0000 </r>
       <r>  -24.5299    1.0000 </r>
       <r>  -24.4771    1.0000 </r>
       <r>  -24.4615    1.0000 </r>
       <r>  -24.4425    1.0000 </r>
       <r>  -24.2819    1.0000 </r>
       <r>  -24.2612    1.0000 </r>
       <r>  -24.1653    1.0000 </r>
       <r>  -24.1007    1.0000 </r>
       <r>  -24.0749    1.0000 </r>
       <r>  -24.0604    1.0000 </r>
       <r>  -24.0566    1.0000 </r>
       <r>  -24.0087    1.0000 </r>
       <r>  -23.9634    1.0000 </r>
       <r>    2.2602    1.0000 </r>
       <r>    2.6747    1.0000 </r>
       <r>    3.0803    1.0000 </r>
       <r>    3.0913    1.0000 </r>
       <r>    5.9575    1.0000 </r>
       <r>    6.3449    1.0000 </r>
       <r>    6.4066    1.0000 </r>
       <r>    6.6316    1.0000 </r>
       <r>    7.3110    1.0000 </r>
       <r>    7.4325    1.0000 </r>
       <r>    7.5968    1.0000 </r>
       <r>    7.6232    1.0000 </r>
       <r>    7.7606    1.0000 </r>
       <r>    7.8966    1.0000 </r>
       <r>    8.1911    1.0000 </r>
       <r>    8.2124    1.0000 </r>
       <r>    9.1596    1.0000 </r>
       <r>    9.5426    1.0000 </r>
       <r>    9.6792    1.0000 </r>
       <r>    9.7136    1.0000 </r>
       <r>   10.9658    1.0000 </r>
       <r>   10.9763    1.0000 </r>
       <r>   11.1398    1.0000 </r>
       <r>   11.4463    1.0000 </r>
       <r>   11.9230    0.9754 </r>
       <r>   12.2043    0.0000 </r>
       <r>   12.6048    0.0000 </r>
       <r>   12.8247    0.0000 </r>
       <r>   12.8404    0.0000 </r>
       <r>   13.0035    0.0000 </r>
       <r>   13.1270    0.0000 </r>
       <r>   13.1619    0.0000 </r>
       <r>   14.4276    0.0000 </r>
       <r>   14.9282    0.0000 </r>
       <r>   15.0543    0.0000 </r>
       <r>   15.2028    0.0000 </r>
      </set>
      <set comment="kpoint 15">
       <r>  -50.9636    1.0000 </r>
       <r>  -50.9248    1.0000 </r>
       <r>  -50.8638    1.0000 </r>
       <r>  -50.8597    1.0000 </r>
       <r>  -50.8412    1.0000 </r>
       <r>  -50.8066    1.0000 </r>
       <r>  -25.0342    1.0000 </r>
       <r>  -24.9107    1.0000 </r>
       <r>  -24.6718    1.0000 </r>
       <r>  -24.6308    1.0000 </r>
       <r>  -24.5537    1.0000 </r>
       <r>  -24.5121    1.0000 </r>
       <r>  -24.4628    1.0000 </r>
       <r>  -24.3980    1.0000 </r>
       <r>  -24.3836    1.0000 </r>
       <r>  -24.3757    1.0000 </r>
       <r>  -24.2087    1.0000 </r>
       <r>  -24.1997    1.0000 </r>
       <r>  -24.1214    1.0000 </r>
       <r>  -24.0925    1.0000 </r>
       <r>  -24.0433    1.0000 </r>
       <r>  -24.0324    1.0000 </r>
       <r>  -24.0158    1.0000 </r>
       <r>  -23.9501    1.0000 </r>
       <r>    2.0095    1.0000 </r>
       <r>    2.8803    1.0000 </r>
       <r>    2.9143    1.0000 </r>
       <r>    3.4106    1.0000 </r>
       <r>    5.7728    1.0000 </r>
       <r>    6.1551    1.0000 </r>
       <r>    6.2383    1.0000 </r>
       <r>    6.8115    1.0000 </r>
       <r>    7.0799    1.0000 </r>
       <r>    7.6315    1.0000 </r>
       <r>    7.6752    1.0000 </r>
       <r>    7.7978    1.0000 </r>
       <r>    7.8604    1.0000 </r>
       <r>    7.9554    1.0000 </r>
       <r>    8.1781    1.0000 </r>
       <r>    8.2536    1.0000 </r>
       <r>    9.0559    1.0000 </r>
       <r>    9.4267    1.0000 </r>
       <r>    9.7735    1.0000 </r>
       <r>    9.9915    1.0000 </r>
       <r>   10.8988    1.0000 </r>
       <r>   11.0045    1.0000 </r>
       <r>   11.0866    1.0000 </r>
       <r>   11.3056    1.0000 </r>
       <r>   11.9989    0.0003 </r>
       <r>   12.1145    0.0000 </r>
       <r>   12.3014    0.0000 </r>
       <r>   12.6045    0.0000 </r>
       <r>   12.8668    0.0000 </r>
       <r>   13.0895    0.0000 </r>
       <r>   13.2124    0.0000 </r>
       <r>   13.4667    0.0000 </r>
       <r>   14.1940    0.0000 </r>
       <r>   14.7874    0.0000 </r>
       <r>   15.1940    0.0000 </r>
       <r>   15.4321    0.0000 </r>
[...]
       <r>    3.5124    1.0000 </r>
       <r>    5.4312    1.0000 </r>
       <r>    6.1179    1.0000 </r>
       <r>    6.7972    1.0000 </r>
       <r>    6.9421    1.0000 </r>
       <r>    7.1818    1.0000 </r>
       <r>    7.5838    1.0000 </r>
       <r>    7.7251    1.0000 </r>
       <r>    7.8652    1.0000 </r>
       <r>    7.9538    1.0000 </r>
       <r>    8.1807    1.0000 </r>
       <r>    8.4053    1.0000 </r>
       <r>    8.6691    1.0000 </r>
       <r>    8.8263    1.0000 </r>
       <r>    9.4024    1.0000 </r>
       <r>    9.9563    1.0000 </r>
       <r>   10.0225    1.0000 </r>
       <r>   11.0354    1.0000 </r>
       <r>   11.1959    1.0000 </r>
       <r>   11.2839    1.0000 </r>
       <r>   11.6100    1.0000 </r>
       <r>   11.6828    1.0000 </r>
       <r>   11.7953    1.0000 </r>
       <r>   12.0278    0.0000 </r>
       <r>   12.6458    0.0000 </r>
       <r>   12.9646    0.0000 </r>
       <r>   13.0652    0.0000 </r>
       <r>   13.2820    0.0000 </r>
       <r>   13.7339    0.0000 </r>
       <r>   14.6889    0.0000 </r>
       <r>   14.8893    0.0000 </r>
       <r>   15.1053    0.0000 </r>
       <r>   15.3553    0.0000 </r>
      </set>
      <set comment="kpoint 165">
       <r>  -50.9840    1.0000 </r>
       <r>  -50.9011    1.0000 </r>
       <r>  -50.8795    1.0000 </r>
       <r>  -50.8489    1.0000 </r>
       <r>  -50.8450    1.0000 </r>
       <r>  -50.8009    1.0000 </r>
       <r>  -25.1224    1.0000 </r>
       <r>  -24.8508    1.0000 </r>
       <r>  -24.7822    1.0000 </r>
       <r>  -24.6596    1.0000 </r>
       <r>  -24.6329    1.0000 </r>
       <r>  -24.5261    1.0000 </r>
       <r>  -24.4917    1.0000 </r>
       <r>  -24.3546    1.0000 </r>
       <r>  -24.3527    1.0000 </r>
       <r>  -24.2572    1.0000 </r>
       <r>  -24.2105    1.0000 </r>
       <r>  -24.1465    1.0000 </r>
       <r>  -24.1027    1.0000 </r>
       <r>  -24.0902    1.0000 </r>
       <r>  -24.0474    1.0000 </r>
       <r>  -24.0133    1.0000 </r>
       <r>  -23.9985    1.0000 </r>
       <r>  -23.9397    1.0000 </r>
       <r>    1.5239    1.0000 </r>
       <r>    2.6467    1.0000 </r>
       <r>    3.0890    1.0000 </r>
       <r>    3.7604    1.0000 </r>
       <r>    5.3154    1.0000 </r>
       <r>    5.7984    1.0000 </r>
       <r>    6.4691    1.0000 </r>
       <r>    7.1322    1.0000 </r>
       <r>    7.3690    1.0000 </r>
       <r>    7.5705    1.0000 </r>
       <r>    7.5926    1.0000 </r>
       <r>    7.7614    1.0000 </r>
       <r>    8.0791    1.0000 </r>
       <r>    8.2026    1.0000 </r>
       <r>    8.2690    1.0000 </r>
       <r>    8.4298    1.0000 </r>
       <r>    9.0061    1.0000 </r>
       <r>    9.3107    1.0000 </r>
       <r>   10.1145    1.0000 </r>
       <r>   10.1946    1.0000 </r>
       <r>   10.8743    1.0000 </r>
       <r>   11.0176    1.0000 </r>
       <r>   11.0606    1.0000 </r>
       <r>   11.3675    1.0000 </r>
       <r>   11.5787    1.0000 </r>
       <r>   11.8221    1.0000 </r>
       <r>   12.2946    0.0000 </r>
       <r>   12.5332    0.0000 </r>
       <r>   13.0082    0.0000 </r>
       <r>   13.0393    0.0000 </r>
       <r>   13.3584    0.0000 </r>
       <r>   13.8609    0.0000 </r>
       <r>   14.2637    0.0000 </r>
       <r>   14.9931    0.0000 </r>
       <r>   15.3686    0.0000 </r>
       <r>   15.8156    0.0000 </r>
      </set>
     </set>
    </set>
   </array>
  </eigenvalues>
  <separator name="orbital magnetization" >
   <v name="MAGDIPOLOUT">      0.00000000      0.00000000      0.00000000</v>
  </separator>
  <dos>
   <i name="efermi">     11.95080141 </i>
   <total>
    <array>
     <dimension dim="1">gridpoints</dimension>
     <dimension dim="2">spin</dimension>
     <field>energy</field>
     <field>total</field>
     <field>integrated</field>
     <set>
      <set comment="spin 1">
       <r>   -54.4442     0.0000     0.0000 </r>
       <r>   -54.1946     0.0000     0.0000 </r>
       <r>   -53.9449     0.0000     0.0000 </r>
       <r>   -53.6952     0.0000     0.0000 </r>
       <r>   -53.4455     0.0000     0.0000 </r>
       <r>   -53.1958     0.0000     0.0000 </r>
       <r>   -52.9461     0.0000     0.0000 </r>
       <r>   -52.6964     0.0000     0.0000 </r>
       <r>   -52.4467     0.0000     0.0000 </r>
       <r>   -52.1970     0.0000     0.0000 </r>
       <r>   -51.9473     0.0000     0.0000 </r>
       <r>   -51.6976     0.0000     0.0000 </r>
       <r>   -51.4480     0.0000     0.0000 </r>
       <r>   -51.1983     0.0000     0.0000 </r>
       <r>   -50.9486     7.3671     1.8395 </r>
       <r>   -50.6989    21.0955    12.0000 </r>
       <r>   -50.4492     0.0000    12.0000 </r>
       <r>   -50.1995     0.0000    12.0000 </r>
       <r>   -49.9498     0.0000    12.0000 </r>
       <r>   -49.7001     0.0000    12.0000 </r>
       <r>   -49.4504     0.0000    12.0000 </r>
       <r>   -49.2007     0.0000    12.0000 </r>
       <r>   -48.9511     0.0000    12.0000 </r>
       <r>   -48.7014     0.0000    12.0000 </r>
       <r>   -48.4517     0.0000    12.0000 </r>
       <r>   -48.2020     0.0000    12.0000 </r>
       <r>   -47.9523     0.0000    12.0000 </r>
       <r>   -47.7026     0.0000    12.0000 </r>
       <r>   -47.4529     0.0000    12.0000 </r>
       <r>   -47.2032     0.0000    12.0000 </r>
       <r>   -46.9535     0.0000    12.0000 </r>
       <r>   -46.7038     0.0000    12.0000 </r>
       <r>   -46.4541     0.0000    12.0000 </r>
       <r>   -46.2045     0.0000    12.0000 </r>
       <r>   -45.9548     0.0000    12.0000 </r>
       <r>   -45.7051     0.0000    12.0000 </r>
       <r>   -45.4554     0.0000    12.0000 </r>
       <r>   -45.2057     0.0000    12.0000 </r>
       <r>   -44.9560     0.0000    12.0000 </r>
       <r>   -44.7063     0.0000    12.0000 </r>
       <r>   -44.4566     0.0000    12.0000 </r>
       <r>   -44.2069     0.0000    12.0000 </r>
       <r>   -43.9572     0.0000    12.0000 </r>
       <r>   -43.7075     0.0000    12.0000 </r>
       <r>   -43.4579     0.0000    12.0000 </r>
       <r>   -43.2082     0.0000    12.0000 </r>
       <r>   -42.9585     0.0000    12.0000 </r>
       <r>   -42.7088     0.0000    12.0000 </r>
       <r>   -42.4591     0.0000    12.0000 </r>
       <r>   -42.2094     0.0000    12.0000 </r>
       <r>   -41.9597     0.0000    12.0000 </r>
       <r>   -41.7100     0.0000    12.0000 </r>
       <r>   -41.4603     0.0000    12.0000 </r>
       <r>   -41.2106     0.0000    12.0000 </r>
       <r>   -40.9609     0.0000    12.0000 </r>
       <r>   -40.7113     0.0000    12.0000 </r>
       <r>   -40.4616     0.0000    12.0000 </r>
       <r>   -40.2119     0.0000    12.0000 </r>
       <r>   -39.9622     0.0000    12.0000 </r>
       <r>   -39.7125     0.0000    12.0000 </r>
       <r>   -39.4628     0.0000    12.0000 </r>
       <r>   -39.2131     0.0000    12.0000 </r>
       <r>   -38.9634     0.0000    12.0000 </r>
       <r>   -38.7137     0.0000    12.0000 </r>
       <r>   -38.4640     0.0000    12.0000 </r>
       <r>   -38.2143     0.0000    12.0000 </r>
       <r>   -37.9647     0.0000    12.0000 </r>
       <r>   -37.7150     0.0000    12.0000 </r>
       <r>   -37.4653     0.0000    12.0000 </r>
       <r>   -37.2156     0.0000    12.0000 </r>
       <r>   -36.9659     0.0000    12.0000 </r>
       <r>   -36.7162     0.0000    12.0000 </r>
       <r>   -36.4665     0.0000    12.0000 </r>
       <r>   -36.2168     0.0000    12.0000 </r>
       <r>   -35.9671     0.0000    12.0000 </r>
       <r>   -35.7174     0.0000    12.0000 </r>
       <r>   -35.4677     0.0000    12.0000 </r>
       <r>   -35.2181     0.0000    12.0000 </r>
       <r>   -34.9684     0.0000    12.0000 </r>
       <r>   -34.7187     0.0000    12.0000 </r>
       <r>   -34.4690     0.0000    12.0000 </r>
       <r>   -34.2193     0.0000    12.0000 </r>
       <r>   -33.9696     0.0000    12.0000 </r>
       <r>   -33.7199     0.0000    12.0000 </r>
       <r>   -33.4702     0.0000    12.0000 </r>
       <r>   -33.2205     0.0000    12.0000 </r>
       <r>   -32.9708     0.0000    12.0000 </r>
       <r>   -32.7211     0.0000    12.0000 </r>
       <r>   -32.4715     0.0000    12.0000 </r>
       <r>   -32.2218     0.0000    12.0000 </r>
       <r>   -31.9721     0.0000    12.0000 </r>
       <r>   -31.7224     0.0000    12.0000 </r>
       <r>   -31.4727     0.0000    12.0000 </r>
       <r>   -31.2230     0.0000    12.0000 </r>
       <r>   -30.9733     0.0000    12.0000 </r>
       <r>   -30.7236     0.0000    12.0000 </r>
       <r>   -30.4739     0.0000    12.0000 </r>
       <r>   -30.2242     0.0000    12.0000 </r>
       <r>   -29.9745     0.0000    12.0000 </r>
       <r>   -29.7249     0.0000    12.0000 </r>
       <r>   -29.4752     0.0000    12.0000 </r>
       <r>   -29.2255     0.0000    12.0000 </r>
       <r>   -28.9758     0.0000    12.0000 </r>
       <r>   -28.7261     0.0000    12.0000 </r>
       <r>   -28.4764     0.0000    12.0000 </r>
       <r>   -28.2267     0.0000    12.0000 </r>
       <r>   -27.9770     0.0000    12.0000 </r>
       <r>   -27.7273     0.0000    12.0000 </r>
       <r>   -27.4776     0.0000    12.0000 </r>
       <r>   -27.2279     0.0000    12.0000 </r>
       <r>   -26.9783     0.0000    12.0000 </r>
       <r>   -26.7286     0.0000    12.0000 </r>
       <r>   -26.4789     0.0000    12.0000 </r>
       <r>   -26.2292     0.0000    12.0000 </r>
       <r>   -25.9795     0.0000    12.0000 </r>
       <r>   -25.7298     0.0000    12.0000 </r>
       <r>   -25.4801     0.0000    12.0000 </r>
       <r>   -25.2304     1.2447    12.3143 </r>
       <r>   -24.9807     4.8629    13.8635 </r>
       <r>   -24.7310     7.1987    17.1759 </r>
       <r>   -24.4813    22.1321    25.0019 </r>
       <r>   -24.2317    21.5519    32.6244 </r>
       <r>   -23.9820    34.8265    44.5639 </r>
       <r>   -23.7323     0.0000    48.0000 </r>
       <r>   -23.4826     0.0000    48.0000 </r>
       <r>   -23.2329     0.0000    48.0000 </r>
       <r>   -22.9832     0.0000    48.0000 </r>
       <r>   -22.7335     0.0000    48.0000 </r>
       <r>   -22.4838     0.0000    48.0000 </r>
       <r>   -22.2341     0.0000    48.0000 </r>
       <r>   -21.9844     0.0000    48.0000 </r>
       <r>   -21.7347     0.0000    48.0000 </r>
       <r>   -21.4851     0.0000    48.0000 </r>
       <r>   -21.2354     0.0000    48.0000 </r>
       <r>   -20.9857     0.0000    48.0000 </r>
       <r>   -20.7360     0.0000    48.0000 </r>
       <r>   -20.4863     0.0000    48.0000 </r>
       <r>   -20.2366     0.0000    48.0000 </r>
       <r>   -19.9869     0.0000    48.0000 </r>
       <r>   -19.7372     0.0000    48.0000 </r>
       <r>   -19.4875     0.0000    48.0000 </r>
       <r>   -19.2378     0.0000    48.0000 </r>
       <r>   -18.9881     0.0000    48.0000 </r>
       <r>   -18.7385     0.0000    48.0000 </r>
       <r>   -18.4888     0.0000    48.0000 </r>
       <r>   -18.2391     0.0000    48.0000 </r>
       <r>   -17.9894     0.0000    48.0000 </r>
       <r>   -17.7397     0.0000    48.0000 </r>
       <r>   -17.4900     0.0000    48.0000 </r>
       <r>   -17.2403     0.0000    48.0000 </r>
       <r>   -16.9906     0.0000    48.0000 </r>
       <r>   -16.7409     0.0000    48.0000 </r>
       <r>   -16.4912     0.0000    48.0000 </r>
       <r>   -16.2416     0.0000    48.0000 </r>
       <r>   -15.9919     0.0000    48.0000 </r>
       <r>   -15.7422     0.0000    48.0000 </r>
       <r>   -15.4925     0.0000    48.0000 </r>
       <r>   -15.2428     0.0000    48.0000 </r>
       <r>   -14.9931     0.0000    48.0000 </r>
       <r>   -14.7434     0.0000    48.0000 </r>
       <r>   -14.4937     0.0000    48.0000 </r>
       <r>   -14.2440     0.0000    48.0000 </r>
       <r>   -13.9943     0.0000    48.0000 </r>
       <r>   -13.7446     0.0000    48.0000 </r>
       <r>   -13.4950     0.0000    48.0000 </r>
       <r>   -13.2453     0.0000    48.0000 </r>
       <r>   -12.9956     0.0000    48.0000 </r>
       <r>   -12.7459     0.0000    48.0000 </r>
       <r>   -12.4962     0.0000    48.0000 </r>
       <r>   -12.2465     0.0000    48.0000 </r>
       <r>   -11.9968     0.0000    48.0000 </r>
       <r>   -11.7471     0.0000    48.0000 </r>
       <r>   -11.4974     0.0000    48.0000 </r>
       <r>   -11.2477     0.0000    48.0000 </r>
       <r>   -10.9980     0.0000    48.0000 </r>
       <r>   -10.7484     0.0000    48.0000 </r>
       <r>   -10.4987     0.0000    48.0000 </r>
       <r>   -10.2490     0.0000    48.0000 </r>
       <r>    -9.9993     0.0000    48.0000 </r>
       <r>    -9.7496     0.0000    48.0000 </r>
       <r>    -9.4999     0.0000    48.0000 </r>
       <r>    -9.2502     0.0000    48.0000 </r>
       <r>    -9.0005     0.0000    48.0000 </r>
       <r>    -8.7508     0.0000    48.0000 </r>
       <r>    -8.5011     0.0000    48.0000 </r>
       <r>    -8.2514     0.0000    48.0000 </r>
       <r>    -8.0018     0.0000    48.0000 </r>
       <r>    -7.7521     0.0000    48.0000 </r>
       <r>    -7.5024     0.0000    48.0000 </r>
       <r>    -7.2527     0.0000    48.0000 </r>
       <r>    -7.0030     0.0000    48.0000 </r>
       <r>    -6.7533     0.0000    48.0000 </r>
       <r>    -6.5036     0.0000    48.0000 </r>
       <r>    -6.2539     0.0000    48.0000 </r>
       <r>    -6.0042     0.0000    48.0000 </r>
       <r>    -5.7545     0.0000    48.0000 </r>
       <r>    -5.5048     0.0000    48.0000 </r>
       <r>    -5.2552     0.0000    48.0000 </r>
       <r>    -5.0055     0.0000    48.0000 </r>
       <r>    -4.7558     0.0000    48.0000 </r>
       <r>    -4.5061     0.0000    48.0000 </r>
       <r>    -4.2564     0.0000    48.0000 </r>
       <r>    -4.0067     0.0000    48.0000 </r>
       <r>    -3.7570     0.0000    48.0000 </r>
       <r>    -3.5073     0.0000    48.0000 </r>
       <r>    -3.2576     0.0000    48.0000 </r>
       <r>    -3.0079     0.0000    48.0000 </r>
       <r>    -2.7582     0.0000    48.0000 </r>
       <r>    -2.5086     0.0000    48.0000 </r>
       <r>    -2.2589     0.0000    48.0000 </r>
       <r>    -2.0092     0.0000    48.0000 </r>
       <r>    -1.7595     0.0000    48.0000 </r>
       <r>    -1.5098     0.0000    48.0000 </r>
       <r>    -1.2601     0.0000    48.0000 </r>
       <r>    -1.0104     0.0000    48.0000 </r>
       <r>    -0.7607     0.0000    48.0000 </r>
       <r>    -0.5110     0.0000    48.0000 </r>
       <r>    -0.2613     0.0000    48.0000 </r>
       <r>    -0.0116     0.0000    48.0000 </r>
       <r>     0.2380     0.0024    48.0006 </r>
       <r>     0.4877     0.1947    48.0521 </r>
       <r>     0.7374     0.4042    48.1599 </r>
       <r>     0.9871     0.1813    48.2571 </r>
       <r>     1.2368     0.5902    48.4633 </r>
       <r>     1.4865     0.4760    48.6362 </r>
       <r>     1.7362     0.9070    48.9313 </r>
       <r>     1.9859     0.9782    49.2234 </r>
       <r>     2.2356     1.3686    49.7098 </r>
       <r>     2.4853     2.1474    50.4702 </r>
       <r>     2.7350     2.1011    51.2364 </r>
       <r>     2.9846     5.2532    53.0860 </r>
       <r>     3.2343     2.9073    54.3613 </r>
       <r>     3.4840     1.4192    55.0870 </r>
       <r>     3.7337     0.9695    55.3949 </r>
       <r>     3.9834     0.7210    55.6592 </r>
       <r>     4.2331     0.4331    55.8304 </r>
       <r>     4.4828     0.1392    55.9549 </r>
       <r>     4.7325     0.1303    56.0082 </r>
       <r>     4.9822     0.5048    56.1885 </r>
       <r>     5.2319     1.2076    56.5932 </r>
       <r>     5.4816     1.6994    57.1604 </r>
       <r>     5.7312     1.7798    57.7986 </r>
       <r>     5.9809     2.4094    58.7023 </r>
       <r>     6.2306     2.3200    59.6730 </r>
       <r>     6.4803     3.0971    60.9921 </r>
       <r>     6.7300     3.0031    62.1283 </r>
       <r>     6.9797     3.0672    63.2902 </r>
       <r>     7.2294     3.1053    64.5080 </r>
       <r>     7.4791     4.2289    66.1705 </r>
       <r>     7.7288     9.6674    69.8548 </r>
       <r>     7.9785    11.0670    74.1175 </r>
       <r>     8.2282     7.3612    77.3172 </r>
       <r>     8.4778     3.1706    78.5660 </r>
       <r>     8.7275     1.9357    79.3548 </r>
       <r>     8.9772     2.4501    80.1187 </r>
       <r>     9.2269     2.6051    81.2199 </r>
       <r>     9.4766     4.5860    82.6798 </r>
       <r>     9.7263     4.6406    84.4365 </r>
       <r>     9.9760     3.2792    85.8223 </r>
       <r>    10.2257     3.4385    87.1259 </r>
       <r>    10.4754     1.7553    88.0182 </r>
       <r>    10.7251     1.8204    88.6316 </r>
       <r>    10.9748     6.7237    90.9219 </r>
       <r>    11.2244     6.5121    93.7892 </r>
       <r>    11.4741     3.8829    95.4695 </r>
       <r>    11.7238     3.6534    96.7386 </r>
       <r>    11.9735     3.7921    98.1587 </r>
       <r>    12.2232     5.3548   100.1495 </r>
       <r>    12.4729     3.4352   101.6807 </r>
       <r>    12.7226     5.3608   103.6545 </r>
       <r>    12.9723     6.5713   105.8734 </r>
       <r>    13.2220     8.3525   109.1411 </r>
       <r>    13.4717     3.4621   110.8263 </r>
       <r>    13.7214     1.6031   111.5496 </r>
       <r>    13.9710     1.1779   111.9469 </r>
       <r>    14.2207     1.6836   112.6113 </r>
       <r>    14.4704     1.6015   113.2575 </r>
       <r>    14.7201     2.8575   114.2343 </r>
       <r>    14.9698     4.8923   116.0236 </r>
       <r>    15.2195     5.0740   118.3329 </r>
       <r>    15.4692     2.6785   119.4084 </r>
       <r>    15.7189     0.5974   119.6874 </r>
       <r>    15.9686     0.2234   119.7884 </r>
       <r>    16.2183     0.0849   119.8337 </r>
       <r>    16.4679     0.0543   119.8538 </r>
       <r>    16.7176     0.1516   119.9129 </r>
       <r>    16.9673     0.1926   119.9856 </r>
       <r>    17.2170     0.0139   120.0000 </r>
       <r>    17.4667     0.0000   120.0000 </r>
       <r>    17.7164     0.0000   120.0000 </r>
       <r>    17.9661     0.0000   120.0000 </r>
       <r>    18.2158     0.0000   120.0000 </r>
       <r>    18.4655     0.0000   120.0000 </r>
       <r>    18.7152     0.0000   120.0000 </r>
       <r>    18.9649     0.0000   120.0000 </r>
       <r>    19.2145     0.0000   120.0000 </r>
       <r>    19.4642     0.0000   120.0000 </r>
       <r>    19.7139     0.0000   120.0000 </r>
       <r>    19.9636     0.0000   120.0000 </r>
       <r>    20.2133     0.0000   120.0000 </r>
       <r>    20.4630     0.0000   120.0000 </r>
      </set>
     </set>
    </array>
   </total>
  </dos>
 </calculation>
 <structure name="finalpos" >
  <crystal>
   <varray name="basis" >
    <v>       4.93030578       0.00000000      -2.89386573 </v>
    <v>      -1.61637975       4.65781404      -2.89386573 </v>
    <v>       0.00000000       0.00000000       5.71685000 </v>
   </varray>
   <i name="volume">    131.28430142 </i>
   <varray name="rec_basis" >
    <v>       0.20282718       0.07038618       0.00000000 </v>
    <v>       0.00000000       0.21469299       0.00000000 </v>
    <v>       0.10267098       0.14430689       0.17492150 </v>
   </varray>
  </crystal>
  <varray name="positions" >
   <v>       0.00000000       0.00000000       0.00000000 </v>
   <v>       0.50000000       0.50000000       0.00000000 </v>
   <v>       0.25000000       0.25000000       0.00000000 </v>
   <v>       0.24333000       0.25667000       0.50000000 </v>
   <v>       0.75000000       0.75000000       0.00000000 </v>
   <v>       0.75667000       0.74333000       0.50000000 </v>
   <v>       0.25667000       0.75667000       0.01334000 </v>
   <v>       0.74333000       0.24333000       0.98666000 </v>
   <v>       0.75000000       0.25000000       0.50000000 </v>
   <v>       0.25000000       0.75000000       0.50000000 </v>
  </varray>
 </structure>
</modeling>
