<?xml version="1.0" encoding="ISO-8859-1"?>
<modeling>
 <generator>
  <i name="program" type="string">vasp </i>
  <i name="version" type="string">6.2.0  </i>
  <i name="subversion" type="string">18Jan21 (build Jan 05 2022 15:41:44) complex                          parallel </i>
  <i name="platform" type="string">LinuxIFC </i>
  <i name="date" type="string">2025 05 07 </i>
  <i name="time" type="string">20:54:12 </i>
 </generator>
 <incar>
  <i type="string" name="SYSTEM">routine with relax: pwdword</i>
  <i type="string" name="PREC">Acc</i>
  <i type="int" name="IALGO">    38</i>
  <i type="string" name="ALGO">A</i>
  <i type="logical" name="ADDGRID"> T  </i>
  <i type="int" name="ICHARG">     2</i>
  <i type="int" name="NELM">   100</i>
  <i type="int" name="NELMIN">     6</i>
  <i name="EDIFF">      0.00000000</i>
  <i type="int" name="NSW">     0</i>
  <i type="int" name="ISIF">    -1</i>
  <i name="ENCUT">    600.00000000</i>
  <i type="logical" name="LREAL"> F  </i>
  <i type="int" name="ISMEAR">     0</i>
  <i name="SIGMA">      0.02000000</i>
  <i type="logical" name="LASPH"> T  </i>
  <i type="string" name="METAGGA">R2SCAN</i>
  <i type="logical" name="LMIXTAU"> F  </i>
 </incar>
 <primitive_cell>
  <structure name="primitive_cell" >
   <crystal>
    <varray name="basis" >
     <v>       6.05568379       0.00000000      -3.64941915 </v>
     <v>      -1.93250127       5.73905437      -3.64941915 </v>
     <v>       0.00000000       0.00000000       7.07033000 </v>
    </varray>
    <i name="volume">    245.72153124 </i>
    <varray name="rec_basis" >
     <v>       0.16513412       0.05560531       0.00000000 </v>
     <v>       0.00000000       0.17424473       0.00000000 </v>
     <v>       0.08523557       0.11863932       0.14143611 </v>
    </varray>
   </crystal>
   <varray name="positions" >
    <v>       0.59654000       0.29980000       0.70105000 </v>
    <v>       0.90125000       0.20020000       0.29674000 </v>
    <v>       0.29980000       0.59875000       0.70326000 </v>
    <v>       0.40346000       0.70020000       0.29895000 </v>
    <v>       0.39549000       0.09875000       0.29895000 </v>
    <v>       0.60451000       0.90125000       0.70105000 </v>
    <v>       0.10451000       0.40346000       0.70326000 </v>
    <v>       0.90346000       0.60451000       0.70326000 </v>
    <v>       0.09654000       0.39549000       0.29674000 </v>
    <v>       0.20020000       0.90346000       0.29895000 </v>
    <v>       0.89549000       0.59654000       0.29674000 </v>
    <v>       0.79980000       0.09654000       0.70105000 </v>
    <v>       0.09875000       0.79980000       0.70326000 </v>
    <v>       0.40125000       0.10451000       0.70105000 </v>
    <v>       0.70020000       0.40125000       0.29674000 </v>
    <v>       0.59875000       0.89549000       0.29895000 </v>
    <v>       0.25000000       0.75000000       0.50000000 </v>
    <v>       0.75000000       0.75000000       0.00000000 </v>
    <v>       0.25000000       0.25000000       0.00000000 </v>
    <v>       0.75000000       0.25000000       0.50000000 </v>
    <v>       0.50000000       0.50000000       0.50000000 </v>
    <v>       0.50000000       0.00000000       0.00000000 </v>
    <v>       0.00000000       0.00000000       0.50000000 </v>
    <v>       0.00000000       0.50000000       0.00000000 </v>
   </varray>
  </structure>
  <varray name="primitive_index" >
   <v type="int" >        1 </v>
   <v type="int" >        2 </v>
   <v type="int" >        3 </v>
   <v type="int" >        4 </v>
   <v type="int" >        5 </v>
   <v type="int" >        6 </v>
   <v type="int" >        7 </v>
   <v type="int" >        8 </v>
   <v type="int" >        9 </v>
   <v type="int" >       10 </v>
   <v type="int" >       11 </v>
   <v type="int" >       12 </v>
   <v type="int" >       13 </v>
   <v type="int" >       14 </v>
   <v type="int" >       15 </v>
   <v type="int" >       16 </v>
   <v type="int" >       17 </v>
   <v type="int" >       18 </v>
   <v type="int" >       19 </v>
   <v type="int" >       20 </v>
   <v type="int" >       21 </v>
   <v type="int" >       22 </v>
   <v type="int" >       23 </v>
   <v type="int" >       24 </v>
  </varray>
 </primitive_cell>
 <kpoints>
  <generation param="Gamma">
   <v type="int" name="divisions">       6        6        7 </v>
   <v name="usershift">      0.00000000       0.00000000       0.00000000 </v>
   <v name="genvec1">      0.16666667      -0.00000000       0.00000000 </v>
   <v name="genvec2">      0.00000000       0.16666667       0.00000000 </v>
   <v name="genvec3">      0.00000000       0.00000000       0.14285714 </v>
   <v name="shift">      0.00000000       0.00000000       0.00000000 </v>
  </generation>
  <varray name="kpointlist" >
   <v>       0.00000000       0.00000000       0.00000000 </v>
   <v>       0.16666667      -0.00000000       0.00000000 </v>
   <v>       0.33333333       0.00000000       0.00000000 </v>
   <v>       0.50000000       0.00000000       0.00000000 </v>
   <v>       0.16666667       0.16666667       0.00000000 </v>
   <v>       0.33333333       0.16666667       0.00000000 </v>
   <v>       0.50000000       0.16666667       0.00000000 </v>
   <v>      -0.33333333       0.16666667       0.00000000 </v>
   <v>      -0.16666667       0.16666667       0.00000000 </v>
   <v>       0.33333333       0.33333333       0.00000000 </v>
   <v>       0.50000000       0.33333333       0.00000000 </v>
   <v>      -0.33333333       0.33333333       0.00000000 </v>
   <v>       0.50000000       0.50000000       0.00000000 </v>
   <v>       0.00000000       0.00000000       0.14285714 </v>
   <v>       0.16666667       0.00000000       0.14285714 </v>
   <v>       0.33333333       0.00000000       0.14285714 </v>
   <v>       0.50000000       0.00000000       0.14285714 </v>
   <v>      -0.33333333      -0.00000000       0.14285714 </v>
   <v>      -0.16666667       0.00000000       0.14285714 </v>
   <v>       0.16666667       0.16666667       0.14285714 </v>
   <v>       0.33333333       0.16666667       0.14285714 </v>
   <v>       0.50000000       0.16666667       0.14285714 </v>
   <v>      -0.33333333       0.16666667       0.14285714 </v>
   <v>      -0.16666667       0.16666667       0.14285714 </v>
   <v>       0.33333333       0.33333333       0.14285714 </v>
   <v>       0.50000000       0.33333333       0.14285714 </v>
   <v>      -0.33333333       0.33333333       0.14285714 </v>
   <v>      -0.16666667       0.33333333       0.14285714 </v>
   <v>       0.50000000       0.50000000       0.14285714 </v>
   <v>      -0.33333333       0.50000000       0.14285714 </v>
   <v>      -0.16666667       0.50000000       0.14285714 </v>
   <v>      -0.33333333      -0.33333333       0.14285714 </v>
   <v>      -0.16666667      -0.33333333       0.14285714 </v>
   <v>      -0.16666667      -0.16666667       0.14285714 </v>
   <v>      -0.00000000       0.00000000       0.28571429 </v>
   <v>       0.16666667       0.00000000       0.28571429 </v>
   <v>       0.33333333       0.00000000       0.28571429 </v>
   <v>       0.50000000       0.00000000       0.28571429 </v>
   <v>      -0.33333333      -0.00000000       0.28571429 </v>
   <v>      -0.16666667       0.00000000       0.28571429 </v>
   <v>       0.16666667       0.16666667       0.28571429 </v>
   <v>       0.33333333       0.16666667       0.28571429 </v>
   <v>       0.50000000       0.16666667       0.28571429 </v>
   <v>      -0.33333333       0.16666667       0.28571429 </v>
   <v>      -0.16666667       0.16666667       0.28571429 </v>
   <v>       0.33333333       0.33333333       0.28571429 </v>
   <v>       0.50000000       0.33333333       0.28571429 </v>
   <v>      -0.33333333       0.33333333       0.28571429 </v>
   <v>      -0.16666667       0.33333333       0.28571429 </v>
   <v>       0.50000000       0.50000000       0.28571429 </v>
   <v>      -0.33333333       0.50000000       0.28571429 </v>
   <v>      -0.16666667       0.50000000       0.28571429 </v>
   <v>      -0.33333333      -0.33333333       0.28571429 </v>
   <v>      -0.16666667      -0.33333333       0.28571429 </v>
   <v>      -0.16666667      -0.16666667       0.28571429 </v>
   <v>      -0.00000000       0.00000000       0.42857143 </v>
   <v>       0.16666667      -0.00000000       0.42857143 </v>
   <v>       0.33333333       0.00000000       0.42857143 </v>
   <v>       0.50000000       0.00000000       0.42857143 </v>
   <v>      -0.33333333       0.00000000       0.42857143 </v>
   <v>      -0.16666667       0.00000000       0.42857143 </v>
   <v>       0.16666667       0.16666667       0.42857143 </v>
   <v>       0.33333333       0.16666667       0.42857143 </v>
   <v>       0.50000000       0.16666667       0.42857143 </v>
   <v>      -0.33333333       0.16666667       0.42857143 </v>
   <v>      -0.16666667       0.16666667       0.42857143 </v>
   <v>       0.33333333       0.33333333       0.42857143 </v>
   <v>       0.50000000       0.33333333       0.42857143 </v>
   <v>      -0.33333333       0.33333333       0.42857143 </v>
   <v>      -0.16666667       0.33333333       0.42857143 </v>
   <v>       0.50000000       0.50000000       0.42857143 </v>
   <v>      -0.33333333       0.50000000       0.42857143 </v>
   <v>      -0.16666667       0.50000000       0.42857143 </v>
   <v>      -0.33333333      -0.33333333       0.42857143 </v>
   <v>      -0.16666667      -0.33333333       0.42857143 </v>
   <v>      -0.16666667      -0.16666667       0.42857143 </v>
  </varray>
  <varray name="weights" >
   <v>       0.00396825 </v>
   <v>       0.01587302 </v>
   <v>       0.01587302 </v>
   <v>       0.00793651 </v>
   <v>       0.00793651 </v>
   <v>       0.01587302 </v>
   <v>       0.01587302 </v>
   <v>       0.01587302 </v>
   <v>       0.00793651 </v>
   <v>       0.00793651 </v>
   <v>       0.01587302 </v>
   <v>       0.00793651 </v>
   <v>       0.00396825 </v>
   <v>       0.00793651 </v>
   <v>       0.01587302 </v>
   <v>       0.01587302 </v>
   <v>       0.01587302 </v>
   <v>       0.01587302 </v>
   <v>       0.01587302 </v>
   <v>       0.00793651 </v>
   <v>       0.01587302 </v>
   <v>       0.01587302 </v>
   <v>       0.01587302 </v>
   <v>       0.01587302 </v>
   <v>       0.00793651 </v>
   <v>       0.01587302 </v>
   <v>       0.01587302 </v>
   <v>       0.01587302 </v>
   <v>       0.00793651 </v>
   <v>       0.01587302 </v>
   <v>       0.01587302 </v>
   <v>       0.00793651 </v>
   <v>       0.01587302 </v>
   <v>       0.00793651 </v>
   <v>       0.00793651 </v>
   <v>       0.01587302 </v>
   <v>       0.01587302 </v>
   <v>       0.01587302 </v>
   <v>       0.01587302 </v>
   <v>       0.01587302 </v>
   <v>       0.00793651 </v>
   <v>       0.01587302 </v>
   <v>       0.01587302 </v>
   <v>       0.01587302 </v>
   <v>       0.01587302 </v>
   <v>       0.00793651 </v>
   <v>       0.01587302 </v>
   <v>       0.01587302 </v>
   <v>       0.01587302 </v>
   <v>       0.00793651 </v>
   <v>       0.01587302 </v>
   <v>       0.01587302 </v>
   <v>       0.00793651 </v>
   <v>       0.01587302 </v>
   <v>       0.00793651 </v>
   <v>       0.00793651 </v>
   <v>       0.01587302 </v>
   <v>       0.01587302 </v>
   <v>       0.01587302 </v>
   <v>       0.01587302 </v>
   <v>       0.01587302 </v>
   <v>       0.00793651 </v>
   <v>       0.01587302 </v>
   <v>       0.01587302 </v>
   <v>       0.01587302 </v>
   <v>       0.01587302 </v>
   <v>       0.00793651 </v>
   <v>       0.01587302 </v>
   <v>       0.01587302 </v>
   <v>       0.01587302 </v>
   <v>       0.00793651 </v>
   <v>       0.01587302 </v>
   <v>       0.01587302 </v>
   <v>       0.00793651 </v>
   <v>       0.01587302 </v>
   <v>       0.00793651 </v>
  </varray>
 </kpoints>
 <parameters>
  <separator name="general" >
   <i type="string" name="SYSTEM">routine with relax: pwdword</i>
   <i type="logical" name="LCOMPAT"> F  </i>
  </separator>
  <separator name="electronic" >
   <i type="string" name="PREC">acc</i>
   <i name="ENMAX">    600.00000000</i>
   <i name="ENAUG">    535.51400000</i>
   <i name="EDIFF">      0.00000000</i>
   <i type="int" name="IALGO">    58</i>
   <i type="int" name="IWAVPR">    10</i>
   <i type="int" name="NBANDS">    78</i>
   <i type="int" name="NBANDSLOW">    -1</i>
   <i type="int" name="NBANDSHIGH">    -1</i>
   <i name="NELECT">    120.00000000</i>
   <i type="int" name="TURBO">     0</i>
   <i type="int" name="IRESTART">     0</i>
   <i type="int" name="NREBOOT">     0</i>
   <i type="int" name="NMIN">     0</i>
   <i name="EREF">      0.00000000</i>
   <separator name="electronic smearing" >
    <i type="int" name="ISMEAR">     0</i>
    <i name="SIGMA">      0.02000000</i>
    <i name="KSPACING">      0.50000000</i>
    <i type="logical" name="KGAMMA"> T  </i>
    <i type="logical" name="KBLOWUP"> F  </i>
   </separator>
   <separator name="electronic projectors" >
    <i type="logical" name="LREAL"> F  </i>
    <v name="ROPT">      0.00000000      0.00000000      0.00000000</v>
    <i type="int" name="LMAXPAW">  -100</i>
    <i type="int" name="LMAXMIX">     2</i>
    <i type="logical" name="NLSPLINE"> F  </i>
   </separator>
   <separator name="electronic startup" >
    <i type="int" name="ISTART">     0</i>
    <i type="int" name="ICHARG">     2</i>
    <i type="int" name="INIWAV">     1</i>
   </separator>
   <separator name="electronic spin" >
    <i type="int" name="ISPIN">     1</i>
    <i type="logical" name="LNONCOLLINEAR"> F  </i>
    <v name="MAGMOM">      1.00000000      1.00000000      1.00000000      1.00000000      1.00000000      1.00000000      1.00000000      1.00000000      1.00000000      1.00000000      1.00000000      1.00000000      1.00000000      1.00000000      1.00000000      1.00000000      1.00000000      1.00000000      1.00000000      1.00000000
      1.00000000      1.00000000      1.00000000      1.00000000</v>
    <i name="NUPDOWN">     -1.00000000</i>
    <i type="logical" name="LSORBIT"> F  </i>
    <v name="SAXIS">      0.00000000      0.00000000      1.00000000</v>
    <i type="logical" name="LSPIRAL"> F  </i>
    <v name="QSPIRAL">      0.00000000      0.00000000      0.00000000</v>
    <i type="logical" name="LZEROZ"> F  </i>
   </separator>
   <separator name="electronic exchange-correlation" >
    <i type="logical" name="LASPH"> T  </i>
    <i type="logical" name="LMETAGGA"> F  </i>
   </separator>
   <separator name="electronic convergence" >
    <i type="int" name="NELM">   100</i>
    <i type="int" name="NELMDL">    -5</i>
    <i type="int" name="NELMIN">     6</i>
    <i name="ENINI">    600.00000000</i>
    <separator name="electronic convergence detail" >
     <i type="logical" name="LDIAG"> T  </i>
     <i type="logical" name="LSUBROT"> F  </i>
     <i name="WEIMIN">      0.00000000</i>
     <i name="EBREAK">      0.00000000</i>
     <i name="DEPER">      0.30000000</i>
     <i type="int" name="NRMM">     4</i>
     <i name="TIME">      0.40000000</i>
    </separator>
   </separator>
   <separator name="electronic mixer" >
    <i name="AMIX">      0.40000000</i>
    <i name="BMIX">      1.00000000</i>
    <i name="AMIN">      0.10000000</i>
    <i name="AMIX_MAG">      1.60000000</i>
    <i name="BMIX_MAG">      1.00000000</i>
    <separator name="electronic mixer details" >
     <i type="int" name="IMIX">     4</i>
     <i type="logical" name="MIXFIRST"> F  </i>
     <i type="int" name="MAXMIX">   -45</i>
     <i name="WC">    100.00000000</i>
     <i type="int" name="INIMIX">     1</i>
     <i type="int" name="MIXPRE">     1</i>
     <i type="int" name="MREMOVE">     5</i>
    </separator>
   </separator>
   <separator name="electronic dipolcorrection" >
    <i type="logical" name="LDIPOL"> F  </i>
    <i type="logical" name="LMONO"> F  </i>
    <i type="int" name="IDIPOL">     0</i>
    <i name="EPSILON">      1.00000000</i>
    <v name="DIPOL">   -100.00000000   -100.00000000   -100.00000000</v>
    <i name="EFIELD">      0.00000000</i>
   </separator>
  </separator>
  <separator name="grids" >
   <i type="int" name="NGX">    56</i>
   <i type="int" name="NGY">    56</i>
   <i type="int" name="NGZ">    56</i>
   <i type="int" name="NGXF">   112</i>
   <i type="int" name="NGYF">   112</i>
   <i type="int" name="NGZF">   112</i>
   <i type="logical" name="ADDGRID"> T  </i>
  </separator>
  <separator name="ionic" >
   <i type="int" name="NSW">     0</i>
   <i type="int" name="IBRION">    -1</i>
   <i type="int" name="MDALGO">     0</i>
   <i type="int" name="ISIF">    -1</i>
   <i name="PSTRESS">      0.00000000</i>
   <i name="EDIFFG">      0.00000001</i>
   <i type="int" name="NFREE">     0</i>
   <i name="POTIM">      0.50000000</i>
   <i name="SMASS">     -3.00000000</i>
   <i name="SCALEE">      1.00000000</i>
  </separator>
  <separator name="ionic md" >
   <i name="TEBEG">      0.00010000</i>
   <i name="TEEND">      0.00010000</i>
   <i type="int" name="NBLOCK">     1</i>
   <i type="int" name="KBLOCK">     1</i>
   <i type="int" name="NPACO">   256</i>
   <i name="APACO">     16.00000000</i>
  </separator>
  <separator name="symmetry" >
   <i type="int" name="ISYM">     2</i>
   <i name="SYMPREC">      0.00001000</i>
  </separator>
  <separator name="dos" >
   <i type="int" name="LORBIT">     0</i>
   <v name="RWIGS">     -1.00000000     -1.00000000     -1.00000000</v>
   <i type="int" name="NEDOS">   301</i>
   <i name="EMIN">     10.00000000</i>
   <i name="EMAX">    -10.00000000</i>
   <i name="EFERMI">      0.00000000</i>
  </separator>
  <separator name="writing" >
   <i type="int" name="NWRITE">     2</i>
   <i type="logical" name="LWAVE"> T  </i>
   <i type="logical" name="LDOWNSAMPLE"> F  </i>
   <i type="logical" name="LCHARG"> T  </i>
   <i type="logical" name="LPARD"> F  </i>
   <i type="logical" name="LVTOT"> F  </i>
   <i type="logical" name="LVHAR"> F  </i>
   <i type="logical" name="LELF"> F  </i>
   <i type="logical" name="LOPTICS"> F  </i>
   <v name="STM">      0.00000000      0.00000000      0.00000000      0.00000000      0.00000000      0.00000000      0.00000000</v>
  </separator>
  <separator name="performance" >
   <i type="int" name="NPAR">     6</i>
   <i type="int" name="NSIM">     4</i>
   <i type="int" name="NBLK">    -1</i>
   <i type="logical" name="LPLANE"> T  </i>
   <i type="logical" name="LSCALAPACK"> T  </i>
   <i type="logical" name="LSCAAWARE"> F  </i>
   <i type="logical" name="LSCALU"> F  </i>
   <i type="logical" name="LASYNC"> F  </i>
   <i type="logical" name="LORBITALREAL"> F  </i>
  </separator>
  <separator name="miscellaneous" >
   <i type="int" name="IDIOT">     3</i>
   <i type="int" name="PHON_NSTRUCT">    -1</i>
   <i type="logical" name="LMUSIC"> F  </i>
   <v name="POMASS">     10.81100000     95.94000000     28.08500000</v>
   <v name="DARWINR">      0.00000000      0.00000000      0.00000000</v>
   <v name="DARWINV">      1.00000000      1.00000000      1.00000000</v>
   <i type="logical" name="LCORR"> T  </i>
  </separator>
  <i type="logical" name="GGA_COMPAT"> T  </i>
  <i type="logical" name="LBERRY"> F  </i>
  <i type="int" name="ICORELEVEL">     0</i>
  <i type="logical" name="LDAU"> F  </i>
  <i type="int" name="I_CONSTRAINED_M">     0</i>
  <separator name="electronic exchange-correlation" >
   <i type="string" name="GGA">--</i>
   <i type="int" name="VOSKOWN">     0</i>
   <i type="logical" name="LHFCALC"> F  </i>
   <i type="string" name="PRECFOCK"></i>
   <i type="logical" name="LSYMGRAD"> F  </i>
   <i type="logical" name="LHFONE"> F  </i>
   <i type="logical" name="LRHFCALC"> F  </i>
   <i type="logical" name="LTHOMAS"> F  </i>
   <i type="logical" name="LMODELHF"> F  </i>
   <i type="logical" name="LFOCKACE"> F  </i>
   <i name="ENCUT4O">     -1.00000000</i>
   <i type="int" name="EXXOEP">     0</i>
   <i type="int" name="FOURORBIT">     0</i>
   <i name="AEXX">      0.00000000</i>
   <i name="HFALPHA">      0.00000000</i>
   <i name="MCALPHA">      0.00000000</i>
   <i name="ALDAX">      1.00000000</i>
   <i name="AGGAX">      1.00000000</i>
   <i name="ALDAC">      1.00000000</i>
   <i name="AGGAC">      1.00000000</i>
   <i type="int" name="NKREDX">     1</i>
   <i type="int" name="NKREDY">     1</i>
   <i type="int" name="NKREDZ">     1</i>
   <i type="logical" name="SHIFTRED"> F  </i>
   <i type="logical" name="ODDONLY"> F  </i>
   <i type="logical" name="EVENONLY"> F  </i>
   <i type="int" name="LMAXFOCK">     0</i>
   <i type="int" name="NMAXFOCKAE">     0</i>
   <i type="logical" name="LFOCKAEDFT"> F  </i>
   <i name="HFSCREEN">      0.00000000</i>
   <i name="HFSCREENC">      0.00000000</i>
   <i type="int" name="NBANDSGWLOW">     0</i>
  </separator>
  <separator name="vdW DFT" >
   <i type="logical" name="LUSE_VDW"> F  </i>
   <i name="Zab_VDW">     -0.84910000</i>
   <i name="PARAM1">      0.12340000</i>
   <i name="PARAM2">      1.00000000</i>
   <i name="PARAM3">      0.00000000</i>
  </separator>
  <separator name="model GW" >
   <i type="int" name="MODEL_GW">     0</i>
   <i name="MODEL_EPS0">      6.14303828</i>
   <i name="MODEL_ALPHA">      1.00000000</i>
  </separator>
  <separator name="linear response parameters" >
   <i type="logical" name="LEPSILON"> F  </i>
   <i type="logical" name="LRPA"> F  </i>
   <i type="logical" name="LNABLA"> F  </i>
   <i type="logical" name="LVEL"> F  </i>
   <i type="int" name="KINTER">     0</i>
   <i name="CSHIFT">      0.10000000</i>
   <i name="OMEGAMAX">     -1.00000000</i>
   <i name="DEG_THRESHOLD">      0.00200000</i>
   <i name="RTIME">     -0.10000000</i>
   <i name="WPLASMAI">      0.00000000</i>
   <v name="DFIELD">      0.00000000      0.00000000      0.00000000</v>
   <v name="WPLASMA">      0.00000000      0.00000000      0.00000000      0.00000000      0.00000000      0.00000000      0.00000000      0.00000000      0.00000000</v>
  </separator>
  <separator name="orbital magnetization" >
   <i type="logical" name="NUCIND"> F  </i>
   <v name="MAGPOS">      0.00000000      0.00000000      0.00000000</v>
   <i type="logical" name="LNICSALL"> T  </i>
   <i type="logical" name="ORBITALMAG"> F  </i>
   <i type="logical" name="LMAGBLOCH"> F  </i>
   <i type="logical" name="LCHIMAG"> F  </i>
   <i type="logical" name="LGAUGE"> T  </i>
   <i type="int" name="MAGATOM">     0</i>
   <v name="MAGDIPOL">      0.00000000      0.00000000      0.00000000</v>
   <v name="AVECCONST">      0.00000000      0.00000000      0.00000000</v>
  </separator>
  <separator name="response functions" >
   <i type="logical" name="LFINITE_TEMPERATURE"> F  </i>
   <i type="logical" name="LADDER"> F  </i>
   <i type="logical" name="LRPAFORCE"> F  </i>
   <i type="logical" name="LFXC"> F  </i>
   <i type="logical" name="LHARTREE"> T  </i>
   <i type="int" name="IBSE">     0</i>
   <v type="int" name="KPOINT">    -1     0     0     0</v>
   <i type="logical" name="LTCTC"> F  </i>
   <i type="logical" name="LTCTE"> F  </i>
   <i type="logical" name="LTETE"> F  </i>
   <i type="logical" name="LTRIPLET"> F  </i>
   <i type="logical" name="LFXCEPS"> F  </i>
   <i type="logical" name="LFXHEG"> F  </i>
   <i type="int" name="NATURALO">     2</i>
   <i type="logical" name="LHOLEGF"> F  </i>
   <i type="logical" name="L2ORDER"> F  </i>
   <i type="logical" name="LDMP1"> F  </i>
   <i type="logical" name="LMP2LT"> F  </i>
   <i type="logical" name="LSMP2LT"> F  </i>
   <i type="logical" name="LGWLF"> F  </i>
   <i name="ENCUTGW">     -2.00000000</i>
   <i name="ENCUTGWSOFT">     -2.00000000</i>
   <i name="ENCUTLF">     -1.00000000</i>
   <i type="logical" name="LESF_SPLINES"> F  </i>
   <i type="int" name="LMAXMP2">    -1</i>
   <i name="SCISSOR">      0.00000000</i>
   <i type="int" name="NOMEGA">     0</i>
   <i type="int" name="NOMEGAR">     0</i>
   <i type="int" name="NBANDSGW">    -1</i>
   <i type="int" name="NBANDSO">    -1</i>
   <i type="int" name="NBANDSV">    -1</i>
   <i type="int" name="NELM">   100</i>
   <i type="int" name="NELMHF">     1</i>
   <i type="int" name="DIM">     3</i>
   <i type="int" name="IESPILON">     4</i>
   <i type="int" name="ANTIRES">     0</i>
   <i name="OMEGAMAX">    -30.00000000</i>
   <i name="OMEGAMIN">    -30.00000000</i>
   <i name="OMEGATL">   -200.00000000</i>
   <i type="int" name="OMEGAGRID">     0</i>
   <i name="CSHIFT">     -0.10000000</i>
   <i type="logical" name="LSELFENERGY"> F  </i>
   <i type="logical" name="LSPECTRAL"> F  </i>
   <i type="logical" name="LSPECTRALGW"> F  </i>
   <i type="logical" name="LSINGLES"> F  </i>
   <i type="logical" name="LFERMIGW"> F  </i>
   <i type="logical" name="ODDONLYGW"> F  </i>
   <i type="logical" name="EVENONLYGW"> F  </i>
   <i type="int" name="NKREDLFX">     1</i>
   <i type="int" name="NKREDLFY">     1</i>
   <i type="int" name="NKREDLFZ">     1</i>
   <i type="int" name="MAXMEM">  2800</i>
   <i type="int" name="TELESCOPE">     0</i>
   <i type="int" name="NTAUPAR">    -1</i>
   <i type="int" name="NOMEGAPAR">    -1</i>
   <i name="DAMP_NEWTON">      0.80000001</i>
   <i name="LAMBDA">      1.00000000</i>
  </separator>
  <separator name="External order field" >
   <i name="OFIELD_KAPPA">      0.00000000</i>
   <v name="OFIELD_K">      0.00000000      0.00000000      0.00000000</v>
   <i name="OFIELD_Q6_NEAR">      0.00000000</i>
   <i name="OFIELD_Q6_FAR">      0.00000000</i>
   <i name="OFIELD_A">      0.00000000</i>
  </separator>
 </parameters>
 <atominfo>
  <atoms>      24 </atoms>
  <types>       3 </types>
  <array name="atoms" >
   <dimension dim="1">ion</dimension>
   <field type="string">element</field>
   <field type="int">atomtype</field>
   <set>
    <rc><c>B </c><c>   1</c></rc>
    <rc><c>B </c><c>   1</c></rc>
    <rc><c>B </c><c>   1</c></rc>
    <rc><c>B </c><c>   1</c></rc>
    <rc><c>B </c><c>   1</c></rc>
    <rc><c>B </c><c>   1</c></rc>
    <rc><c>B </c><c>   1</c></rc>
    <rc><c>B </c><c>   1</c></rc>
    <rc><c>B </c><c>   1</c></rc>
    <rc><c>B </c><c>   1</c></rc>
    <rc><c>B </c><c>   1</c></rc>
    <rc><c>B </c><c>   1</c></rc>
    <rc><c>B </c><c>   1</c></rc>
    <rc><c>B </c><c>   1</c></rc>
    <rc><c>B </c><c>   1</c></rc>
    <rc><c>B </c><c>   1</c></rc>
    <rc><c>Mo</c><c>   2</c></rc>
    <rc><c>Mo</c><c>   2</c></rc>
    <rc><c>Mo</c><c>   2</c></rc>
    <rc><c>Mo</c><c>   2</c></rc>
    <rc><c>Si</c><c>   3</c></rc>
    <rc><c>Si</c><c>   3</c></rc>
    <rc><c>Si</c><c>   3</c></rc>
    <rc><c>Si</c><c>   3</c></rc>
   </set>
  </array>
  <array name="atomtypes" >
   <dimension dim="1">type</dimension>
   <field type="int">atomspertype</field>
   <field type="string">element</field>
   <field>mass</field>
   <field>valence</field>
   <field type="string">pseudopotential</field>
   <set>
    <rc><c>  16</c><c>B </c><c>     10.81100000</c><c>      3.00000000</c><c>  PAW_PBE B 06Sep2000                   </c></rc>
    <rc><c>   4</c><c>Mo</c><c>     95.94000000</c><c>     14.00000000</c><c>  PAW_PBE Mo_sv 02Feb2006               </c></rc>
    <rc><c>   4</c><c>Si</c><c>     28.08500000</c><c>      4.00000000</c><c>  PAW_PBE Si 05Jan2001                  </c></rc>
   </set>
  </array>
 </atominfo>
 <structure name="initialpos" >
  <crystal>
   <varray name="basis" >
    <v>       6.05568379       0.00000000      -3.64941915 </v>
    <v>      -1.93250127       5.73905437      -3.64941915 </v>
    <v>       0.00000000       0.00000000       7.07033000 </v>
   </varray>
   <i name="volume">    245.72153124 </i>
   <varray name="rec_basis" >
    <v>       0.16513412       0.05560531       0.00000000 </v>
    <v>       0.00000000       0.17424473       0.00000000 </v>
    <v>       0.08523557       0.11863932       0.14143611 </v>
   </varray>
  </crystal>
  <varray name="positions" >
   <v>       0.59654000       0.29980000       0.70105000 </v>
   <v>       0.90125000       0.20020000       0.29674000 </v>
   <v>       0.29980000       0.59875000       0.70326000 </v>
   <v>       0.40346000       0.70020000       0.29895000 </v>
   <v>       0.39549000       0.09875000       0.29895000 </v>
   <v>       0.60451000       0.90125000       0.70105000 </v>
   <v>       0.10451000       0.40346000       0.70326000 </v>
   <v>       0.90346000       0.60451000       0.70326000 </v>
   <v>       0.09654000       0.39549000       0.29674000 </v>
   <v>       0.20020000       0.90346000       0.29895000 </v>
   <v>       0.89549000       0.59654000       0.29674000 </v>
   <v>       0.79980000       0.09654000       0.70105000 </v>
   <v>       0.09875000       0.79980000       0.70326000 </v>
   <v>       0.40125000       0.10451000       0.70105000 </v>
   <v>       0.70020000       0.40125000       0.29674000 </v>
   <v>       0.59875000       0.89549000       0.29895000 </v>
   <v>       0.25000000       0.75000000       0.50000000 </v>
   <v>       0.75000000       0.75000000       0.00000000 </v>
   <v>       0.25000000       0.25000000       0.00000000 </v>
   <v>       0.75000000       0.25000000       0.50000000 </v>
   <v>       0.50000000       0.50000000       0.50000000 </v>
   <v>       0.50000000       0.00000000       0.00000000 </v>
   <v>       0.00000000       0.00000000       0.50000000 </v>
   <v>       0.00000000       0.50000000       0.00000000 </v>
  </varray>
 </structure>
 <calculation>
  <scstep>
   <time name="total">   33.05   33.37</time>
   <energy>
    <i name="alphaZ">    452.75799648 </i>
    <i name="ewald">  -6824.65736903 </i>
    <i name="hartreedc">  -2531.32377474 </i>
    <i name="XCdc">    428.75635260 </i>
    <i name="pawpsdc">   6945.64546698 </i>
    <i name="pawaedc">  -6895.70752736 </i>
    <i name="eentropy">     -0.00043644 </i>
    <i name="bandstr">    237.86576373 </i>
    <i name="atom">   9000.10993332 </i>
    <i name="e_fr_energy">    813.44640555 </i>
    <i name="e_wo_entrp">    813.44684199 </i>
    <i name="e_0_energy">    813.44662377 </i>
   </energy>
  </scstep>
  <scstep>
   <time name="total">   34.65   35.40</time>
   <energy>
    <i name="e_fr_energy">   -215.46502785 </i>
    <i name="e_wo_entrp">   -215.46292903 </i>
    <i name="e_0_energy">   -215.46397844 </i>
   </energy>
  </scstep>
  <scstep>
   <time name="total">   39.22   39.97</time>
   <energy>
    <i name="e_fr_energy">   -269.17683401 </i>
    <i name="e_wo_entrp">   -269.17495582 </i>
    <i name="e_0_energy">   -269.17589491 </i>
   </energy>
  </scstep>
  <scstep>
   <time name="total">   37.41   38.10</time>
   <energy>
    <i name="e_fr_energy">   -270.43846326 </i>
    <i name="e_wo_entrp">   -270.43623900 </i>
    <i name="e_0_energy">   -270.43735113 </i>
   </energy>
  </scstep>
  <scstep>
   <time name="total">   40.41   41.18</time>
   <energy>
    <i name="e_fr_energy">   -270.46532127 </i>
    <i name="e_wo_entrp">   -270.46309905 </i>
    <i name="e_0_energy">   -270.46421016 </i>
   </energy>
  </scstep>
  <scstep>
   <time name="total">   38.83   39.24</time>
   <energy>
    <i name="e_fr_energy">   -196.20590611 </i>
    <i name="e_wo_entrp">   -196.20323362 </i>
    <i name="e_0_energy">   -196.20456986 </i>
   </energy>
  </scstep>
  <scstep>
   <time name="total">   42.02   42.54</time>
   <energy>
    <i name="e_fr_energy">   -227.10415088 </i>
    <i name="e_wo_entrp">   -227.10016698 </i>
    <i name="e_0_energy">   -227.10215893 </i>
   </energy>
  </scstep>
  <scstep>
   <time name="total">   45.15   45.67</time>
   <energy>
    <i name="e_fr_energy">   -229.73806558 </i>
    <i name="e_wo_entrp">   -229.73464023 </i>
    <i name="e_0_energy">   -229.73635291 </i>
   </energy>
  </scstep>
  <scstep>
   <time name="total">   44.30   44.67</time>
   <energy>
    <i name="e_fr_energy">   -230.56588591 </i>
    <i name="e_wo_entrp">   -230.56258855 </i>
    <i name="e_0_energy">   -230.56423723 </i>
   </energy>
  </scstep>
  <scstep>
   <time name="total">   43.55   43.93</time>
   <energy>
    <i name="e_fr_energy">   -230.88926307 </i>
    <i name="e_wo_entrp">   -230.88626029 </i>
    <i name="e_0_energy">   -230.88776168 </i>
   </energy>
  </scstep>
  <scstep>
   <time name="total">   45.01   45.39</time>
   <energy>
    <i name="e_fr_energy">   -230.98687109 </i>
    <i name="e_wo_entrp">   -230.98349500 </i>
    <i name="e_0_energy">   -230.98518305 </i>
   </energy>
  </scstep>
  <scstep>
   <time name="total">   41.13   41.48</time>
   <energy>
    <i name="e_fr_energy">   -231.03251637 </i>
    <i name="e_wo_entrp">   -231.02848175 </i>
    <i name="e_0_energy">   -231.03049906 </i>
   </energy>
  </scstep>
  <scstep>
   <time name="total">   43.25   43.65</time>
   <energy>
    <i name="e_fr_energy">   -231.06081898 </i>
    <i name="e_wo_entrp">   -231.05681750 </i>
    <i name="e_0_energy">   -231.05881824 </i>
   </energy>
  </scstep>
  <scstep>
   <time name="total">   43.32   43.72</time>
   <energy>
    <i name="e_fr_energy">   -231.07185537 </i>
    <i name="e_wo_entrp">   -231.06784246 </i>
    <i name="e_0_energy">   -231.06984891 </i>
   </energy>
  </scstep>
  <scstep>
   <time name="total">   44.72   45.37</time>
   <energy>
    <i name="e_fr_energy">   -231.07717953 </i>
    <i name="e_wo_entrp">   -231.07315781 </i>
    <i name="e_0_energy">   -231.07516867 </i>
   </energy>
  </scstep>
  <scstep>
   <time name="total">   43.37   43.75</time>
   <energy>
    <i name="e_fr_energy">   -231.07972109 </i>
    <i name="e_wo_entrp">   -231.07569157 </i>
    <i name="e_0_energy">   -231.07770633 </i>
   </energy>
  </scstep>
  <scstep>
   <time name="total">   41.11   41.47</time>
   <energy>
    <i name="e_fr_energy">   -231.08053684 </i>
    <i name="e_wo_entrp">   -231.07647705 </i>
    <i name="e_0_energy">   -231.07850695 </i>
   </energy>
  </scstep>
  <scstep>
   <time name="total">   41.22   41.58</time>
   <energy>
    <i name="e_fr_energy">   -231.08095102 </i>
    <i name="e_wo_entrp">   -231.07686332 </i>
    <i name="e_0_energy">   -231.07890717 </i>
   </energy>
  </scstep>
  <scstep>
   <time name="total">   40.41   40.76</time>
   <energy>
    <i name="e_fr_energy">   -231.08116589 </i>
    <i name="e_wo_entrp">   -231.07705988 </i>
    <i name="e_0_energy">   -231.07911289 </i>
   </energy>
  </scstep>
  <scstep>
   <time name="total">   44.18   44.56</time>
   <energy>
    <i name="e_fr_energy">   -231.08123797 </i>
    <i name="e_wo_entrp">   -231.07711950 </i>
    <i name="e_0_energy">   -231.07917873 </i>
   </energy>
  </scstep>
  <scstep>
   <time name="total">   45.40   46.09</time>
   <energy>
    <i name="e_fr_energy">   -231.08126880 </i>
    <i name="e_wo_entrp">   -231.07714807 </i>
    <i name="e_0_energy">   -231.07920843 </i>
   </energy>
  </scstep>
  <scstep>
   <time name="total">   45.54   46.10</time>
   <energy>
    <i name="e_fr_energy">   -231.08128124 </i>
    <i name="e_wo_entrp">   -231.07715820 </i>
    <i name="e_0_energy">   -231.07921972 </i>
   </energy>
  </scstep>
  <scstep>
   <time name="total">   45.52   46.09</time>
   <energy>
    <i name="e_fr_energy">   -231.08128643 </i>
    <i name="e_wo_entrp">   -231.07716314 </i>
    <i name="e_0_energy">   -231.07922478 </i>
   </energy>
  </scstep>
  <scstep>
   <time name="total">   44.35   44.73</time>
   <energy>
    <i name="e_fr_energy">   -231.08128955 </i>
    <i name="e_wo_entrp">   -231.07716788 </i>
    <i name="e_0_energy">   -231.07922871 </i>
   </energy>
  </scstep>
  <scstep>
   <time name="total">   44.22   44.87</time>
   <energy>
    <i name="e_fr_energy">   -231.08129037 </i>
    <i name="e_wo_entrp">   -231.07716953 </i>
    <i name="e_0_energy">   -231.07922995 </i>
   </energy>
  </scstep>
  <scstep>
   <time name="total">   46.15   46.58</time>
   <energy>
    <i name="e_fr_energy">   -231.08129112 </i>
    <i name="e_wo_entrp">   -231.07717047 </i>
    <i name="e_0_energy">   -231.07923080 </i>
   </energy>
  </scstep>
  <scstep>
   <time name="total">   42.51   42.98</time>
   <energy>
    <i name="e_fr_energy">   -231.08129130 </i>
    <i name="e_wo_entrp">   -231.07717112 </i>
    <i name="e_0_energy">   -231.07923121 </i>
   </energy>
  </scstep>
  <scstep>
   <time name="total">   46.13   46.77</time>
   <energy>
    <i name="e_fr_energy">   -231.08129145 </i>
    <i name="e_wo_entrp">   -231.07717164 </i>
    <i name="e_0_energy">   -231.07923155 </i>
   </energy>
  </scstep>
  <scstep>
   <time name="total">   43.72   44.15</time>
   <energy>
    <i name="e_fr_energy">   -231.08129156 </i>
    <i name="e_wo_entrp">   -231.07717179 </i>
    <i name="e_0_energy">   -231.07923167 </i>
   </energy>
  </scstep>
  <scstep>
   <time name="total">   45.69   46.08</time>
   <energy>
    <i name="e_fr_energy">   -231.08129159 </i>
    <i name="e_wo_entrp">   -231.07717181 </i>
    <i name="e_0_energy">   -231.07923170 </i>
   </energy>
  </scstep>
  <scstep>
   <time name="total">   44.18   44.79</time>
   <energy>
    <i name="e_fr_energy">   -231.08129159 </i>
    <i name="e_wo_entrp">   -231.07717185 </i>
    <i name="e_0_energy">   -231.07923172 </i>
   </energy>
  </scstep>
  <scstep>
   <time name="total">   44.58   45.24</time>
   <energy>
    <i name="e_fr_energy">   -231.08129159 </i>
    <i name="e_wo_entrp">   -231.07717189 </i>
    <i name="e_0_energy">   -231.07923174 </i>
   </energy>
  </scstep>
  <scstep>
   <time name="total">   44.89   45.59</time>
   <energy>
    <i name="e_fr_energy">   -231.08129159 </i>
    <i name="e_wo_entrp">   -231.07717192 </i>
    <i name="e_0_energy">   -231.07923176 </i>
   </energy>
  </scstep>
  <scstep>
   <time name="total">   44.29   44.67</time>
   <energy>
    <i name="e_fr_energy">   -231.08129159 </i>
    <i name="e_wo_entrp">   -231.07717195 </i>
    <i name="e_0_energy">   -231.07923177 </i>
   </energy>
  </scstep>
  <scstep>
   <time name="total">   45.41   46.01</time>
   <energy>
    <i name="e_fr_energy">   -231.08129159 </i>
    <i name="e_wo_entrp">   -231.07717197 </i>
    <i name="e_0_energy">   -231.07923178 </i>
   </energy>
  </scstep>
  <scstep>
   <time name="total">   47.01   47.41</time>
   <energy>
    <i name="e_fr_energy">   -231.08129159 </i>
    <i name="e_wo_entrp">   -231.07717199 </i>
    <i name="e_0_energy">   -231.07923179 </i>
   </energy>
  </scstep>
  <scstep>
   <time name="total">   44.92   45.50</time>
   <energy>
    <i name="e_fr_energy">   -231.08129159 </i>
    <i name="e_wo_entrp">   -231.07717201 </i>
    <i name="e_0_energy">   -231.07923180 </i>
   </energy>
  </scstep>
  <scstep>
   <time name="total">   45.47   46.13</time>
   <energy>
    <i name="e_fr_energy">   -231.08129159 </i>
    <i name="e_wo_entrp">   -231.07717202 </i>
    <i name="e_0_energy">   -231.07923181 </i>
   </energy>
  </scstep>
  <scstep>
   <time name="total">   46.14   46.63</time>
   <energy>
    <i name="e_fr_energy">   -231.08129159 </i>
    <i name="e_wo_entrp">   -231.07717203 </i>
    <i name="e_0_energy">   -231.07923181 </i>
   </energy>
  </scstep>
  <scstep>
   <time name="total">   52.53   53.17</time>
   <energy>
    <i name="alphaZ">    452.75799648 </i>
    <i name="ewald">  -6824.65736903 </i>
    <i name="hartreedc">  -2469.34849208 </i>
    <i name="XCdc">    441.19485627 </i>
    <i name="pawpsdc">  15323.42181117 </i>
    <i name="pawaedc"> -15287.18856653 </i>
    <i name="eentropy">     -0.00411955 </i>
    <i name="bandstr">   -867.36734164 </i>
    <i name="atom">   9000.10993332 </i>
    <i name="e_fr_energy">   -231.08129159 </i>
    <i name="e_wo_entrp">   -231.07717204 </i>
    <i name="e_0_energy">   -231.07923181 </i>
   </energy>
  </scstep>
  <structure>
   <crystal>
    <varray name="basis" >
     <v>       6.05568379       0.00000000      -3.64941915 </v>
     <v>      -1.93250127       5.73905437      -3.64941915 </v>
     <v>       0.00000000       0.00000000       7.07033000 </v>
    </varray>
    <i name="volume">    245.72153124 </i>
    <varray name="rec_basis" >
     <v>       0.16513412       0.05560531       0.00000000 </v>
     <v>       0.00000000       0.17424473       0.00000000 </v>
     <v>       0.08523557       0.11863932       0.14143611 </v>
    </varray>
   </crystal>
   <varray name="positions" >
    <v>       0.59654000       0.29980000       0.70105000 </v>
    <v>       0.90125000       0.20020000       0.29674000 </v>
    <v>       0.29980000       0.59875000       0.70326000 </v>
    <v>       0.40346000       0.70020000       0.29895000 </v>
    <v>       0.39549000       0.09875000       0.29895000 </v>
    <v>       0.60451000       0.90125000       0.70105000 </v>
    <v>       0.10451000       0.40346000       0.70326000 </v>
    <v>       0.90346000       0.60451000       0.70326000 </v>
    <v>       0.09654000       0.39549000       0.29674000 </v>
    <v>       0.20020000       0.90346000       0.29895000 </v>
    <v>       0.89549000       0.59654000       0.29674000 </v>
    <v>       0.79980000       0.09654000       0.70105000 </v>
    <v>       0.09875000       0.79980000       0.70326000 </v>
    <v>       0.40125000       0.10451000       0.70105000 </v>
    <v>       0.70020000       0.40125000       0.29674000 </v>
    <v>       0.59875000       0.89549000       0.29895000 </v>
    <v>       0.25000000       0.75000000       0.50000000 </v>
    <v>       0.75000000       0.75000000       0.00000000 </v>
    <v>       0.25000000       0.25000000       0.00000000 </v>
    <v>       0.75000000       0.25000000       0.50000000 </v>
    <v>       0.50000000       0.50000000       0.50000000 </v>
    <v>       0.50000000       0.00000000       0.00000000 </v>
    <v>       0.00000000       0.00000000       0.50000000 </v>
    <v>       0.00000000       0.50000000       0.00000000 </v>
   </varray>
  </structure>
  <varray name="forces" >
   <v>       0.00000000       0.00000000       0.00000000 </v>
   <v>       0.00000000       0.00000000       0.00000000 </v>
   <v>       0.00000000       0.00000000       0.00000000 </v>
   <v>       0.00000000       0.00000000       0.00000000 </v>
   <v>       0.00000000       0.00000000       0.00000000 </v>
   <v>       0.00000000       0.00000000       0.00000000 </v>
   <v>       0.00000000       0.00000000       0.00000000 </v>
   <v>       0.00000000       0.00000000       0.00000000 </v>
   <v>       0.00000000       0.00000000       0.00000000 </v>
   <v>       0.00000000       0.00000000       0.00000000 </v>
   <v>       0.00000000       0.00000000       0.00000000 </v>
   <v>       0.00000000       0.00000000       0.00000000 </v>
   <v>       0.00000000       0.00000000       0.00000000 </v>
   <v>       0.00000000       0.00000000       0.00000000 </v>
   <v>       0.00000000       0.00000000       0.00000000 </v>
   <v>       0.00000000       0.00000000       0.00000000 </v>
   <v>       0.00000000       0.00000000       0.00000000 </v>
   <v>       0.00000000       0.00000000       0.00000000 </v>
   <v>       0.00000000       0.00000000       0.00000000 </v>
   <v>       0.00000000       0.00000000       0.00000000 </v>
   <v>       0.00000000       0.00000000       0.00000000 </v>
   <v>       0.00000000       0.00000000       0.00000000 </v>
   <v>       0.00000000       0.00000000       0.00000000 </v>
   <v>       0.00000000       0.00000000       0.00000000 </v>
  </varray>
  <varray name="stress" >
   <v>       0.00000000       0.00000000       0.00000000 </v>
   <v>       0.00000000       0.00000000       0.00000000 </v>
   <v>       0.00000000       0.00000000       0.00000000 </v>
  </varray>
  <energy>
   <i name="e_fr_energy">   -231.08129159 </i>
   <i name="e_wo_entrp">   -231.07717204 </i>
   <i name="e_0_energy">   -231.07923181 </i>
  </energy>
  <time name="totalsc"> 1740.16 1760.70</time>
  <eigenvalues>
   <array>
    <dimension dim="1">band</dimension>
    <dimension dim="2">kpoint</dimension>
    <dimension dim="3">spin</dimension>
    <field>eigene</field>
    <field>occ</field>
    <set>
     <set comment="spin 1">
      <set comment="kpoint 1">
       <r>  -54.4196    1.0000 </r>
       <r>  -54.4190    1.0000 </r>
       <r>  -54.1563    1.0000 </r>
       <r>  -54.1563    1.0000 </r>
       <r>  -28.4086    1.0000 </r>
       <r>  -28.4068    1.0000 </r>
       <r>  -28.1844    1.0000 </r>
       <r>  -28.1844    1.0000 </r>
       <r>  -28.1702    1.0000 </r>
       <r>  -28.1702    1.0000 </r>
       <r>  -27.7451    1.0000 </r>
       <r>  -27.7451    1.0000 </r>
       <r>  -27.7432    1.0000 </r>
       <r>  -27.7432    1.0000 </r>
       <r>  -27.3713    1.0000 </r>
       <r>  -27.3706    1.0000 </r>
       <r>   -6.5093    1.0000 </r>
       <r>   -3.2427    1.0000 </r>
       <r>   -3.1008    1.0000 </r>
       <r>   -2.7541    1.0000 </r>
       <r>   -2.7385    1.0000 </r>
       <r>   -2.7385    1.0000 </r>
       <r>   -2.3725    1.0000 </r>
       <r>   -2.3725    1.0000 </r>
       <r>   -2.0410    1.0000 </r>
       <r>   -1.1621    1.0000 </r>
       <r>   -0.8828    1.0000 </r>
       <r>   -0.4385    1.0000 </r>
       <r>   -0.4385    1.0000 </r>
       <r>    0.2289    1.0000 </r>
       <r>    0.2289    1.0000 </r>
       <r>    1.3985    1.0000 </r>
       <r>    1.9715    1.0000 </r>
       <r>    1.9744    1.0000 </r>
       <r>    2.1505    1.0000 </r>
       <r>    2.5042    1.0000 </r>
       <r>    2.9878    1.0000 </r>
       <r>    4.0109    1.0000 </r>
       <r>    4.0109    1.0000 </r>
       <r>    4.0193    1.0000 </r>
       <r>    4.2010    1.0000 </r>
       <r>    4.2010    1.0000 </r>
       <r>    5.4529    1.0000 </r>
       <r>    5.4852    1.0000 </r>
       <r>    5.4852    1.0000 </r>
       <r>    5.4948    1.0000 </r>
       <r>    5.4948    1.0000 </r>
       <r>    5.5538    1.0000 </r>
       <r>    5.7219    1.0000 </r>
       <r>    5.7219    1.0000 </r>
       <r>    5.9117    1.0000 </r>
       <r>    5.9663    1.0000 </r>
       <r>    6.9784    1.0000 </r>
       <r>    6.9986    1.0000 </r>
       <r>    7.0821    1.0000 </r>
       <r>    7.3889    1.0000 </r>
       <r>    8.0887    1.0000 </r>
       <r>    8.0988    1.0000 </r>
       <r>    8.2445    1.0000 </r>
       <r>    8.2445    1.0000 </r>
       <r>    8.7429    0.0428 </r>
       <r>    8.8164    0.0000 </r>
       <r>    8.8983    0.0000 </r>
       <r>    8.9659    0.0000 </r>
       <r>    9.1988    0.0000 </r>
       <r>    9.2475    0.0000 </r>
       <r>    9.2475    0.0000 </r>
       <r>    9.6788    0.0000 </r>
       <r>    9.6788    0.0000 </r>
       <r>   11.3504    0.0000 </r>
       <r>   11.3504    0.0000 </r>
       <r>   11.5388    0.0000 </r>
       <r>   11.7584    0.0000 </r>
       <r>   11.7588    0.0000 </r>
       <r>   11.8675    0.0000 </r>
       <r>   11.8677    0.0000 </r>
       <r>   11.8974    0.0000 </r>
       <r>   13.0554    0.0000 </r>
      </set>
      <set comment="kpoint 2">
       <r>  -54.4196    1.0000 </r>
       <r>  -54.4190    1.0000 </r>
       <r>  -54.1563    1.0000 </r>
       <r>  -54.1563    1.0000 </r>
       <r>  -28.4084    1.0000 </r>
       <r>  -28.4069    1.0000 </r>
       <r>  -28.1834    1.0000 </r>
       <r>  -28.1798    1.0000 </r>
       <r>  -28.1711    1.0000 </r>
       <r>  -28.1674    1.0000 </r>
       <r>  -27.7490    1.0000 </r>
       <r>  -27.7472    1.0000 </r>
       <r>  -27.7451    1.0000 </r>
       <r>  -27.7434    1.0000 </r>
       <r>  -27.3712    1.0000 </r>
       <r>  -27.3707    1.0000 </r>
       <r>   -6.3912    1.0000 </r>
       <r>   -3.9398    1.0000 </r>
       <r>   -3.0177    1.0000 </r>
       <r>   -2.8314    1.0000 </r>
       <r>   -2.7982    1.0000 </r>
       <r>   -2.5221    1.0000 </r>
       <r>   -2.2983    1.0000 </r>
       <r>   -2.1667    1.0000 </r>
       <r>   -1.9465    1.0000 </r>
       <r>   -1.1160    1.0000 </r>
       <r>   -0.6479    1.0000 </r>
       <r>   -0.4002    1.0000 </r>
       <r>   -0.3717    1.0000 </r>
       <r>    0.1706    1.0000 </r>
       <r>    0.2530    1.0000 </r>
       <r>    1.3237    1.0000 </r>
       <r>    1.8831    1.0000 </r>
       <r>    1.8845    1.0000 </r>
       <r>    2.3018    1.0000 </r>
       <r>    2.8095    1.0000 </r>
       <r>    3.0642    1.0000 </r>
       <r>    3.8743    1.0000 </r>
       <r>    3.9359    1.0000 </r>
       <r>    4.0138    1.0000 </r>
       <r>    4.1099    1.0000 </r>
       <r>    4.1261    1.0000 </r>
       <r>    4.9924    1.0000 </r>
       <r>    4.9944    1.0000 </r>
       <r>    5.0504    1.0000 </r>
       <r>    5.0903    1.0000 </r>
       <r>    5.1269    1.0000 </r>
       <r>    5.5472    1.0000 </r>
       <r>    5.7093    1.0000 </r>
       <r>    6.0524    1.0000 </r>
       <r>    6.2613    1.0000 </r>
       <r>    6.6352    1.0000 </r>
       <r>    6.7748    1.0000 </r>
       <r>    7.0354    1.0000 </r>
       <r>    7.1540    1.0000 </r>
       <r>    7.5287    1.0000 </r>
       <r>    7.5655    1.0000 </r>
       <r>    8.2469    1.0000 </r>
       <r>    8.4205    1.0000 </r>
       <r>    8.5493    1.0000 </r>
       <r>    8.5997    1.0000 </r>
       <r>    8.7925    0.0000 </r>
       <r>    9.0094    0.0000 </r>
       <r>    9.1630    0.0000 </r>
       <r>    9.2859    0.0000 </r>
       <r>    9.3454    0.0000 </r>
       <r>    9.6190    0.0000 </r>
       <r>    9.7686    0.0000 </r>
       <r>   10.2307    0.0000 </r>
       <r>   10.9556    0.0000 </r>
       <r>   11.1733    0.0000 </r>
       <r>   11.5128    0.0000 </r>
       <r>   11.6276    0.0000 </r>
       <r>   11.6305    0.0000 </r>
       <r>   11.6850    0.0000 </r>
       <r>   12.2153    0.0000 </r>
       <r>   12.4405    0.0000 </r>
       <r>   12.7425    0.0000 </r>
      </set>
      <set comment="kpoint 3">
       <r>  -54.4194    1.0000 </r>
       <r>  -54.4191    1.0000 </r>
       <r>  -54.1563    1.0000 </r>
       <r>  -54.1563    1.0000 </r>
       <r>  -28.4081    1.0000 </r>
       <r>  -28.4072    1.0000 </r>
       <r>  -28.1807    1.0000 </r>
       <r>  -28.1736    1.0000 </r>
       <r>  -28.1698    1.0000 </r>
       <r>  -28.1625    1.0000 </r>
       <r>  -27.7569    1.0000 </r>
       <r>  -27.7557    1.0000 </r>
       <r>  -27.7448    1.0000 </r>
       <r>  -27.7438    1.0000 </r>
       <r>  -27.3712    1.0000 </r>
       <r>  -27.3709    1.0000 </r>
       <r>   -6.0441    1.0000 </r>
       <r>   -4.7664    1.0000 </r>
       <r>   -3.0240    1.0000 </r>
       <r>   -2.9230    1.0000 </r>
       <r>   -2.8820    1.0000 </r>
       <r>   -2.6636    1.0000 </r>
       <r>   -2.2735    1.0000 </r>
       <r>   -1.7498    1.0000 </r>
       <r>   -1.4840    1.0000 </r>
       <r>   -1.1706    1.0000 </r>
       <r>   -0.6881    1.0000 </r>
       <r>   -0.0908    1.0000 </r>
       <r>    0.0845    1.0000 </r>
       <r>    0.2235    1.0000 </r>
       <r>    0.4408    1.0000 </r>
       <r>    1.0393    1.0000 </r>
       <r>    1.5498    1.0000 </r>
       <r>    1.5598    1.0000 </r>
       <r>    2.7112    1.0000 </r>
       <r>    3.2630    1.0000 </r>
       <r>    3.2682    1.0000 </r>
       <r>    3.7468    1.0000 </r>
       <r>    3.9187    1.0000 </r>
       <r>    3.9449    1.0000 </r>
       <r>    4.0289    1.0000 </r>
       <r>    4.0642    1.0000 </r>
       <r>    4.3795    1.0000 </r>
       <r>    4.5175    1.0000 </r>
       <r>    4.5362    1.0000 </r>
       <r>    4.5801    1.0000 </r>
       <r>    4.6522    1.0000 </r>
       <r>    5.6124    1.0000 </r>
       <r>    5.7989    1.0000 </r>
       <r>    5.8841    1.0000 </r>
       <r>    6.0636    1.0000 </r>
       <r>    6.3461    1.0000 </r>
       <r>    7.0136    1.0000 </r>
       <r>    7.0292    1.0000 </r>
       <r>    7.4927    1.0000 </r>
       <r>    7.7362    1.0000 </r>
       <r>    7.7825    1.0000 </r>
       <r>    8.4269    1.0000 </r>
       <r>    8.5130    1.0000 </r>
       <r>    8.6475    1.0000 </r>
       <r>    8.7576    0.0029 </r>
       <r>    8.8380    0.0000 </r>
       <r>    9.2611    0.0000 </r>
       <r>    9.3616    0.0000 </r>
       <r>    9.3808    0.0000 </r>
       <r>    9.6436    0.0000 </r>
       <r>    9.7975    0.0000 </r>
       <r>   10.0619    0.0000 </r>
       <r>   10.8071    0.0000 </r>
       <r>   10.9676    0.0000 </r>
       <r>   11.1371    0.0000 </r>
       <r>   11.2868    0.0000 </r>
       <r>   11.2919    0.0000 </r>
       <r>   12.0511    0.0000 </r>
       <r>   12.1500    0.0000 </r>
       <r>   12.3066    0.0000 </r>
       <r>   12.4549    0.0000 </r>
       <r>   12.5974    0.0000 </r>
      </set>
      <set comment="kpoint 4">
       <r>  -54.4192    1.0000 </r>
       <r>  -54.4192    1.0000 </r>
       <r>  -54.1563    1.0000 </r>
       <r>  -54.1563    1.0000 </r>
       <r>  -28.4076    1.0000 </r>
       <r>  -28.4076    1.0000 </r>
       <r>  -28.1771    1.0000 </r>
       <r>  -28.1771    1.0000 </r>
       <r>  -28.1623    1.0000 </r>
       <r>  -28.1623    1.0000 </r>
       <r>  -27.7605    1.0000 </r>
       <r>  -27.7605    1.0000 </r>
       <r>  -27.7444    1.0000 </r>
       <r>  -27.7444    1.0000 </r>
       <r>  -27.3710    1.0000 </r>
       <r>  -27.3710    1.0000 </r>
       <r>   -5.4896    1.0000 </r>
       <r>   -5.4896    1.0000 </r>
       <r>   -2.9443    1.0000 </r>
       <r>   -2.9443    1.0000 </r>
       <r>   -2.9091    1.0000 </r>
       <r>   -2.9091    1.0000 </r>
       <r>   -1.9253    1.0000 </r>
       <r>   -1.9253    1.0000 </r>
       <r>   -1.2225    1.0000 </r>
       <r>   -1.2225    1.0000 </r>
       <r>   -0.4285    1.0000 </r>
       <r>   -0.4285    1.0000 </r>
       <r>    0.5307    1.0000 </r>
       <r>    0.5307    1.0000 </r>
       <r>    0.9445    1.0000 </r>
       <r>    0.9445    1.0000 </r>
       <r>    1.0125    1.0000 </r>
       <r>    1.0125    1.0000 </r>
       <r>    3.1855    1.0000 </r>
       <r>    3.1855    1.0000 </r>
       <r>    3.5203    1.0000 </r>
       <r>    3.5203    1.0000 </r>
       <r>    3.8182    1.0000 </r>
       <r>    3.8182    1.0000 </r>
       <r>    4.1287    1.0000 </r>
       <r>    4.1287    1.0000 </r>
       <r>    4.2447    1.0000 </r>
       <r>    4.2447    1.0000 </r>
       <r>    4.3995    1.0000 </r>
       <r>    4.3995    1.0000 </r>
       <r>    5.0075    1.0000 </r>
       <r>    5.0075    1.0000 </r>
       <r>    5.8140    1.0000 </r>
       <r>    5.8140    1.0000 </r>
       <r>    5.9549    1.0000 </r>
       <r>    5.9549    1.0000 </r>
       <r>    6.9773    1.0000 </r>
       <r>    6.9773    1.0000 </r>
       <r>    8.0149    1.0000 </r>
       <r>    8.0149    1.0000 </r>
       <r>    8.1210    1.0000 </r>
       <r>    8.1210    1.0000 </r>
       <r>    8.7145    0.6149 </r>
       <r>    8.7145    0.6148 </r>
       <r>    8.7593    0.0020 </r>
       <r>    8.7593    0.0020 </r>
       <r>    9.1747    0.0000 </r>
       <r>    9.1747    0.0000 </r>
       <r>    9.6976    0.0000 </r>
       <r>    9.6976    0.0000 </r>
       <r>   10.2312    0.0000 </r>
       <r>   10.2312    0.0000 </r>
       <r>   10.5240    0.0000 </r>
       <r>   10.5240    0.0000 </r>
       <r>   11.7430    0.0000 </r>
       <r>   11.7435    0.0000 </r>
       <r>   11.7510    0.0000 </r>
       <r>   11.7521    0.0000 </r>
       <r>   12.1183    0.0000 </r>
       <r>   12.1218    0.0000 </r>
       <r>   13.0936    0.0000 </r>
       <r>   13.1389    0.0000 </r>
      </set>
      <set comment="kpoint 5">
       <r>  -54.4195    1.0000 </r>
       <r>  -54.4190    1.0000 </r>
       <r>  -54.1563    1.0000 </r>
       <r>  -54.1563    1.0000 </r>
       <r>  -28.4080    1.0000 </r>
       <r>  -28.4073    1.0000 </r>
       <r>  -28.1798    1.0000 </r>
       <r>  -28.1781    1.0000 </r>
       <r>  -28.1691    1.0000 </r>
       <r>  -28.1673    1.0000 </r>
       <r>  -27.7498    1.0000 </r>
       <r>  -27.7482    1.0000 </r>
       <r>  -27.7482    1.0000 </r>
       <r>  -27.7467    1.0000 </r>
       <r>  -27.3711    1.0000 </r>
       <r>  -27.3708    1.0000 </r>
       <r>   -6.2059    1.0000 </r>
       <r>   -4.3984    1.0000 </r>
       <r>   -3.2613    1.0000 </r>
       <r>   -2.9070    1.0000 </r>
       <r>   -2.7428    1.0000 </r>
       <r>   -2.6213    1.0000 </r>
       <r>   -2.2861    1.0000 </r>
       <r>   -1.9996    1.0000 </r>
       <r>   -1.2962    1.0000 </r>
       <r>   -1.1246    1.0000 </r>
       <r>   -0.5516    1.0000 </r>
       <r>   -0.5082    1.0000 </r>
       <r>   -0.2419    1.0000 </r>
       <r>    0.2892    1.0000 </r>
       <r>    0.3909    1.0000 </r>
       <r>    1.2998    1.0000 </r>
       <r>    1.5467    1.0000 </r>
       <r>    1.8710    1.0000 </r>
       <r>    2.5572    1.0000 </r>
       <r>    2.8930    1.0000 </r>
       <r>    3.2340    1.0000 </r>
       <r>    3.6748    1.0000 </r>
       <r>    3.7864    1.0000 </r>
       <r>    3.9599    1.0000 </r>
       <r>    3.9648    1.0000 </r>
       <r>    4.2254    1.0000 </r>
       <r>    4.3771    1.0000 </r>
       <r>    4.4771    1.0000 </r>
       <r>    4.6712    1.0000 </r>
       <r>    4.8226    1.0000 </r>
       <r>    5.5380    1.0000 </r>
       <r>    5.5992    1.0000 </r>
       <r>    5.6794    1.0000 </r>
       <r>    6.0072    1.0000 </r>
       <r>    6.3331    1.0000 </r>
       <r>    6.5115    1.0000 </r>
       <r>    6.9277    1.0000 </r>
       <r>    7.0495    1.0000 </r>
       <r>    7.5505    1.0000 </r>
       <r>    7.5857    1.0000 </r>
       <r>    7.7385    1.0000 </r>
       <r>    7.8821    1.0000 </r>
       <r>    8.5946    1.0000 </r>
       <r>    8.6636    1.0000 </r>
       <r>    8.8125    0.0000 </r>
       <r>    8.9419    0.0000 </r>
       <r>    8.9433    0.0000 </r>
       <r>    8.9737    0.0000 </r>
       <r>    9.2364    0.0000 </r>
       <r>    9.6850    0.0000 </r>
       <r>    9.8782    0.0000 </r>
       <r>   10.2586    0.0000 </r>
       <r>   10.3062    0.0000 </r>
       <r>   10.9618    0.0000 </r>
       <r>   10.9920    0.0000 </r>
       <r>   11.2265    0.0000 </r>
       <r>   11.6642    0.0000 </r>
       <r>   11.7956    0.0000 </r>
       <r>   11.8710    0.0000 </r>
       <r>   12.1582    0.0000 </r>
       <r>   12.6819    0.0000 </r>
       <r>   12.8055    0.0000 </r>
      </set>
      <set comment="kpoint 6">
       <r>  -54.4194    1.0000 </r>
       <r>  -54.4191    1.0000 </r>
       <r>  -54.1564    1.0000 </r>
       <r>  -54.1563    1.0000 </r>
       <r>  -28.4078    1.0000 </r>
       <r>  -28.4075    1.0000 </r>
       <r>  -28.1769    1.0000 </r>
       <r>  -28.1706    1.0000 </r>
       <r>  -28.1690    1.0000 </r>
       <r>  -28.1626    1.0000 </r>
       <r>  -27.7571    1.0000 </r>
       <r>  -27.7560    1.0000 </r>
       <r>  -27.7485    1.0000 </r>
       <r>  -27.7477    1.0000 </r>
       <r>  -27.3710    1.0000 </r>
       <r>  -27.3710    1.0000 </r>
       <r>   -5.8004    1.0000 </r>
       <r>   -5.0165    1.0000 </r>
       <r>   -3.4545    1.0000 </r>
       <r>   -3.1446    1.0000 </r>
       <r>   -2.8597    1.0000 </r>
       <r>   -2.6011    1.0000 </r>
       <r>   -1.9522    1.0000 </r>
       <r>   -1.5925    1.0000 </r>
       <r>   -1.3951    1.0000 </r>
       <r>   -0.9132    1.0000 </r>
       <r>   -0.5830    1.0000 </r>
       <r>   -0.2284    1.0000 </r>
       <r>   -0.0396    1.0000 </r>
       <r>    0.4781    1.0000 </r>
       <r>    0.8975    1.0000 </r>
       <r>    1.0066    1.0000 </r>
       <r>    1.1222    1.0000 </r>
       <r>    1.5883    1.0000 </r>
       <r>    2.8510    1.0000 </r>
       <r>    2.9021    1.0000 </r>
       <r>    3.4047    1.0000 </r>
       <r>    3.4856    1.0000 </r>
       <r>    3.7089    1.0000 </r>
       <r>    3.8106    1.0000 </r>
       <r>    3.8334    1.0000 </r>
       <r>    3.9416    1.0000 </r>
       <r>    4.1429    1.0000 </r>
       <r>    4.2622    1.0000 </r>
       <r>    4.4288    1.0000 </r>
       <r>    4.8232    1.0000 </r>
       <r>    5.1526    1.0000 </r>
       <r>    5.4062    1.0000 </r>
       <r>    5.5313    1.0000 </r>
       <r>    6.2170    1.0000 </r>
       <r>    6.2264    1.0000 </r>
       <r>    6.3362    1.0000 </r>
       <r>    7.1753    1.0000 </r>
       <r>    7.1988    1.0000 </r>
       <r>    7.3376    1.0000 </r>
       <r>    7.8081    1.0000 </r>
       <r>    8.0051    1.0000 </r>
       <r>    8.1148    1.0000 </r>
       <r>    8.3528    1.0000 </r>
       <r>    8.8147    0.0000 </r>
       <r>    8.9124    0.0000 </r>
       <r>    8.9289    0.0000 </r>
       <r>    9.1538    0.0000 </r>
       <r>    9.2760    0.0000 </r>
       <r>    9.5928    0.0000 </r>
       <r>    9.7099    0.0000 </r>
       <r>    9.8575    0.0000 </r>
       <r>   10.2129    0.0000 </r>
       <r>   10.3328    0.0000 </r>
       <r>   11.1701    0.0000 </r>
       <r>   11.2748    0.0000 </r>
       <r>   11.5230    0.0000 </r>
       <r>   11.5652    0.0000 </r>
       <r>   12.2184    0.0000 </r>
       <r>   12.2436    0.0000 </r>
       <r>   12.4484    0.0000 </r>
       <r>   12.6346    0.0000 </r>
       <r>   12.7460    0.0000 </r>
      </set>
      <set comment="kpoint 7">
       <r>  -54.4192    1.0000 </r>
       <r>  -54.4192    1.0000 </r>
       <r>  -54.1564    1.0000 </r>
       <r>  -54.1564    1.0000 </r>
       <r>  -28.4083    1.0000 </r>
       <r>  -28.4070    1.0000 </r>
       <r>  -28.1737    1.0000 </r>
       <r>  -28.1737    1.0000 </r>
       <r>  -28.1620    1.0000 </r>
       <r>  -28.1619    1.0000 </r>
       <r>  -27.7607    1.0000 </r>
       <r>  -27.7607    1.0000 </r>
       <r>  -27.7482    1.0000 </r>
       <r>  -27.7481    1.0000 </r>
       <r>  -27.3712    1.0000 </r>
       <r>  -27.3709    1.0000 </r>
       <r>   -5.6178    1.0000 </r>
       <r>   -5.2031    1.0000 </r>
       <r>   -3.4062    1.0000 </r>
       <r>   -3.3108    1.0000 </r>
       <r>   -3.0248    1.0000 </r>
       <r>   -2.4374    1.0000 </r>
       <r>   -1.7620    1.0000 </r>
       <r>   -1.5914    1.0000 </r>
       <r>   -1.4496    1.0000 </r>
       <r>   -1.0240    1.0000 </r>
       <r>   -0.5657    1.0000 </r>
       <r>   -0.0246    1.0000 </r>
       <r>    0.3496    1.0000 </r>
       <r>    0.5517    1.0000 </r>
       <r>    0.6831    1.0000 </r>
       <r>    0.9045    1.0000 </r>
       <r>    0.9762    1.0000 </r>
       <r>    1.5377    1.0000 </r>
       <r>    2.9312    1.0000 </r>
       <r>    3.0036    1.0000 </r>
       <r>    3.1232    1.0000 </r>
       <r>    3.4599    1.0000 </r>
       <r>    3.6178    1.0000 </r>
       <r>    3.7580    1.0000 </r>
       <r>    3.7750    1.0000 </r>
       <r>    3.8752    1.0000 </r>
       <r>    4.0634    1.0000 </r>
       <r>    4.4318    1.0000 </r>
       <r>    4.5399    1.0000 </r>
       <r>    4.6955    1.0000 </r>
       <r>    5.1361    1.0000 </r>
       <r>    5.4236    1.0000 </r>
       <r>    5.7806    1.0000 </r>
       <r>    5.9043    1.0000 </r>
       <r>    6.2040    1.0000 </r>
       <r>    6.3811    1.0000 </r>
       <r>    7.0474    1.0000 </r>
       <r>    7.0858    1.0000 </r>
       <r>    7.4547    1.0000 </r>
       <r>    7.8460    1.0000 </r>
       <r>    7.9874    1.0000 </r>
       <r>    8.1385    1.0000 </r>
       <r>    8.3020    1.0000 </r>
       <r>    8.7638    0.0007 </r>
       <r>    9.0267    0.0000 </r>
       <r>    9.0360    0.0000 </r>
       <r>    9.2237    0.0000 </r>
       <r>    9.5017    0.0000 </r>
       <r>    9.6614    0.0000 </r>
       <r>    9.6936    0.0000 </r>
       <r>    9.7631    0.0000 </r>
       <r>    9.9900    0.0000 </r>
       <r>   10.9706    0.0000 </r>
       <r>   11.0418    0.0000 </r>
       <r>   11.5253    0.0000 </r>
       <r>   11.5494    0.0000 </r>
       <r>   11.7155    0.0000 </r>
       <r>   11.8113    0.0000 </r>
       <r>   12.1716    0.0000 </r>
       <r>   12.1822    0.0000 </r>
       <r>   12.7134    0.0000 </r>
       <r>   12.9544    0.0000 </r>
      </set>
      <set comment="kpoint 8">
       <r>  -54.4194    1.0000 </r>
       <r>  -54.4191    1.0000 </r>
       <r>  -54.1564    1.0000 </r>
       <r>  -54.1563    1.0000 </r>
       <r>  -28.4086    1.0000 </r>
       <r>  -28.4067    1.0000 </r>
       <r>  -28.1768    1.0000 </r>
       <r>  -28.1707    1.0000 </r>
       <r>  -28.1689    1.0000 </r>
       <r>  -28.1626    1.0000 </r>
       <r>  -27.7571    1.0000 </r>
       <r>  -27.7560    1.0000 </r>
       <r>  -27.7485    1.0000 </r>
       <r>  -27.7476    1.0000 </r>
       <r>  -27.3713    1.0000 </r>
       <r>  -27.3707    1.0000 </r>
       <r>   -6.0803    1.0000 </r>
       <r>   -4.4744    1.0000 </r>
       <r>   -3.3653    1.0000 </r>
       <r>   -3.2066    1.0000 </r>
       <r>   -3.1047    1.0000 </r>
       <r>   -2.2205    1.0000 </r>
       <r>   -2.1797    1.0000 </r>
       <r>   -1.7621    1.0000 </r>
       <r>   -1.2438    1.0000 </r>
       <r>   -1.2264    1.0000 </r>
       <r>   -0.4896    1.0000 </r>
       <r>   -0.1976    1.0000 </r>
       <r>    0.0988    1.0000 </r>
       <r>    0.1369    1.0000 </r>
       <r>    0.3692    1.0000 </r>
       <r>    1.0443    1.0000 </r>
       <r>    1.4248    1.0000 </r>
       <r>    1.9509    1.0000 </r>
       <r>    2.5879    1.0000 </r>
       <r>    3.0205    1.0000 </r>
       <r>    3.3771    1.0000 </r>
       <r>    3.5265    1.0000 </r>
       <r>    3.5867    1.0000 </r>
       <r>    3.6388    1.0000 </r>
       <r>    3.8047    1.0000 </r>
       <r>    3.9748    1.0000 </r>
       <r>    4.0564    1.0000 </r>
       <r>    4.5471    1.0000 </r>
       <r>    4.6348    1.0000 </r>
       <r>    5.1141    1.0000 </r>
       <r>    5.3016    1.0000 </r>
       <r>    5.6507    1.0000 </r>
       <r>    5.8418    1.0000 </r>
       <r>    6.0509    1.0000 </r>
       <r>    6.3706    1.0000 </r>
       <r>    6.6620    1.0000 </r>
       <r>    6.8998    1.0000 </r>
       <r>    7.0121    1.0000 </r>
       <r>    7.1820    1.0000 </r>
       <r>    7.4417    1.0000 </r>
       <r>    7.7726    1.0000 </r>
       <r>    8.0282    1.0000 </r>
       <r>    8.5838    1.0000 </r>
       <r>    8.7001    0.9054 </r>
       <r>    8.8301    0.0000 </r>
       <r>    8.9498    0.0000 </r>
       <r>    8.9730    0.0000 </r>
       <r>    9.0767    0.0000 </r>
       <r>    9.4388    0.0000 </r>
       <r>    9.9187    0.0000 </r>
       <r>   10.1157    0.0000 </r>
       <r>   10.4942    0.0000 </r>
       <r>   10.5203    0.0000 </r>
       <r>   10.9849    0.0000 </r>
       <r>   11.0215    0.0000 </r>
       <r>   11.2888    0.0000 </r>
       <r>   11.6802    0.0000 </r>
       <r>   11.9951    0.0000 </r>
       <r>   12.1073    0.0000 </r>
       <r>   12.1374    0.0000 </r>
       <r>   12.2808    0.0000 </r>
       <r>   12.4276    0.0000 </r>
      </set>
      <set comment="kpoint 9">
       <r>  -54.4195    1.0000 </r>
       <r>  -54.4190    1.0000 </r>
       <r>  -54.1563    1.0000 </r>
       <r>  -54.1563    1.0000 </r>
       <r>  -28.4087    1.0000 </r>
       <r>  -28.4067    1.0000 </r>
       <r>  -28.1798    1.0000 </r>
       <r>  -28.1781    1.0000 </r>
       <r>  -28.1691    1.0000 </r>
       <r>  -28.1673    1.0000 </r>
       <r>  -27.7498    1.0000 </r>
       <r>  -27.7482    1.0000 </r>
       <r>  -27.7481    1.0000 </r>
       <r>  -27.7467    1.0000 </r>
       <r>  -27.3713    1.0000 </r>
       <r>  -27.3707    1.0000 </r>
       <r>   -6.3469    1.0000 </r>
       <r>   -3.8374    1.0000 </r>
       <r>   -3.3501    1.0000 </r>
       <r>   -3.0155    1.0000 </r>
       <r>   -2.9520    1.0000 </r>
       <r>   -2.3848    1.0000 </r>
       <r>   -2.0814    1.0000 </r>
       <r>   -1.9620    1.0000 </r>
       <r>   -1.9278    1.0000 </r>
       <r>   -1.1480    1.0000 </r>
       <r>   -0.4172    1.0000 </r>
       <r>   -0.4137    1.0000 </r>
       <r>   -0.2707    1.0000 </r>
       <r>   -0.0314    1.0000 </r>
       <r>    0.2727    1.0000 </r>
       <r>    1.2737    1.0000 </r>
       <r>    1.7490    1.0000 </r>
       <r>    2.0316    1.0000 </r>
       <r>    2.3028    1.0000 </r>
       <r>    2.8605    1.0000 </r>
       <r>    3.3703    1.0000 </r>
       <r>    3.5322    1.0000 </r>
       <r>    3.8329    1.0000 </r>
       <r>    3.9259    1.0000 </r>
       <r>    4.0247    1.0000 </r>
       <r>    4.1350    1.0000 </r>
       <r>    4.3710    1.0000 </r>
       <r>    4.6333    1.0000 </r>
       <r>    5.1514    1.0000 </r>
       <r>    5.3252    1.0000 </r>
       <r>    5.5535    1.0000 </r>
       <r>    5.5997    1.0000 </r>
       <r>    5.7908    1.0000 </r>
       <r>    5.9141    1.0000 </r>
       <r>    6.4979    1.0000 </r>
       <r>    6.5528    1.0000 </r>
       <r>    6.8901    1.0000 </r>
       <r>    7.0428    1.0000 </r>
       <r>    7.1335    1.0000 </r>
       <r>    7.3583    1.0000 </r>
       <r>    7.7168    1.0000 </r>
       <r>    7.8439    1.0000 </r>
       <r>    8.4322    1.0000 </r>
       <r>    8.5772    1.0000 </r>
       <r>    8.7016    0.8857 </r>
       <r>    8.8500    0.0000 </r>
       <r>    8.9886    0.0000 </r>
       <r>    9.1059    0.0000 </r>
       <r>    9.1106    0.0000 </r>
       <r>    9.3653    0.0000 </r>
       <r>   10.0273    0.0000 </r>
       <r>   10.4124    0.0000 </r>
       <r>   10.4328    0.0000 </r>
       <r>   10.6654    0.0000 </r>
       <r>   11.0753    0.0000 </r>
       <r>   11.2179    0.0000 </r>
       <r>   11.6457    0.0000 </r>
       <r>   11.7990    0.0000 </r>
       <r>   11.9562    0.0000 </r>
       <r>   12.2933    0.0000 </r>
       <r>   12.3716    0.0000 </r>
       <r>   12.5983    0.0000 </r>
      </set>
      <set comment="kpoint 10">
       <r>  -54.4193    1.0000 </r>
       <r>  -54.4191    1.0000 </r>
       <r>  -54.1564    1.0000 </r>
       <r>  -54.1564    1.0000 </r>
       <r>  -28.4084    1.0000 </r>
       <r>  -28.4069    1.0000 </r>
       <r>  -28.1705    1.0000 </r>
       <r>  -28.1667    1.0000 </r>
       <r>  -28.1652    1.0000 </r>
       <r>  -28.1614    1.0000 </r>
       <r>  -27.7592    1.0000 </r>
       <r>  -27.7585    1.0000 </r>
       <r>  -27.7543    1.0000 </r>
       <r>  -27.7538    1.0000 </r>
       <r>  -27.3713    1.0000 </r>
       <r>  -27.3709    1.0000 </r>
       <r>   -5.3662    1.0000 </r>
       <r>   -5.2794    1.0000 </r>
       <r>   -3.8613    1.0000 </r>
       <r>   -3.4258    1.0000 </r>
       <r>   -3.1230    1.0000 </r>
       <r>   -2.2389    1.0000 </r>
       <r>   -1.7448    1.0000 </r>
       <r>   -1.3951    1.0000 </r>
       <r>   -1.3892    1.0000 </r>
       <r>   -0.6474    1.0000 </r>
       <r>   -0.4925    1.0000 </r>
       <r>    0.0164    1.0000 </r>
       <r>    0.2707    1.0000 </r>
       <r>    0.3793    1.0000 </r>
       <r>    0.5548    1.0000 </r>
       <r>    1.1832    1.0000 </r>
       <r>    1.4297    1.0000 </r>
       <r>    1.4434    1.0000 </r>
       <r>    2.4163    1.0000 </r>
       <r>    2.5034    1.0000 </r>
       <r>    3.1114    1.0000 </r>
       <r>    3.1862    1.0000 </r>
       <r>    3.4377    1.0000 </r>
       <r>    3.5867    1.0000 </r>
       <r>    3.8135    1.0000 </r>
       <r>    3.8232    1.0000 </r>
       <r>    3.9568    1.0000 </r>
       <r>    4.4768    1.0000 </r>
       <r>    4.7256    1.0000 </r>
       <r>    4.8293    1.0000 </r>
       <r>    5.3194    1.0000 </r>
       <r>    5.3614    1.0000 </r>
       <r>    5.6097    1.0000 </r>
       <r>    6.2038    1.0000 </r>
       <r>    6.6584    1.0000 </r>
       <r>    6.7558    1.0000 </r>
       <r>    7.2034    1.0000 </r>
       <r>    7.2334    1.0000 </r>
       <r>    7.4942    1.0000 </r>
       <r>    7.5296    1.0000 </r>
       <r>    7.6294    1.0000 </r>
       <r>    8.0379    1.0000 </r>
       <r>    8.4426    1.0000 </r>
       <r>    8.5872    1.0000 </r>
       <r>    8.5909    1.0000 </r>
       <r>    8.9101    0.0000 </r>
       <r>    9.2308    0.0000 </r>
       <r>    9.6237    0.0000 </r>
       <r>    9.7751    0.0000 </r>
       <r>    9.9618    0.0000 </r>
       <r>    9.9805    0.0000 </r>
       <r>   10.2744    0.0000 </r>
       <r>   10.9669    0.0000 </r>
       <r>   10.9736    0.0000 </r>
       <r>   11.1685    0.0000 </r>
       <r>   11.6392    0.0000 </r>
       <r>   12.0003    0.0000 </r>
       <r>   12.0102    0.0000 </r>
       <r>   12.2194    0.0000 </r>
       <r>   12.3198    0.0000 </r>
       <r>   12.5671    0.0000 </r>
       <r>   12.8358    0.0000 </r>
      </set>
      <set comment="kpoint 11">
       <r>  -54.4192    1.0000 </r>
       <r>  -54.4192    1.0000 </r>
       <r>  -54.1564    1.0000 </r>
       <r>  -54.1564    1.0000 </r>
       <r>  -28.4087    1.0000 </r>
       <r>  -28.4065    1.0000 </r>
       <r>  -28.1677    1.0000 </r>
       <r>  -28.1675    1.0000 </r>
       <r>  -28.1604    1.0000 </r>
       <r>  -28.1603    1.0000 </r>
       <r>  -27.7621    1.0000 </r>
       <r>  -27.7620    1.0000 </r>
       <r>  -27.7552    1.0000 </r>
       <r>  -27.7551    1.0000 </r>
       <r>  -27.3714    1.0000 </r>
       <r>  -27.3708    1.0000 </r>
       <r>   -5.6163    1.0000 </r>
       <r>   -4.8027    1.0000 </r>
       <r>   -3.8926    1.0000 </r>
       <r>   -3.5719    1.0000 </r>
       <r>   -3.3629    1.0000 </r>
       <r>   -2.2151    1.0000 </r>
       <r>   -1.9593    1.0000 </r>
       <r>   -1.1521    1.0000 </r>
       <r>   -0.8758    1.0000 </r>
       <r>   -0.8140    1.0000 </r>
       <r>   -0.4492    1.0000 </r>
       <r>   -0.1780    1.0000 </r>
       <r>    0.3390    1.0000 </r>
       <r>    0.7446    1.0000 </r>
       <r>    0.7489    1.0000 </r>
       <r>    0.8807    1.0000 </r>
       <r>    0.9733    1.0000 </r>
       <r>    1.9107    1.0000 </r>
       <r>    2.2722    1.0000 </r>
       <r>    2.3394    1.0000 </r>
       <r>    2.7023    1.0000 </r>
       <r>    2.9306    1.0000 </r>
       <r>    3.0741    1.0000 </r>
       <r>    3.6479    1.0000 </r>
       <r>    3.8913    1.0000 </r>
       <r>    3.8993    1.0000 </r>
       <r>    4.2553    1.0000 </r>
       <r>    4.3054    1.0000 </r>
       <r>    4.7956    1.0000 </r>
       <r>    5.0077    1.0000 </r>
       <r>    5.4681    1.0000 </r>
       <r>    5.7649    1.0000 </r>
       <r>    6.0898    1.0000 </r>
       <r>    6.1015    1.0000 </r>
       <r>    6.4976    1.0000 </r>
       <r>    6.7644    1.0000 </r>
       <r>    6.8820    1.0000 </r>
       <r>    7.0119    1.0000 </r>
       <r>    7.3875    1.0000 </r>
       <r>    7.6370    1.0000 </r>
       <r>    7.9006    1.0000 </r>
       <r>    7.9707    1.0000 </r>
       <r>    8.3141    1.0000 </r>
       <r>    8.5333    1.0000 </r>
       <r>    8.7734    0.0001 </r>
       <r>    8.7877    0.0000 </r>
       <r>    8.9511    0.0000 </r>
       <r>    9.3975    0.0000 </r>
       <r>    9.6369    0.0000 </r>
       <r>    9.9516    0.0000 </r>
       <r>   10.5882    0.0000 </r>
       <r>   10.6972    0.0000 </r>
       <r>   11.1116    0.0000 </r>
       <r>   11.1671    0.0000 </r>
       <r>   11.3642    0.0000 </r>
       <r>   11.3801    0.0000 </r>
       <r>   11.5679    0.0000 </r>
       <r>   11.6219    0.0000 </r>
       <r>   12.1686    0.0000 </r>
       <r>   12.3995    0.0000 </r>
       <r>   12.6622    0.0000 </r>
       <r>   12.8795    0.0000 </r>
      </set>
      <set comment="kpoint 12">
       <r>  -54.4193    1.0000 </r>
       <r>  -54.4191    1.0000 </r>
       <r>  -54.1564    1.0000 </r>
       <r>  -54.1564    1.0000 </r>
       <r>  -28.4088    1.0000 </r>
       <r>  -28.4064    1.0000 </r>
       <r>  -28.1703    1.0000 </r>
       <r>  -28.1669    1.0000 </r>
       <r>  -28.1651    1.0000 </r>
       <r>  -28.1615    1.0000 </r>
       <r>  -27.7592    1.0000 </r>
       <r>  -27.7585    1.0000 </r>
       <r>  -27.7544    1.0000 </r>
       <r>  -27.7538    1.0000 </r>
       <r>  -27.3714    1.0000 </r>
       <r>  -27.3707    1.0000 </r>
       <r>   -5.9210    1.0000 </r>
       <r>   -4.3529    1.0000 </r>
       <r>   -3.6281    1.0000 </r>
       <r>   -3.6120    1.0000 </r>
       <r>   -3.3993    1.0000 </r>
       <r>   -2.4090    1.0000 </r>
       <r>   -1.8810    1.0000 </r>
       <r>   -1.1521    1.0000 </r>
       <r>   -1.0876    1.0000 </r>
       <r>   -0.9332    1.0000 </r>
       <r>   -0.4656    1.0000 </r>
       <r>   -0.3584    1.0000 </r>
       <r>    0.2752    1.0000 </r>
       <r>    0.3656    1.0000 </r>
       <r>    0.5060    1.0000 </r>
       <r>    1.0471    1.0000 </r>
       <r>    1.1611    1.0000 </r>
       <r>    2.1468    1.0000 </r>
       <r>    2.5531    1.0000 </r>
       <r>    2.6244    1.0000 </r>
       <r>    2.7121    1.0000 </r>
       <r>    2.9425    1.0000 </r>
       <r>    3.1623    1.0000 </r>
       <r>    3.6792    1.0000 </r>
       <r>    3.8602    1.0000 </r>
       <r>    3.8691    1.0000 </r>
       <r>    4.0310    1.0000 </r>
       <r>    4.6250    1.0000 </r>
       <r>    4.7647    1.0000 </r>
       <r>    5.3048    1.0000 </r>
       <r>    5.6807    1.0000 </r>
       <r>    5.8341    1.0000 </r>
       <r>    5.9803    1.0000 </r>
       <r>    6.2712    1.0000 </r>
       <r>    6.4533    1.0000 </r>
       <r>    6.4796    1.0000 </r>
       <r>    6.7729    1.0000 </r>
       <r>    7.0905    1.0000 </r>
       <r>    7.2336    1.0000 </r>
       <r>    7.4704    1.0000 </r>
       <r>    7.5167    1.0000 </r>
       <r>    8.0443    1.0000 </r>
       <r>    8.4540    1.0000 </r>
       <r>    8.5544    1.0000 </r>
       <r>    8.6993    0.9146 </r>
       <r>    8.9571    0.0000 </r>
       <r>    9.3078    0.0000 </r>
       <r>    9.3590    0.0000 </r>
       <r>    9.3751    0.0000 </r>
       <r>    9.7425    0.0000 </r>
       <r>   10.4492    0.0000 </r>
       <r>   10.4576    0.0000 </r>
       <r>   10.8272    0.0000 </r>
       <r>   10.9117    0.0000 </r>
       <r>   11.4582    0.0000 </r>
       <r>   11.5761    0.0000 </r>
       <r>   11.8512    0.0000 </r>
       <r>   11.9313    0.0000 </r>
       <r>   12.0578    0.0000 </r>
       <r>   12.1178    0.0000 </r>
       <r>   12.2514    0.0000 </r>
       <r>   12.4965    0.0000 </r>
      </set>
      <set comment="kpoint 13">
       <r>  -54.4192    1.0000 </r>
       <r>  -54.4192    1.0000 </r>
       <r>  -54.1564    1.0000 </r>
       <r>  -54.1564    1.0000 </r>
       <r>  -28.4089    1.0000 </r>
       <r>  -28.4063    1.0000 </r>
       <r>  -28.1657    1.0000 </r>
       <r>  -28.1655    1.0000 </r>
       <r>  -28.1585    1.0000 </r>
       <r>  -28.1584    1.0000 </r>
       <r>  -27.7640    1.0000 </r>
       <r>  -27.7639    1.0000 </r>
       <r>  -27.7575    1.0000 </r>
       <r>  -27.7575    1.0000 </r>
       <r>  -27.3715    1.0000 </r>
       <r>  -27.3708    1.0000 </r>
       <r>   -5.5875    1.0000 </r>
       <r>   -4.5344    1.0000 </r>
       <r>   -4.0934    1.0000 </r>
       <r>   -3.7086    1.0000 </r>
       <r>   -3.5502    1.0000 </r>
       <r>   -2.4208    1.0000 </r>
       <r>   -1.7170    1.0000 </r>
       <r>   -1.0056    1.0000 </r>
       <r>   -0.7089    1.0000 </r>
       <r>   -0.6625    1.0000 </r>
       <r>   -0.3269    1.0000 </r>
       <r>   -0.2044    1.0000 </r>
       <r>    0.4174    1.0000 </r>
       <r>    0.5882    1.0000 </r>
       <r>    0.8795    1.0000 </r>
       <r>    0.9407    1.0000 </r>
       <r>    1.1706    1.0000 </r>
       <r>    1.8558    1.0000 </r>
       <r>    1.9028    1.0000 </r>
       <r>    2.2027    1.0000 </r>
       <r>    2.2961    1.0000 </r>
       <r>    2.5365    1.0000 </r>
       <r>    3.1045    1.0000 </r>
       <r>    3.5444    1.0000 </r>
       <r>    3.9762    1.0000 </r>
       <r>    4.0206    1.0000 </r>
       <r>    4.0967    1.0000 </r>
       <r>    4.3997    1.0000 </r>
       <r>    5.0578    1.0000 </r>
       <r>    5.0721    1.0000 </r>
       <r>    5.6621    1.0000 </r>
       <r>    5.9396    1.0000 </r>
       <r>    6.1000    1.0000 </r>
[...]
       <r>  -28.1678    1.0000 </r>
       <r>  -28.1640    1.0000 </r>
       <r>  -27.7552    1.0000 </r>
       <r>  -27.7540    1.0000 </r>
       <r>  -27.7517    1.0000 </r>
       <r>  -27.7507    1.0000 </r>
       <r>  -27.3712    1.0000 </r>
       <r>  -27.3709    1.0000 </r>
       <r>   -5.9802    1.0000 </r>
       <r>   -4.6667    1.0000 </r>
       <r>   -3.4727    1.0000 </r>
       <r>   -3.2318    1.0000 </r>
       <r>   -2.8713    1.0000 </r>
       <r>   -2.4849    1.0000 </r>
       <r>   -2.0292    1.0000 </r>
       <r>   -1.8420    1.0000 </r>
       <r>   -1.2346    1.0000 </r>
       <r>   -0.8395    1.0000 </r>
       <r>   -0.5061    1.0000 </r>
       <r>   -0.4483    1.0000 </r>
       <r>    0.0013    1.0000 </r>
       <r>    0.4205    1.0000 </r>
       <r>    0.5271    1.0000 </r>
       <r>    1.1761    1.0000 </r>
       <r>    1.2110    1.0000 </r>
       <r>    1.8950    1.0000 </r>
       <r>    2.7119    1.0000 </r>
       <r>    3.1395    1.0000 </r>
       <r>    3.1836    1.0000 </r>
       <r>    3.4107    1.0000 </r>
       <r>    3.5315    1.0000 </r>
       <r>    3.6020    1.0000 </r>
       <r>    3.8105    1.0000 </r>
       <r>    3.8402    1.0000 </r>
       <r>    4.2340    1.0000 </r>
       <r>    4.3284    1.0000 </r>
       <r>    4.3588    1.0000 </r>
       <r>    5.0853    1.0000 </r>
       <r>    5.4928    1.0000 </r>
       <r>    5.5195    1.0000 </r>
       <r>    5.7388    1.0000 </r>
       <r>    6.1638    1.0000 </r>
       <r>    6.3301    1.0000 </r>
       <r>    6.6237    1.0000 </r>
       <r>    6.9538    1.0000 </r>
       <r>    7.2356    1.0000 </r>
       <r>    7.4362    1.0000 </r>
       <r>    7.5414    1.0000 </r>
       <r>    7.8360    1.0000 </r>
       <r>    8.0090    1.0000 </r>
       <r>    8.2662    1.0000 </r>
       <r>    8.5164    1.0000 </r>
       <r>    9.0352    0.0000 </r>
       <r>    9.0726    0.0000 </r>
       <r>    9.1447    0.0000 </r>
       <r>    9.1748    0.0000 </r>
       <r>    9.2037    0.0000 </r>
       <r>    9.9981    0.0000 </r>
       <r>   10.0491    0.0000 </r>
       <r>   10.2318    0.0000 </r>
       <r>   10.7903    0.0000 </r>
       <r>   10.7918    0.0000 </r>
       <r>   10.9853    0.0000 </r>
       <r>   11.6542    0.0000 </r>
       <r>   11.8007    0.0000 </r>
       <r>   12.0942    0.0000 </r>
       <r>   12.1400    0.0000 </r>
       <r>   12.3846    0.0000 </r>
       <r>   12.4540    0.0000 </r>
       <r>   12.5226    0.0000 </r>
      </set>
     </set>
    </set>
   </array>
  </eigenvalues>
  <separator name="orbital magnetization" >
   <v name="MAGDIPOLOUT">      0.00000000      0.00000000      0.00000000</v>
  </separator>
  <dos>
   <i name="efermi">      8.71864269 </i>
   <total>
    <array>
     <dimension dim="1">gridpoints</dimension>
     <dimension dim="2">spin</dimension>
     <field>energy</field>
     <field>total</field>
     <field>integrated</field>
     <set>
      <set comment="spin 1">
       <r>   -57.8170     0.0000     0.0000 </r>
       <r>   -57.5678     0.0000     0.0000 </r>
       <r>   -57.3187     0.0000     0.0000 </r>
       <r>   -57.0696     0.0000     0.0000 </r>
       <r>   -56.8204     0.0000     0.0000 </r>
       <r>   -56.5713     0.0000     0.0000 </r>
       <r>   -56.3221     0.0000     0.0000 </r>
       <r>   -56.0730     0.0000     0.0000 </r>
       <r>   -55.8239     0.0000     0.0000 </r>
       <r>   -55.5747     0.0000     0.0000 </r>
       <r>   -55.3256     0.0000     0.0000 </r>
       <r>   -55.0764     0.0000     0.0000 </r>
       <r>   -54.8273     0.0000     0.0000 </r>
       <r>   -54.5782     0.0000     0.0000 </r>
       <r>   -54.3290    16.0553     4.0000 </r>
       <r>   -54.0799    16.0553     8.0000 </r>
       <r>   -53.8308     0.0000     8.0000 </r>
       <r>   -53.5816     0.0000     8.0000 </r>
       <r>   -53.3325     0.0000     8.0000 </r>
       <r>   -53.0833     0.0000     8.0000 </r>
       <r>   -52.8342     0.0000     8.0000 </r>
       <r>   -52.5851     0.0000     8.0000 </r>
       <r>   -52.3359     0.0000     8.0000 </r>
       <r>   -52.0868     0.0000     8.0000 </r>
       <r>   -51.8376     0.0000     8.0000 </r>
       <r>   -51.5885     0.0000     8.0000 </r>
       <r>   -51.3394     0.0000     8.0000 </r>
       <r>   -51.0902     0.0000     8.0000 </r>
       <r>   -50.8411     0.0000     8.0000 </r>
       <r>   -50.5920     0.0000     8.0000 </r>
       <r>   -50.3428     0.0000     8.0000 </r>
       <r>   -50.0937     0.0000     8.0000 </r>
       <r>   -49.8445     0.0000     8.0000 </r>
       <r>   -49.5954     0.0000     8.0000 </r>
       <r>   -49.3463     0.0000     8.0000 </r>
       <r>   -49.0971     0.0000     8.0000 </r>
       <r>   -48.8480     0.0000     8.0000 </r>
       <r>   -48.5988     0.0000     8.0000 </r>
       <r>   -48.3497     0.0000     8.0000 </r>
       <r>   -48.1006     0.0000     8.0000 </r>
       <r>   -47.8514     0.0000     8.0000 </r>
       <r>   -47.6023     0.0000     8.0000 </r>
       <r>   -47.3532     0.0000     8.0000 </r>
       <r>   -47.1040     0.0000     8.0000 </r>
       <r>   -46.8549     0.0000     8.0000 </r>
       <r>   -46.6057     0.0000     8.0000 </r>
       <r>   -46.3566     0.0000     8.0000 </r>
       <r>   -46.1075     0.0000     8.0000 </r>
       <r>   -45.8583     0.0000     8.0000 </r>
       <r>   -45.6092     0.0000     8.0000 </r>
       <r>   -45.3600     0.0000     8.0000 </r>
       <r>   -45.1109     0.0000     8.0000 </r>
       <r>   -44.8618     0.0000     8.0000 </r>
       <r>   -44.6126     0.0000     8.0000 </r>
       <r>   -44.3635     0.0000     8.0000 </r>
       <r>   -44.1144     0.0000     8.0000 </r>
       <r>   -43.8652     0.0000     8.0000 </r>
       <r>   -43.6161     0.0000     8.0000 </r>
       <r>   -43.3669     0.0000     8.0000 </r>
       <r>   -43.1178     0.0000     8.0000 </r>
       <r>   -42.8687     0.0000     8.0000 </r>
       <r>   -42.6195     0.0000     8.0000 </r>
       <r>   -42.3704     0.0000     8.0000 </r>
       <r>   -42.1212     0.0000     8.0000 </r>
       <r>   -41.8721     0.0000     8.0000 </r>
       <r>   -41.6230     0.0000     8.0000 </r>
       <r>   -41.3738     0.0000     8.0000 </r>
       <r>   -41.1247     0.0000     8.0000 </r>
       <r>   -40.8755     0.0000     8.0000 </r>
       <r>   -40.6264     0.0000     8.0000 </r>
       <r>   -40.3773     0.0000     8.0000 </r>
       <r>   -40.1281     0.0000     8.0000 </r>
       <r>   -39.8790     0.0000     8.0000 </r>
       <r>   -39.6299     0.0000     8.0000 </r>
       <r>   -39.3807     0.0000     8.0000 </r>
       <r>   -39.1316     0.0000     8.0000 </r>
       <r>   -38.8824     0.0000     8.0000 </r>
       <r>   -38.6333     0.0000     8.0000 </r>
       <r>   -38.3842     0.0000     8.0000 </r>
       <r>   -38.1350     0.0000     8.0000 </r>
       <r>   -37.8859     0.0000     8.0000 </r>
       <r>   -37.6367     0.0000     8.0000 </r>
       <r>   -37.3876     0.0000     8.0000 </r>
       <r>   -37.1385     0.0000     8.0000 </r>
       <r>   -36.8893     0.0000     8.0000 </r>
       <r>   -36.6402     0.0000     8.0000 </r>
       <r>   -36.3911     0.0000     8.0000 </r>
       <r>   -36.1419     0.0000     8.0000 </r>
       <r>   -35.8928     0.0000     8.0000 </r>
       <r>   -35.6436     0.0000     8.0000 </r>
       <r>   -35.3945     0.0000     8.0000 </r>
       <r>   -35.1454     0.0000     8.0000 </r>
       <r>   -34.8962     0.0000     8.0000 </r>
       <r>   -34.6471     0.0000     8.0000 </r>
       <r>   -34.3979     0.0000     8.0000 </r>
       <r>   -34.1488     0.0000     8.0000 </r>
       <r>   -33.8997     0.0000     8.0000 </r>
       <r>   -33.6505     0.0000     8.0000 </r>
       <r>   -33.4014     0.0000     8.0000 </r>
       <r>   -33.1523     0.0000     8.0000 </r>
       <r>   -32.9031     0.0000     8.0000 </r>
       <r>   -32.6540     0.0000     8.0000 </r>
       <r>   -32.4048     0.0000     8.0000 </r>
       <r>   -32.1557     0.0000     8.0000 </r>
       <r>   -31.9066     0.0000     8.0000 </r>
       <r>   -31.6574     0.0000     8.0000 </r>
       <r>   -31.4083     0.0000     8.0000 </r>
       <r>   -31.1591     0.0000     8.0000 </r>
       <r>   -30.9100     0.0000     8.0000 </r>
       <r>   -30.6609     0.0000     8.0000 </r>
       <r>   -30.4117     0.0000     8.0000 </r>
       <r>   -30.1626     0.0000     8.0000 </r>
       <r>   -29.9135     0.0000     8.0000 </r>
       <r>   -29.6643     0.0000     8.0000 </r>
       <r>   -29.4152     0.0000     8.0000 </r>
       <r>   -29.1660     0.0000     8.0000 </r>
       <r>   -28.9169     0.0000     8.0000 </r>
       <r>   -28.6678     0.0000     8.0000 </r>
       <r>   -28.4186     3.5205     8.8771 </r>
       <r>   -28.1695    16.1967    16.0352 </r>
       <r>   -27.9203     0.0000    20.0000 </r>
       <r>   -27.6712    32.1106    28.0000 </r>
       <r>   -27.4221     0.0025    28.0006 </r>
       <r>   -27.1729     0.0000    32.0000 </r>
       <r>   -26.9238     0.0000    32.0000 </r>
       <r>   -26.6746     0.0000    32.0000 </r>
       <r>   -26.4255     0.0000    32.0000 </r>
       <r>   -26.1764     0.0000    32.0000 </r>
       <r>   -25.9272     0.0000    32.0000 </r>
       <r>   -25.6781     0.0000    32.0000 </r>
       <r>   -25.4290     0.0000    32.0000 </r>
       <r>   -25.1798     0.0000    32.0000 </r>
       <r>   -24.9307     0.0000    32.0000 </r>
       <r>   -24.6815     0.0000    32.0000 </r>
       <r>   -24.4324     0.0000    32.0000 </r>
       <r>   -24.1833     0.0000    32.0000 </r>
       <r>   -23.9341     0.0000    32.0000 </r>
       <r>   -23.6850     0.0000    32.0000 </r>
       <r>   -23.4358     0.0000    32.0000 </r>
       <r>   -23.1867     0.0000    32.0000 </r>
       <r>   -22.9376     0.0000    32.0000 </r>
       <r>   -22.6884     0.0000    32.0000 </r>
       <r>   -22.4393     0.0000    32.0000 </r>
       <r>   -22.1902     0.0000    32.0000 </r>
       <r>   -21.9410     0.0000    32.0000 </r>
       <r>   -21.6919     0.0000    32.0000 </r>
       <r>   -21.4427     0.0000    32.0000 </r>
       <r>   -21.1936     0.0000    32.0000 </r>
       <r>   -20.9445     0.0000    32.0000 </r>
       <r>   -20.6953     0.0000    32.0000 </r>
       <r>   -20.4462     0.0000    32.0000 </r>
       <r>   -20.1970     0.0000    32.0000 </r>
       <r>   -19.9479     0.0000    32.0000 </r>
       <r>   -19.6988     0.0000    32.0000 </r>
       <r>   -19.4496     0.0000    32.0000 </r>
       <r>   -19.2005     0.0000    32.0000 </r>
       <r>   -18.9514     0.0000    32.0000 </r>
       <r>   -18.7022     0.0000    32.0000 </r>
       <r>   -18.4531     0.0000    32.0000 </r>
       <r>   -18.2039     0.0000    32.0000 </r>
       <r>   -17.9548     0.0000    32.0000 </r>
       <r>   -17.7057     0.0000    32.0000 </r>
       <r>   -17.4565     0.0000    32.0000 </r>
       <r>   -17.2074     0.0000    32.0000 </r>
       <r>   -16.9582     0.0000    32.0000 </r>
       <r>   -16.7091     0.0000    32.0000 </r>
       <r>   -16.4600     0.0000    32.0000 </r>
       <r>   -16.2108     0.0000    32.0000 </r>
       <r>   -15.9617     0.0000    32.0000 </r>
       <r>   -15.7125     0.0000    32.0000 </r>
       <r>   -15.4634     0.0000    32.0000 </r>
       <r>   -15.2143     0.0000    32.0000 </r>
       <r>   -14.9651     0.0000    32.0000 </r>
       <r>   -14.7160     0.0000    32.0000 </r>
       <r>   -14.4669     0.0000    32.0000 </r>
       <r>   -14.2177     0.0000    32.0000 </r>
       <r>   -13.9686     0.0000    32.0000 </r>
       <r>   -13.7194     0.0000    32.0000 </r>
       <r>   -13.4703     0.0000    32.0000 </r>
       <r>   -13.2212     0.0000    32.0000 </r>
       <r>   -12.9720     0.0000    32.0000 </r>
       <r>   -12.7229     0.0000    32.0000 </r>
       <r>   -12.4737     0.0000    32.0000 </r>
       <r>   -12.2246     0.0000    32.0000 </r>
       <r>   -11.9755     0.0000    32.0000 </r>
       <r>   -11.7263     0.0000    32.0000 </r>
       <r>   -11.4772     0.0000    32.0000 </r>
       <r>   -11.2281     0.0000    32.0000 </r>
       <r>   -10.9789     0.0000    32.0000 </r>
       <r>   -10.7298     0.0000    32.0000 </r>
       <r>   -10.4806     0.0000    32.0000 </r>
       <r>   -10.2315     0.0000    32.0000 </r>
       <r>    -9.9824     0.0000    32.0000 </r>
       <r>    -9.7332     0.0000    32.0000 </r>
       <r>    -9.4841     0.0000    32.0000 </r>
       <r>    -9.2349     0.0000    32.0000 </r>
       <r>    -8.9858     0.0000    32.0000 </r>
       <r>    -8.7367     0.0000    32.0000 </r>
       <r>    -8.4875     0.0000    32.0000 </r>
       <r>    -8.2384     0.0000    32.0000 </r>
       <r>    -7.9893     0.0000    32.0000 </r>
       <r>    -7.7401     0.0000    32.0000 </r>
       <r>    -7.4910     0.0000    32.0000 </r>
       <r>    -7.2418     0.0000    32.0000 </r>
       <r>    -6.9927     0.0000    32.0000 </r>
       <r>    -6.7436     0.0000    32.0000 </r>
       <r>    -6.4944     0.0272    32.0068 </r>
       <r>    -6.2453     0.3983    32.1389 </r>
       <r>    -5.9961     0.8689    32.4943 </r>
       <r>    -5.7470     1.8002    33.0279 </r>
       <r>    -5.4979     1.6884    33.5873 </r>
       <r>    -5.2487     1.8387    34.3152 </r>
       <r>    -4.9996     1.2008    34.8389 </r>
       <r>    -4.7505     1.0903    35.3193 </r>
       <r>    -4.5013     0.3871    35.5885 </r>
       <r>    -4.2522     0.7027    35.8338 </r>
       <r>    -4.0030     0.5762    36.0245 </r>
       <r>    -3.7539     1.8286    36.6937 </r>
       <r>    -3.5048     2.7344    37.7844 </r>
       <r>    -3.2556     3.5401    39.0724 </r>
       <r>    -3.0065     3.6374    40.3903 </r>
       <r>    -2.7573     3.6480    41.7342 </r>
       <r>    -2.5082     3.2286    43.0663 </r>
       <r>    -2.2591     2.2461    43.7977 </r>
       <r>    -2.0099     2.1382    44.8660 </r>
       <r>    -1.7608     1.9776    45.8340 </r>
       <r>    -1.5116     2.9319    47.0320 </r>
       <r>    -1.2625     3.5521    48.2818 </r>
       <r>    -1.0134     5.1695    50.3990 </r>
       <r>    -0.7642     3.7334    51.8508 </r>
       <r>    -0.5151     3.8537    53.3411 </r>
       <r>    -0.2660     3.9515    55.0241 </r>
       <r>    -0.0168     3.2959    56.6386 </r>
       <r>     0.2323     1.7923    57.4862 </r>
       <r>     0.4815     5.8172    59.4731 </r>
       <r>     0.7306     4.0841    61.1921 </r>
       <r>     0.9797     4.3694    62.8267 </r>
       <r>     1.2289     4.0382    64.6172 </r>
       <r>     1.4780     4.1686    65.9592 </r>
       <r>     1.7272     2.0857    67.0990 </r>
       <r>     1.9763     3.2061    68.0289 </r>
       <r>     2.2254     0.9658    68.4390 </r>
       <r>     2.4746     1.3713    69.1670 </r>
       <r>     2.7237     3.5473    70.5187 </r>
       <r>     2.9728     4.2694    72.1113 </r>
       <r>     3.2220     4.0951    73.8853 </r>
       <r>     3.4711     4.9371    75.7062 </r>
       <r>     3.7203     6.9212    78.3831 </r>
       <r>     3.9694    10.1129    81.8132 </r>
       <r>     4.2185     6.1128    84.3642 </r>
       <r>     4.4677     6.7948    86.8436 </r>
       <r>     4.7168     5.5454    89.0959 </r>
       <r>     4.9660     5.7013    91.2141 </r>
       <r>     5.2151     4.0870    92.9230 </r>
       <r>     5.4642     4.5602    94.5012 </r>
       <r>     5.7134     5.0065    96.5727 </r>
       <r>     5.9625     6.1478    98.8570 </r>
       <r>     6.2116     4.1986   100.6492 </r>
       <r>     6.4608     4.1348   102.3238 </r>
       <r>     6.7099     2.7571   103.3615 </r>
       <r>     6.9591     4.8880   105.2654 </r>
       <r>     7.2082     6.0119   107.8549 </r>
       <r>     7.4573     5.0004   109.8569 </r>
       <r>     7.7065     4.3687   111.6043 </r>
       <r>     7.9556     4.2298   113.3395 </r>
       <r>     8.2048     5.1155   115.4332 </r>
       <r>     8.4539     4.5824   117.3242 </r>
       <r>     8.7030     7.4424   119.6637 </r>
       <r>     8.9522     8.4218   123.3284 </r>
       <r>     9.2013     5.5225   125.8917 </r>
       <r>     9.4505     4.9982   127.8960 </r>
       <r>     9.6996     7.3176   130.4818 </r>
       <r>     9.9487     5.5213   132.7406 </r>
       <r>    10.1979     4.5826   134.6655 </r>
       <r>    10.4470     2.6885   135.8920 </r>
       <r>    10.6961     3.1104   137.1797 </r>
       <r>    10.9453     3.7250   138.5312 </r>
       <r>    11.1944     4.5751   140.7986 </r>
       <r>    11.4436     5.3432   143.1010 </r>
       <r>    11.6927     7.0720   145.4841 </r>
       <r>    11.9418     5.2622   147.5967 </r>
       <r>    12.1910     7.2382   150.0017 </r>
       <r>    12.4401     5.8728   152.1298 </r>
       <r>    12.6893     5.4822   154.0960 </r>
       <r>    12.9384     3.5262   155.5372 </r>
       <r>    13.1875     0.9890   155.9369 </r>
       <r>    13.4367     0.0000   155.9524 </r>
       <r>    13.6858     0.1274   156.0000 </r>
       <r>    13.9349     0.0000   156.0000 </r>
       <r>    14.1841     0.0000   156.0000 </r>
       <r>    14.4332     0.0000   156.0000 </r>
       <r>    14.6824     0.0000   156.0000 </r>
       <r>    14.9315     0.0000   156.0000 </r>
       <r>    15.1806     0.0000   156.0000 </r>
       <r>    15.4298     0.0000   156.0000 </r>
       <r>    15.6789     0.0000   156.0000 </r>
       <r>    15.9281     0.0000   156.0000 </r>
       <r>    16.1772     0.0000   156.0000 </r>
       <r>    16.4263     0.0000   156.0000 </r>
       <r>    16.6755     0.0000   156.0000 </r>
       <r>    16.9246     0.0000   156.0000 </r>
      </set>
     </set>
    </array>
   </total>
  </dos>
 </calculation>
 <structure name="finalpos" >
  <crystal>
   <varray name="basis" >
    <v>       6.05568379       0.00000000      -3.64941915 </v>
    <v>      -1.93250127       5.73905437      -3.64941915 </v>
    <v>       0.00000000       0.00000000       7.07033000 </v>
   </varray>
   <i name="volume">    245.72153124 </i>
   <varray name="rec_basis" >
    <v>       0.16513412       0.05560531       0.00000000 </v>
    <v>       0.00000000       0.17424473       0.00000000 </v>
    <v>       0.08523557       0.11863932       0.14143611 </v>
   </varray>
  </crystal>
  <varray name="positions" >
   <v>       0.59654000       0.29980000       0.70105000 </v>
   <v>       0.90125000       0.20020000       0.29674000 </v>
   <v>       0.29980000       0.59875000       0.70326000 </v>
   <v>       0.40346000       0.70020000       0.29895000 </v>
   <v>       0.39549000       0.09875000       0.29895000 </v>
   <v>       0.60451000       0.90125000       0.70105000 </v>
   <v>       0.10451000       0.40346000       0.70326000 </v>
   <v>       0.90346000       0.60451000       0.70326000 </v>
   <v>       0.09654000       0.39549000       0.29674000 </v>
   <v>       0.20020000       0.90346000       0.29895000 </v>
   <v>       0.89549000       0.59654000       0.29674000 </v>
   <v>       0.79980000       0.09654000       0.70105000 </v>
   <v>       0.09875000       0.79980000       0.70326000 </v>
   <v>       0.40125000       0.10451000       0.70105000 </v>
   <v>       0.70020000       0.40125000       0.29674000 </v>
   <v>       0.59875000       0.89549000       0.29895000 </v>
   <v>       0.25000000       0.75000000       0.50000000 </v>
   <v>       0.75000000       0.75000000       0.00000000 </v>
   <v>       0.25000000       0.25000000       0.00000000 </v>
   <v>       0.75000000       0.25000000       0.50000000 </v>
   <v>       0.50000000       0.50000000       0.50000000 </v>
   <v>       0.50000000       0.00000000       0.00000000 </v>
   <v>       0.00000000       0.00000000       0.50000000 </v>
   <v>       0.00000000       0.50000000       0.00000000 </v>
  </varray>
 </structure>
</modeling>
