<?xml version="1.0" encoding="ISO-8859-1"?>
<modeling>
 <generator>
  <i name="program" type="string">vasp </i>
  <i name="version" type="string">6.2.0  </i>
  <i name="subversion" type="string">18Jan21 (build Jan 05 2022 15:41:44) complex                          parallel </i>
  <i name="platform" type="string">LinuxIFC </i>
  <i name="date" type="string">2025 05 07 </i>
  <i name="time" type="string">16:39:46 </i>
 </generator>
 <incar>
  <i type="string" name="SYSTEM">routine with relax: pwdword</i>
  <i type="string" name="PREC">Acc</i>
  <i type="int" name="IALGO">    38</i>
  <i type="string" name="ALGO">A</i>
  <i type="logical" name="ADDGRID"> T  </i>
  <i type="int" name="ICHARG">     2</i>
  <i type="int" name="NELM">   100</i>
  <i type="int" name="NELMIN">     6</i>
  <i name="EDIFF">      0.00000000</i>
  <i type="int" name="NSW">     0</i>
  <i type="int" name="ISIF">    -1</i>
  <i name="SYMPREC">      0.00010000</i>
  <i name="ENCUT">    600.00000000</i>
  <i type="logical" name="LREAL"> F  </i>
  <i type="int" name="ISMEAR">     0</i>
  <i name="SIGMA">      0.02000000</i>
  <i type="logical" name="LASPH"> T  </i>
  <i type="string" name="METAGGA">R2SCAN</i>
  <i type="logical" name="LMIXTAU"> F  </i>
 </incar>
 <primitive_cell>
  <structure name="primitive_cell" >
   <crystal>
    <varray name="basis" >
     <v>       5.22708859       0.00000000      -5.87376955 </v>
     <v>      -0.75697253       5.17198682      -5.87376955 </v>
     <v>       0.00000000       0.00000000       7.86280000 </v>
    </varray>
    <i name="volume">    212.56634216 </i>
    <varray name="rec_basis" >
     <v>       0.19131109       0.02800031       0.00000000 </v>
     <v>       0.00000000       0.19334929       0.00000000 </v>
     <v>       0.14291566       0.16535542       0.12718116 </v>
    </varray>
   </crystal>
   <varray name="positions" >
    <v>       0.00000000       0.50000000       0.50000000 </v>
    <v>       0.50000000       0.00000000       0.50000000 </v>
    <v>       0.24599000       0.74599000       0.99198000 </v>
    <v>       0.25000000       0.25000000       0.00000000 </v>
    <v>       0.75401000       0.25401000       0.00802000 </v>
    <v>       0.75000000       0.75000000       0.00000000 </v>
    <v>       0.74599000       0.75401000       0.50000000 </v>
    <v>       0.25401000       0.24599000       0.50000000 </v>
    <v>       0.11337000       0.11215000       0.50000000 </v>
    <v>       0.88663000       0.88785000       0.50000000 </v>
    <v>       0.11215000       0.61215000       0.99878000 </v>
    <v>       0.88785000       0.38785000       0.00122000 </v>
    <v>       0.61215000       0.61337000       0.50000000 </v>
    <v>       0.38785000       0.38663000       0.50000000 </v>
    <v>       0.61337000       0.11337000       0.00122000 </v>
    <v>       0.38663000       0.88663000       0.99878000 </v>
   </varray>
  </structure>
  <varray name="primitive_index" >
   <v type="int" >        1 </v>
   <v type="int" >        2 </v>
   <v type="int" >        3 </v>
   <v type="int" >        4 </v>
   <v type="int" >        5 </v>
   <v type="int" >        6 </v>
   <v type="int" >        7 </v>
   <v type="int" >        8 </v>
   <v type="int" >        9 </v>
   <v type="int" >       10 </v>
   <v type="int" >       11 </v>
   <v type="int" >       12 </v>
   <v type="int" >       13 </v>
   <v type="int" >       14 </v>
   <v type="int" >       15 </v>
   <v type="int" >       16 </v>
  </varray>
 </primitive_cell>
 <kpoints>
  <generation param="Gamma">
   <v type="int" name="divisions">       7        7        9 </v>
   <v name="usershift">      0.00000000       0.00000000       0.00000000 </v>
   <v name="genvec1">      0.14285714      -0.00000000       0.00000000 </v>
   <v name="genvec2">      0.00000000       0.14285714       0.00000000 </v>
   <v name="genvec3">     -0.00000000       0.00000000       0.11111111 </v>
   <v name="shift">      0.00000000       0.00000000       0.00000000 </v>
  </generation>
  <varray name="kpointlist" >
   <v>       0.00000000       0.00000000       0.00000000 </v>
   <v>       0.14285714       0.00000000       0.00000000 </v>
   <v>       0.28571429       0.00000000       0.00000000 </v>
   <v>       0.42857143      -0.00000000       0.00000000 </v>
   <v>       0.14285714       0.14285714       0.00000000 </v>
   <v>       0.28571429       0.14285714       0.00000000 </v>
   <v>       0.42857143       0.14285714       0.00000000 </v>
   <v>      -0.42857143       0.14285714       0.00000000 </v>
   <v>      -0.28571429       0.14285714       0.00000000 </v>
   <v>      -0.14285714       0.14285714       0.00000000 </v>
   <v>       0.28571429       0.28571429       0.00000000 </v>
   <v>       0.42857143       0.28571429       0.00000000 </v>
   <v>      -0.42857143       0.28571429       0.00000000 </v>
   <v>      -0.28571429       0.28571429       0.00000000 </v>
   <v>       0.42857143       0.42857143       0.00000000 </v>
   <v>      -0.42857143       0.42857143       0.00000000 </v>
   <v>       0.00000000      -0.00000000       0.11111111 </v>
   <v>       0.14285714      -0.00000000       0.11111111 </v>
   <v>       0.28571429       0.00000000       0.11111111 </v>
   <v>       0.42857143      -0.00000000       0.11111111 </v>
   <v>      -0.42857143      -0.00000000       0.11111111 </v>
   <v>      -0.28571429      -0.00000000       0.11111111 </v>
   <v>      -0.14285714      -0.00000000       0.11111111 </v>
   <v>       0.14285714       0.14285714       0.11111111 </v>
   <v>       0.28571429       0.14285714       0.11111111 </v>
   <v>       0.42857143       0.14285714       0.11111111 </v>
   <v>      -0.42857143       0.14285714       0.11111111 </v>
   <v>      -0.28571429       0.14285714       0.11111111 </v>
   <v>      -0.14285714       0.14285714       0.11111111 </v>
   <v>       0.28571429       0.28571429       0.11111111 </v>
   <v>       0.42857143       0.28571429       0.11111111 </v>
   <v>      -0.42857143       0.28571429       0.11111111 </v>
   <v>      -0.28571429       0.28571429       0.11111111 </v>
   <v>      -0.14285714       0.28571429       0.11111111 </v>
   <v>       0.42857143       0.42857143       0.11111111 </v>
   <v>      -0.42857143       0.42857143       0.11111111 </v>
   <v>      -0.28571429       0.42857143       0.11111111 </v>
   <v>      -0.14285714       0.42857143       0.11111111 </v>
   <v>      -0.42857143      -0.42857143       0.11111111 </v>
   <v>      -0.28571429      -0.42857143       0.11111111 </v>
   <v>      -0.14285714      -0.42857143       0.11111111 </v>
   <v>      -0.28571429      -0.28571429       0.11111111 </v>
   <v>      -0.14285714      -0.28571429       0.11111111 </v>
   <v>      -0.14285714      -0.14285714       0.11111111 </v>
   <v>       0.00000000       0.00000000       0.22222222 </v>
   <v>       0.14285714       0.00000000       0.22222222 </v>
   <v>       0.28571429       0.00000000       0.22222222 </v>
   <v>       0.42857143       0.00000000       0.22222222 </v>
   <v>      -0.42857143       0.00000000       0.22222222 </v>
   <v>      -0.28571429       0.00000000       0.22222222 </v>
   <v>      -0.14285714       0.00000000       0.22222222 </v>
   <v>       0.14285714       0.14285714       0.22222222 </v>
   <v>       0.28571429       0.14285714       0.22222222 </v>
   <v>       0.42857143       0.14285714       0.22222222 </v>
   <v>      -0.42857143       0.14285714       0.22222222 </v>
   <v>      -0.28571429       0.14285714       0.22222222 </v>
   <v>      -0.14285714       0.14285714       0.22222222 </v>
   <v>       0.28571429       0.28571429       0.22222222 </v>
   <v>       0.42857143       0.28571429       0.22222222 </v>
   <v>      -0.42857143       0.28571429       0.22222222 </v>
   <v>      -0.28571429       0.28571429       0.22222222 </v>
   <v>      -0.14285714       0.28571429       0.22222222 </v>
   <v>       0.42857143       0.42857143       0.22222222 </v>
   <v>      -0.42857143       0.42857143       0.22222222 </v>
   <v>      -0.28571429       0.42857143       0.22222222 </v>
   <v>      -0.14285714       0.42857143       0.22222222 </v>
   <v>      -0.42857143      -0.42857143       0.22222222 </v>
   <v>      -0.28571429      -0.42857143       0.22222222 </v>
   <v>      -0.14285714      -0.42857143       0.22222222 </v>
   <v>      -0.28571429      -0.28571429       0.22222222 </v>
   <v>      -0.14285714      -0.28571429       0.22222222 </v>
   <v>      -0.14285714      -0.14285714       0.22222222 </v>
   <v>      -0.00000000      -0.00000000       0.33333333 </v>
   <v>       0.14285714      -0.00000000       0.33333333 </v>
   <v>       0.28571429       0.00000000       0.33333333 </v>
   <v>       0.42857143      -0.00000000       0.33333333 </v>
   <v>      -0.42857143      -0.00000000       0.33333333 </v>
   <v>      -0.28571429       0.00000000       0.33333333 </v>
   <v>      -0.14285714       0.00000000       0.33333333 </v>
   <v>       0.14285714       0.14285714       0.33333333 </v>
   <v>       0.28571429       0.14285714       0.33333333 </v>
   <v>       0.42857143       0.14285714       0.33333333 </v>
   <v>      -0.42857143       0.14285714       0.33333333 </v>
   <v>      -0.28571429       0.14285714       0.33333333 </v>
   <v>      -0.14285714       0.14285714       0.33333333 </v>
   <v>       0.28571429       0.28571429       0.33333333 </v>
   <v>       0.42857143       0.28571429       0.33333333 </v>
   <v>      -0.42857143       0.28571429       0.33333333 </v>
   <v>      -0.28571429       0.28571429       0.33333333 </v>
   <v>      -0.14285714       0.28571429       0.33333333 </v>
   <v>       0.42857143       0.42857143       0.33333333 </v>
   <v>      -0.42857143       0.42857143       0.33333333 </v>
   <v>      -0.28571429       0.42857143       0.33333333 </v>
   <v>      -0.14285714       0.42857143       0.33333333 </v>
   <v>      -0.42857143      -0.42857143       0.33333333 </v>
   <v>      -0.28571429      -0.42857143       0.33333333 </v>
   <v>      -0.14285714      -0.42857143       0.33333333 </v>
   <v>      -0.28571429      -0.28571429       0.33333333 </v>
   <v>      -0.14285714      -0.28571429       0.33333333 </v>
   <v>      -0.14285714      -0.14285714       0.33333333 </v>
   <v>       0.00000000       0.00000000       0.44444444 </v>
   <v>       0.14285714       0.00000000       0.44444444 </v>
   <v>       0.28571429       0.00000000       0.44444444 </v>
   <v>       0.42857143       0.00000000       0.44444444 </v>
   <v>      -0.42857143       0.00000000       0.44444444 </v>
   <v>      -0.28571429       0.00000000       0.44444444 </v>
   <v>      -0.14285714       0.00000000       0.44444444 </v>
   <v>       0.14285714       0.14285714       0.44444444 </v>
   <v>       0.28571429       0.14285714       0.44444444 </v>
   <v>       0.42857143       0.14285714       0.44444444 </v>
   <v>      -0.42857143       0.14285714       0.44444444 </v>
   <v>      -0.28571429       0.14285714       0.44444444 </v>
   <v>      -0.14285714       0.14285714       0.44444444 </v>
   <v>       0.28571429       0.28571429       0.44444444 </v>
   <v>       0.42857143       0.28571429       0.44444444 </v>
   <v>      -0.42857143       0.28571429       0.44444444 </v>
   <v>      -0.28571429       0.28571429       0.44444444 </v>
   <v>      -0.14285714       0.28571429       0.44444444 </v>
   <v>       0.42857143       0.42857143       0.44444444 </v>
   <v>      -0.42857143       0.42857143       0.44444444 </v>
   <v>      -0.28571429       0.42857143       0.44444444 </v>
   <v>      -0.14285714       0.42857143       0.44444444 </v>
   <v>      -0.42857143      -0.42857143       0.44444444 </v>
   <v>      -0.28571429      -0.42857143       0.44444444 </v>
   <v>      -0.14285714      -0.42857143       0.44444444 </v>
   <v>      -0.28571429      -0.28571429       0.44444444 </v>
   <v>      -0.14285714      -0.28571429       0.44444444 </v>
   <v>      -0.14285714      -0.14285714       0.44444444 </v>
  </varray>
  <varray name="weights" >
   <v>       0.00226757 </v>
   <v>       0.00907029 </v>
   <v>       0.00907029 </v>
   <v>       0.00907029 </v>
   <v>       0.00453515 </v>
   <v>       0.00907029 </v>
   <v>       0.00907029 </v>
   <v>       0.00907029 </v>
   <v>       0.00907029 </v>
   <v>       0.00453515 </v>
   <v>       0.00453515 </v>
   <v>       0.00907029 </v>
   <v>       0.00907029 </v>
   <v>       0.00453515 </v>
   <v>       0.00453515 </v>
   <v>       0.00453515 </v>
   <v>       0.00453515 </v>
   <v>       0.00907029 </v>
   <v>       0.00907029 </v>
   <v>       0.00907029 </v>
   <v>       0.00907029 </v>
   <v>       0.00907029 </v>
   <v>       0.00907029 </v>
   <v>       0.00453515 </v>
   <v>       0.00907029 </v>
   <v>       0.00907029 </v>
   <v>       0.00907029 </v>
   <v>       0.00907029 </v>
   <v>       0.00907029 </v>
   <v>       0.00453515 </v>
   <v>       0.00907029 </v>
   <v>       0.00907029 </v>
   <v>       0.00907029 </v>
   <v>       0.00907029 </v>
   <v>       0.00453515 </v>
   <v>       0.00907029 </v>
   <v>       0.00907029 </v>
   <v>       0.00907029 </v>
   <v>       0.00453515 </v>
   <v>       0.00907029 </v>
   <v>       0.00907029 </v>
   <v>       0.00453515 </v>
   <v>       0.00907029 </v>
   <v>       0.00453515 </v>
   <v>       0.00453515 </v>
   <v>       0.00907029 </v>
   <v>       0.00907029 </v>
   <v>       0.00907029 </v>
   <v>       0.00907029 </v>
   <v>       0.00907029 </v>
   <v>       0.00907029 </v>
   <v>       0.00453515 </v>
   <v>       0.00907029 </v>
   <v>       0.00907029 </v>
   <v>       0.00907029 </v>
   <v>       0.00907029 </v>
   <v>       0.00907029 </v>
   <v>       0.00453515 </v>
   <v>       0.00907029 </v>
   <v>       0.00907029 </v>
   <v>       0.00907029 </v>
   <v>       0.00907029 </v>
   <v>       0.00453515 </v>
   <v>       0.00907029 </v>
   <v>       0.00907029 </v>
   <v>       0.00907029 </v>
   <v>       0.00453515 </v>
   <v>       0.00907029 </v>
   <v>       0.00907029 </v>
   <v>       0.00453515 </v>
   <v>       0.00907029 </v>
   <v>       0.00453515 </v>
   <v>       0.00453515 </v>
   <v>       0.00907029 </v>
   <v>       0.00907029 </v>
   <v>       0.00907029 </v>
   <v>       0.00907029 </v>
   <v>       0.00907029 </v>
   <v>       0.00907029 </v>
   <v>       0.00453515 </v>
   <v>       0.00907029 </v>
   <v>       0.00907029 </v>
   <v>       0.00907029 </v>
   <v>       0.00907029 </v>
   <v>       0.00907029 </v>
   <v>       0.00453515 </v>
   <v>       0.00907029 </v>
   <v>       0.00907029 </v>
   <v>       0.00907029 </v>
   <v>       0.00907029 </v>
   <v>       0.00453515 </v>
   <v>       0.00907029 </v>
   <v>       0.00907029 </v>
   <v>       0.00907029 </v>
   <v>       0.00453515 </v>
   <v>       0.00907029 </v>
   <v>       0.00907029 </v>
   <v>       0.00453515 </v>
   <v>       0.00907029 </v>
   <v>       0.00453515 </v>
   <v>       0.00453515 </v>
   <v>       0.00907029 </v>
   <v>       0.00907029 </v>
   <v>       0.00907029 </v>
   <v>       0.00907029 </v>
   <v>       0.00907029 </v>
   <v>       0.00907029 </v>
   <v>       0.00453515 </v>
   <v>       0.00907029 </v>
   <v>       0.00907029 </v>
   <v>       0.00907029 </v>
   <v>       0.00907029 </v>
   <v>       0.00907029 </v>
   <v>       0.00453515 </v>
   <v>       0.00907029 </v>
   <v>       0.00907029 </v>
   <v>       0.00907029 </v>
   <v>       0.00907029 </v>
   <v>       0.00453515 </v>
   <v>       0.00907029 </v>
   <v>       0.00907029 </v>
   <v>       0.00907029 </v>
   <v>       0.00453515 </v>
   <v>       0.00907029 </v>
   <v>       0.00907029 </v>
   <v>       0.00453515 </v>
   <v>       0.00907029 </v>
   <v>       0.00453515 </v>
  </varray>
 </kpoints>
 <parameters>
  <separator name="general" >
   <i type="string" name="SYSTEM">routine with relax: pwdword</i>
   <i type="logical" name="LCOMPAT"> F  </i>
  </separator>
  <separator name="electronic" >
   <i type="string" name="PREC">acc</i>
   <i name="ENMAX">    600.00000000</i>
   <i name="ENAUG">    535.51400000</i>
   <i name="EDIFF">      0.00000000</i>
   <i type="int" name="IALGO">    58</i>
   <i type="int" name="IWAVPR">    10</i>
   <i type="int" name="NBANDS">    78</i>
   <i type="int" name="NBANDSLOW">    -1</i>
   <i type="int" name="NBANDSHIGH">    -1</i>
   <i name="NELECT">    122.00000000</i>
   <i type="int" name="TURBO">     0</i>
   <i type="int" name="IRESTART">     0</i>
   <i type="int" name="NREBOOT">     0</i>
   <i type="int" name="NMIN">     0</i>
   <i name="EREF">      0.00000000</i>
   <separator name="electronic smearing" >
    <i type="int" name="ISMEAR">     0</i>
    <i name="SIGMA">      0.02000000</i>
    <i name="KSPACING">      0.50000000</i>
    <i type="logical" name="KGAMMA"> T  </i>
    <i type="logical" name="KBLOWUP"> F  </i>
   </separator>
   <separator name="electronic projectors" >
    <i type="logical" name="LREAL"> F  </i>
    <v name="ROPT">      0.00000000      0.00000000      0.00000000</v>
    <i type="int" name="LMAXPAW">  -100</i>
    <i type="int" name="LMAXMIX">     2</i>
    <i type="logical" name="NLSPLINE"> F  </i>
   </separator>
   <separator name="electronic startup" >
    <i type="int" name="ISTART">     0</i>
    <i type="int" name="ICHARG">     2</i>
    <i type="int" name="INIWAV">     1</i>
   </separator>
   <separator name="electronic spin" >
    <i type="int" name="ISPIN">     1</i>
    <i type="logical" name="LNONCOLLINEAR"> F  </i>
    <v name="MAGMOM">      1.00000000      1.00000000      1.00000000      1.00000000      1.00000000      1.00000000      1.00000000      1.00000000      1.00000000      1.00000000      1.00000000      1.00000000      1.00000000      1.00000000      1.00000000      1.00000000</v>
    <i name="NUPDOWN">     -1.00000000</i>
    <i type="logical" name="LSORBIT"> F  </i>
    <v name="SAXIS">      0.00000000      0.00000000      1.00000000</v>
    <i type="logical" name="LSPIRAL"> F  </i>
    <v name="QSPIRAL">      0.00000000      0.00000000      0.00000000</v>
    <i type="logical" name="LZEROZ"> F  </i>
   </separator>
   <separator name="electronic exchange-correlation" >
    <i type="logical" name="LASPH"> T  </i>
    <i type="logical" name="LMETAGGA"> F  </i>
   </separator>
   <separator name="electronic convergence" >
    <i type="int" name="NELM">   100</i>
    <i type="int" name="NELMDL">    -5</i>
    <i type="int" name="NELMIN">     6</i>
    <i name="ENINI">    600.00000000</i>
    <separator name="electronic convergence detail" >
     <i type="logical" name="LDIAG"> T  </i>
     <i type="logical" name="LSUBROT"> F  </i>
     <i name="WEIMIN">      0.00000000</i>
     <i name="EBREAK">      0.00000000</i>
     <i name="DEPER">      0.30000000</i>
     <i type="int" name="NRMM">     4</i>
     <i name="TIME">      0.40000000</i>
    </separator>
   </separator>
   <separator name="electronic mixer" >
    <i name="AMIX">      0.40000000</i>
    <i name="BMIX">      1.00000000</i>
    <i name="AMIN">      0.10000000</i>
    <i name="AMIX_MAG">      1.60000000</i>
    <i name="BMIX_MAG">      1.00000000</i>
    <separator name="electronic mixer details" >
     <i type="int" name="IMIX">     4</i>
     <i type="logical" name="MIXFIRST"> F  </i>
     <i type="int" name="MAXMIX">   -45</i>
     <i name="WC">    100.00000000</i>
     <i type="int" name="INIMIX">     1</i>
     <i type="int" name="MIXPRE">     1</i>
     <i type="int" name="MREMOVE">     5</i>
    </separator>
   </separator>
   <separator name="electronic dipolcorrection" >
    <i type="logical" name="LDIPOL"> F  </i>
    <i type="logical" name="LMONO"> F  </i>
    <i type="int" name="IDIPOL">     0</i>
    <i name="EPSILON">      1.00000000</i>
    <v name="DIPOL">   -100.00000000   -100.00000000   -100.00000000</v>
    <i name="EFIELD">      0.00000000</i>
   </separator>
  </separator>
  <separator name="grids" >
   <i type="int" name="NGX">    64</i>
   <i type="int" name="NGY">    64</i>
   <i type="int" name="NGZ">    64</i>
   <i type="int" name="NGXF">   128</i>
   <i type="int" name="NGYF">   128</i>
   <i type="int" name="NGZF">   128</i>
   <i type="logical" name="ADDGRID"> T  </i>
  </separator>
  <separator name="ionic" >
   <i type="int" name="NSW">     0</i>
   <i type="int" name="IBRION">    -1</i>
   <i type="int" name="MDALGO">     0</i>
   <i type="int" name="ISIF">    -1</i>
   <i name="PSTRESS">      0.00000000</i>
   <i name="EDIFFG">      0.00000001</i>
   <i type="int" name="NFREE">     0</i>
   <i name="POTIM">      0.50000000</i>
   <i name="SMASS">     -3.00000000</i>
   <i name="SCALEE">      1.00000000</i>
  </separator>
  <separator name="ionic md" >
   <i name="TEBEG">      0.00010000</i>
   <i name="TEEND">      0.00010000</i>
   <i type="int" name="NBLOCK">     1</i>
   <i type="int" name="KBLOCK">     1</i>
   <i type="int" name="NPACO">   256</i>
   <i name="APACO">     16.00000000</i>
  </separator>
  <separator name="symmetry" >
   <i type="int" name="ISYM">     2</i>
   <i name="SYMPREC">      0.00010000</i>
  </separator>
  <separator name="dos" >
   <i type="int" name="LORBIT">     0</i>
   <v name="RWIGS">     -1.00000000     -1.00000000     -1.00000000</v>
   <i type="int" name="NEDOS">   301</i>
   <i name="EMIN">     10.00000000</i>
   <i name="EMAX">    -10.00000000</i>
   <i name="EFERMI">      0.00000000</i>
  </separator>
  <separator name="writing" >
   <i type="int" name="NWRITE">     2</i>
   <i type="logical" name="LWAVE"> T  </i>
   <i type="logical" name="LDOWNSAMPLE"> F  </i>
   <i type="logical" name="LCHARG"> T  </i>
   <i type="logical" name="LPARD"> F  </i>
   <i type="logical" name="LVTOT"> F  </i>
   <i type="logical" name="LVHAR"> F  </i>
   <i type="logical" name="LELF"> F  </i>
   <i type="logical" name="LOPTICS"> F  </i>
   <v name="STM">      0.00000000      0.00000000      0.00000000      0.00000000      0.00000000      0.00000000      0.00000000</v>
  </separator>
  <separator name="performance" >
   <i type="int" name="NPAR">     6</i>
   <i type="int" name="NSIM">     4</i>
   <i type="int" name="NBLK">    -1</i>
   <i type="logical" name="LPLANE"> T  </i>
   <i type="logical" name="LSCALAPACK"> T  </i>
   <i type="logical" name="LSCAAWARE"> F  </i>
   <i type="logical" name="LSCALU"> F  </i>
   <i type="logical" name="LASYNC"> F  </i>
   <i type="logical" name="LORBITALREAL"> F  </i>
  </separator>
  <separator name="miscellaneous" >
   <i type="int" name="IDIOT">     3</i>
   <i type="int" name="PHON_NSTRUCT">    -1</i>
   <i type="logical" name="LMUSIC"> F  </i>
   <v name="POMASS">     10.81100000     95.94000000     28.08500000</v>
   <v name="DARWINR">      0.00000000      0.00000000      0.00000000</v>
   <v name="DARWINV">      1.00000000      1.00000000      1.00000000</v>
   <i type="logical" name="LCORR"> T  </i>
  </separator>
  <i type="logical" name="GGA_COMPAT"> T  </i>
  <i type="logical" name="LBERRY"> F  </i>
  <i type="int" name="ICORELEVEL">     0</i>
  <i type="logical" name="LDAU"> F  </i>
  <i type="int" name="I_CONSTRAINED_M">     0</i>
  <separator name="electronic exchange-correlation" >
   <i type="string" name="GGA">--</i>
   <i type="int" name="VOSKOWN">     0</i>
   <i type="logical" name="LHFCALC"> F  </i>
   <i type="string" name="PRECFOCK"></i>
   <i type="logical" name="LSYMGRAD"> F  </i>
   <i type="logical" name="LHFONE"> F  </i>
   <i type="logical" name="LRHFCALC"> F  </i>
   <i type="logical" name="LTHOMAS"> F  </i>
   <i type="logical" name="LMODELHF"> F  </i>
   <i type="logical" name="LFOCKACE"> F  </i>
   <i name="ENCUT4O">     -1.00000000</i>
   <i type="int" name="EXXOEP">     0</i>
   <i type="int" name="FOURORBIT">     0</i>
   <i name="AEXX">      0.00000000</i>
   <i name="HFALPHA">      0.00000000</i>
   <i name="MCALPHA">      0.00000000</i>
   <i name="ALDAX">      1.00000000</i>
   <i name="AGGAX">      1.00000000</i>
   <i name="ALDAC">      1.00000000</i>
   <i name="AGGAC">      1.00000000</i>
   <i type="int" name="NKREDX">     1</i>
   <i type="int" name="NKREDY">     1</i>
   <i type="int" name="NKREDZ">     1</i>
   <i type="logical" name="SHIFTRED"> F  </i>
   <i type="logical" name="ODDONLY"> F  </i>
   <i type="logical" name="EVENONLY"> F  </i>
   <i type="int" name="LMAXFOCK">     0</i>
   <i type="int" name="NMAXFOCKAE">     0</i>
   <i type="logical" name="LFOCKAEDFT"> F  </i>
   <i name="HFSCREEN">      0.00000000</i>
   <i name="HFSCREENC">      0.00000000</i>
   <i type="int" name="NBANDSGWLOW">     0</i>
  </separator>
  <separator name="vdW DFT" >
   <i type="logical" name="LUSE_VDW"> F  </i>
   <i name="Zab_VDW">     -0.84910000</i>
   <i name="PARAM1">      0.12340000</i>
   <i name="PARAM2">      1.00000000</i>
   <i name="PARAM3">      0.00000000</i>
  </separator>
  <separator name="model GW" >
   <i type="int" name="MODEL_GW">     0</i>
   <i name="MODEL_EPS0">      7.97123783</i>
   <i name="MODEL_ALPHA">      1.00000000</i>
  </separator>
  <separator name="linear response parameters" >
   <i type="logical" name="LEPSILON"> F  </i>
   <i type="logical" name="LRPA"> F  </i>
   <i type="logical" name="LNABLA"> F  </i>
   <i type="logical" name="LVEL"> F  </i>
   <i type="int" name="KINTER">     0</i>
   <i name="CSHIFT">      0.10000000</i>
   <i name="OMEGAMAX">     -1.00000000</i>
   <i name="DEG_THRESHOLD">      0.00200000</i>
   <i name="RTIME">     -0.10000000</i>
   <i name="WPLASMAI">      0.00000000</i>
   <v name="DFIELD">      0.00000000      0.00000000      0.00000000</v>
   <v name="WPLASMA">      0.00000000      0.00000000      0.00000000      0.00000000      0.00000000      0.00000000      0.00000000      0.00000000      0.00000000</v>
  </separator>
  <separator name="orbital magnetization" >
   <i type="logical" name="NUCIND"> F  </i>
   <v name="MAGPOS">      0.00000000      0.00000000      0.00000000</v>
   <i type="logical" name="LNICSALL"> T  </i>
   <i type="logical" name="ORBITALMAG"> F  </i>
   <i type="logical" name="LMAGBLOCH"> F  </i>
   <i type="logical" name="LCHIMAG"> F  </i>
   <i type="logical" name="LGAUGE"> T  </i>
   <i type="int" name="MAGATOM">     0</i>
   <v name="MAGDIPOL">      0.00000000      0.00000000      0.00000000</v>
   <v name="AVECCONST">      0.00000000      0.00000000      0.00000000</v>
  </separator>
  <separator name="response functions" >
   <i type="logical" name="LFINITE_TEMPERATURE"> F  </i>
   <i type="logical" name="LADDER"> F  </i>
   <i type="logical" name="LRPAFORCE"> F  </i>
   <i type="logical" name="LFXC"> F  </i>
   <i type="logical" name="LHARTREE"> T  </i>
   <i type="int" name="IBSE">     0</i>
   <v type="int" name="KPOINT">    -1     0     0     0</v>
   <i type="logical" name="LTCTC"> F  </i>
   <i type="logical" name="LTCTE"> F  </i>
   <i type="logical" name="LTETE"> F  </i>
   <i type="logical" name="LTRIPLET"> F  </i>
   <i type="logical" name="LFXCEPS"> F  </i>
   <i type="logical" name="LFXHEG"> F  </i>
   <i type="int" name="NATURALO">     2</i>
   <i type="logical" name="LHOLEGF"> F  </i>
   <i type="logical" name="L2ORDER"> F  </i>
   <i type="logical" name="LDMP1"> F  </i>
   <i type="logical" name="LMP2LT"> F  </i>
   <i type="logical" name="LSMP2LT"> F  </i>
   <i type="logical" name="LGWLF"> F  </i>
   <i name="ENCUTGW">     -2.00000000</i>
   <i name="ENCUTGWSOFT">     -2.00000000</i>
   <i name="ENCUTLF">     -1.00000000</i>
   <i type="logical" name="LESF_SPLINES"> F  </i>
   <i type="int" name="LMAXMP2">    -1</i>
   <i name="SCISSOR">      0.00000000</i>
   <i type="int" name="NOMEGA">     0</i>
   <i type="int" name="NOMEGAR">     0</i>
   <i type="int" name="NBANDSGW">    -1</i>
   <i type="int" name="NBANDSO">    -1</i>
   <i type="int" name="NBANDSV">    -1</i>
   <i type="int" name="NELM">   100</i>
   <i type="int" name="NELMHF">     1</i>
   <i type="int" name="DIM">     3</i>
   <i type="int" name="IESPILON">     4</i>
   <i type="int" name="ANTIRES">     0</i>
   <i name="OMEGAMAX">    -30.00000000</i>
   <i name="OMEGAMIN">    -30.00000000</i>
   <i name="OMEGATL">   -200.00000000</i>
   <i type="int" name="OMEGAGRID">     0</i>
   <i name="CSHIFT">     -0.10000000</i>
   <i type="logical" name="LSELFENERGY"> F  </i>
   <i type="logical" name="LSPECTRAL"> F  </i>
   <i type="logical" name="LSPECTRALGW"> F  </i>
   <i type="logical" name="LSINGLES"> F  </i>
   <i type="logical" name="LFERMIGW"> F  </i>
   <i type="logical" name="ODDONLYGW"> F  </i>
   <i type="logical" name="EVENONLYGW"> F  </i>
   <i type="int" name="NKREDLFX">     1</i>
   <i type="int" name="NKREDLFY">     1</i>
   <i type="int" name="NKREDLFZ">     1</i>
   <i type="int" name="MAXMEM">  2800</i>
   <i type="int" name="TELESCOPE">     0</i>
   <i type="int" name="NTAUPAR">    -1</i>
   <i type="int" name="NOMEGAPAR">    -1</i>
   <i name="DAMP_NEWTON">      0.80000001</i>
   <i name="LAMBDA">      1.00000000</i>
  </separator>
  <separator name="External order field" >
   <i name="OFIELD_KAPPA">      0.00000000</i>
   <v name="OFIELD_K">      0.00000000      0.00000000      0.00000000</v>
   <i name="OFIELD_Q6_NEAR">      0.00000000</i>
   <i name="OFIELD_Q6_FAR">      0.00000000</i>
   <i name="OFIELD_A">      0.00000000</i>
  </separator>
 </parameters>
 <atominfo>
  <atoms>      16 </atoms>
  <types>       3 </types>
  <array name="atoms" >
   <dimension dim="1">ion</dimension>
   <field type="string">element</field>
   <field type="int">atomtype</field>
   <set>
    <rc><c>B </c><c>   1</c></rc>
    <rc><c>B </c><c>   1</c></rc>
    <rc><c>Mo</c><c>   2</c></rc>
    <rc><c>Mo</c><c>   2</c></rc>
    <rc><c>Mo</c><c>   2</c></rc>
    <rc><c>Mo</c><c>   2</c></rc>
    <rc><c>Mo</c><c>   2</c></rc>
    <rc><c>Mo</c><c>   2</c></rc>
    <rc><c>Si</c><c>   3</c></rc>
    <rc><c>Si</c><c>   3</c></rc>
    <rc><c>Si</c><c>   3</c></rc>
    <rc><c>Si</c><c>   3</c></rc>
    <rc><c>Si</c><c>   3</c></rc>
    <rc><c>Si</c><c>   3</c></rc>
    <rc><c>Si</c><c>   3</c></rc>
    <rc><c>Si</c><c>   3</c></rc>
   </set>
  </array>
  <array name="atomtypes" >
   <dimension dim="1">type</dimension>
   <field type="int">atomspertype</field>
   <field type="string">element</field>
   <field>mass</field>
   <field>valence</field>
   <field type="string">pseudopotential</field>
   <set>
    <rc><c>   2</c><c>B </c><c>     10.81100000</c><c>      3.00000000</c><c>  PAW_PBE B 06Sep2000                   </c></rc>
    <rc><c>   6</c><c>Mo</c><c>     95.94000000</c><c>     14.00000000</c><c>  PAW_PBE Mo_sv 02Feb2006               </c></rc>
    <rc><c>   8</c><c>Si</c><c>     28.08500000</c><c>      4.00000000</c><c>  PAW_PBE Si 05Jan2001                  </c></rc>
   </set>
  </array>
 </atominfo>
 <structure name="initialpos" >
  <crystal>
   <varray name="basis" >
    <v>       5.22708859       0.00000000      -5.87376955 </v>
    <v>      -0.75697253       5.17198682      -5.87376955 </v>
    <v>       0.00000000       0.00000000       7.86280000 </v>
   </varray>
   <i name="volume">    212.56634216 </i>
   <varray name="rec_basis" >
    <v>       0.19131109       0.02800031       0.00000000 </v>
    <v>       0.00000000       0.19334929       0.00000000 </v>
    <v>       0.14291566       0.16535542       0.12718116 </v>
   </varray>
  </crystal>
  <varray name="positions" >
   <v>       0.00000000       0.50000000       0.50000000 </v>
   <v>       0.50000000       0.00000000       0.50000000 </v>
   <v>       0.24599000       0.74599000       0.99198000 </v>
   <v>       0.25000000       0.25000000       0.00000000 </v>
   <v>       0.75401000       0.25401000       0.00802000 </v>
   <v>       0.75000000       0.75000000       0.00000000 </v>
   <v>       0.74599000       0.75401000       0.50000000 </v>
   <v>       0.25401000       0.24599000       0.50000000 </v>
   <v>       0.11337000       0.11215000       0.50000000 </v>
   <v>       0.88663000       0.88785000       0.50000000 </v>
   <v>       0.11215000       0.61215000       0.99878000 </v>
   <v>       0.88785000       0.38785000       0.00122000 </v>
   <v>       0.61215000       0.61337000       0.50000000 </v>
   <v>       0.38785000       0.38663000       0.50000000 </v>
   <v>       0.61337000       0.11337000       0.00122000 </v>
   <v>       0.38663000       0.88663000       0.99878000 </v>
  </varray>
 </structure>
 <calculation>
  <scstep>
   <time name="total">  100.66  101.68</time>
   <energy>
    <i name="alphaZ">    518.26014275 </i>
    <i name="ewald">  -8998.59809847 </i>
    <i name="hartreedc">  -3385.95462295 </i>
    <i name="XCdc">    451.33556858 </i>
    <i name="pawpsdc">   9666.54758295 </i>
    <i name="pawaedc">  -9560.21215315 </i>
    <i name="eentropy">     -0.00100235 </i>
    <i name="bandstr">    351.29950986 </i>
    <i name="atom">  12140.56680252 </i>
    <i name="e_fr_energy">   1183.24372974 </i>
    <i name="e_wo_entrp">   1183.24473209 </i>
    <i name="e_0_energy">   1183.24423091 </i>
   </energy>
  </scstep>
  <scstep>
   <time name="total">  109.73  110.82</time>
   <energy>
    <i name="e_fr_energy">   -191.55703665 </i>
    <i name="e_wo_entrp">   -191.55552078 </i>
    <i name="e_0_energy">   -191.55627871 </i>
   </energy>
  </scstep>
  <scstep>
   <time name="total">  116.37  117.52</time>
   <energy>
    <i name="e_fr_energy">   -249.39941626 </i>
    <i name="e_wo_entrp">   -249.39761155 </i>
    <i name="e_0_energy">   -249.39851390 </i>
   </energy>
  </scstep>
  <scstep>
   <time name="total">  111.06  112.18</time>
   <energy>
    <i name="e_fr_energy">   -250.53685718 </i>
    <i name="e_wo_entrp">   -250.53500207 </i>
    <i name="e_0_energy">   -250.53592962 </i>
   </energy>
  </scstep>
  <scstep>
   <time name="total">  119.85  121.03</time>
   <energy>
    <i name="e_fr_energy">   -250.55982467 </i>
    <i name="e_wo_entrp">   -250.55797508 </i>
    <i name="e_0_energy">   -250.55889987 </i>
   </energy>
  </scstep>
  <scstep>
   <time name="total">  132.38  133.72</time>
   <energy>
    <i name="e_fr_energy">   -121.57270656 </i>
    <i name="e_wo_entrp">   -121.57117271 </i>
    <i name="e_0_energy">   -121.57193964 </i>
   </energy>
  </scstep>
  <scstep>
   <time name="total">  141.46  142.73</time>
   <energy>
    <i name="e_fr_energy">   -196.17255130 </i>
    <i name="e_wo_entrp">   -196.17132901 </i>
    <i name="e_0_energy">   -196.17194015 </i>
   </energy>
  </scstep>
  <scstep>
   <time name="total">  144.79  146.15</time>
   <energy>
    <i name="e_fr_energy">   -199.48429458 </i>
    <i name="e_wo_entrp">   -199.48311047 </i>
    <i name="e_0_energy">   -199.48370252 </i>
   </energy>
  </scstep>
  <scstep>
   <time name="total">  144.49  145.76</time>
   <energy>
    <i name="e_fr_energy">   -200.24401565 </i>
    <i name="e_wo_entrp">   -200.24309044 </i>
    <i name="e_0_energy">   -200.24355305 </i>
   </energy>
  </scstep>
  <scstep>
   <time name="total">  145.78  147.06</time>
   <energy>
    <i name="e_fr_energy">   -200.49902411 </i>
    <i name="e_wo_entrp">   -200.49791812 </i>
    <i name="e_0_energy">   -200.49847111 </i>
   </energy>
  </scstep>
  <scstep>
   <time name="total">  146.66  147.96</time>
   <energy>
    <i name="e_fr_energy">   -200.58879340 </i>
    <i name="e_wo_entrp">   -200.58747238 </i>
    <i name="e_0_energy">   -200.58813289 </i>
   </energy>
  </scstep>
  <scstep>
   <time name="total">  148.35  149.62</time>
   <energy>
    <i name="e_fr_energy">   -200.62094625 </i>
    <i name="e_wo_entrp">   -200.61958725 </i>
    <i name="e_0_energy">   -200.62026675 </i>
   </energy>
  </scstep>
  <scstep>
   <time name="total">  148.85  150.14</time>
   <energy>
    <i name="e_fr_energy">   -200.63654324 </i>
    <i name="e_wo_entrp">   -200.63510037 </i>
    <i name="e_0_energy">   -200.63582180 </i>
   </energy>
  </scstep>
  <scstep>
   <time name="total">  148.84  150.12</time>
   <energy>
    <i name="e_fr_energy">   -200.64325881 </i>
    <i name="e_wo_entrp">   -200.64179815 </i>
    <i name="e_0_energy">   -200.64252848 </i>
   </energy>
  </scstep>
  <scstep>
   <time name="total">  145.92  147.19</time>
   <energy>
    <i name="e_fr_energy">   -200.64604842 </i>
    <i name="e_wo_entrp">   -200.64453480 </i>
    <i name="e_0_energy">   -200.64529161 </i>
   </energy>
  </scstep>
  <scstep>
   <time name="total">  145.80  147.03</time>
   <energy>
    <i name="e_fr_energy">   -200.64720890 </i>
    <i name="e_wo_entrp">   -200.64569243 </i>
    <i name="e_0_energy">   -200.64645066 </i>
   </energy>
  </scstep>
  <scstep>
   <time name="total">  145.92  147.19</time>
   <energy>
    <i name="e_fr_energy">   -200.64767741 </i>
    <i name="e_wo_entrp">   -200.64614390 </i>
    <i name="e_0_energy">   -200.64691065 </i>
   </energy>
  </scstep>
  <scstep>
