 vasp.6.2.0 18Jan21 (build Jan 05 2022 15:41:44) complex                        
  
 executed on             LinuxIFC date 2025.05.07  17:50:53
 running on   24 total cores
 distrk:  each k-point on   12 cores,    2 groups
 distr:  one band on NCORE=   2 cores,    6 groups


--------------------------------------------------------------------------------------------------------


 INCAR:
   SYSTEM = routine with relax: pwdword
   ICHARG = 2
   NPAR = 6
   KPAR = 2
   NCORE = 2
   ADDGRID = T
   PREC = Acc
   ENCUT = 600
   METAGGA = R2SCAN
   LASPH = .TRUE.
   LMIXTAU = .FALSE.
   ALGO = A
   EDIFF = 1E-9
   NELM = 100
   NELMIN = 6
   IALGO = 38
   LREAL = F
   NSW = 0
   ISIF = -1
   ISMEAR = 0
   SIGMA = 0.02
   SYMPREC = 1E-4

 POTCAR:    PAW_PBE B 06Sep2000                   
 POTCAR:    PAW_PBE Mo_sv 02Feb2006               
 POTCAR:    PAW_PBE Si 05Jan2001                  
 -----------------------------------------------------------------------------
|                                                                             |
|           W    W    AA    RRRRR   N    N  II  N    N   GGGG   !!!           |
|           W    W   A  A   R    R  NN   N  II  NN   N  G    G  !!!           |
|           W    W  A    A  R    R  N N  N  II  N N  N  G       !!!           |
|           W WW W  AAAAAA  RRRRR   N  N N  II  N  N N  G  GGG   !            |
|           WW  WW  A    A  R   R   N   NN  II  N   NN  G    G                |
|           W    W  A    A  R    R  N    N  II  N    N   GGGG   !!!           |
|                                                                             |
|     For optimal performance we recommend to set                             |
|       NCORE = 2 up to number-of-cores-per-socket                            |
|     NCORE specifies how many cores store one orbital (NPAR=cpu/NCORE).      |
|     This setting can greatly improve the performance of VASP for DFT.       |
|     The default, NCORE=1 might be grossly inefficient on modern             |
|     multi-core architectures or massively parallel machines. Do your        |
|     own testing! More info at https://www.vasp.at/wiki/index.php/NCORE      |
|     Unfortunately you need to use the default for GW and RPA                |
|     calculations (for HF NCORE is supported but not extensively tested      |
|     yet).                                                                   |
|                                                                             |
 -----------------------------------------------------------------------------

 POTCAR:    PAW_PBE B 06Sep2000                   
   VRHFIN =B: s2p1                                                                                  
   LEXCH  = PE                                                                                      
   EATOM  =    71.1703 eV,    5.2309 Ry                                                             
                                                                                                    
   TITEL  = PAW_PBE B 06Sep2000                                                                     
   LULTRA =        F    use ultrasoft PP ?                                                          
   IUNSCR =        1    unscreen: 0-lin 1-nonlin 2-no                                               
   RPACOR =    1.200    partial core radius                                                         
   POMASS =   10.811; ZVAL   =    3.000    mass and valenz                                          
   RCORE  =    1.700    outmost cutoff radius                                                       
   RWIGS  =    1.710; RWIGS  =    0.905    wigner-seitz radius (au A)                               
   ENMAX  =  318.614; ENMIN  =  238.960 eV                                                          
   ICORE  =        2    local potential                                                             
   LCOR   =        T    correct aug charges                                                         
   LPAW   =        T    paw PP                                                                      
   EAUG   =  535.514                                                                                
   DEXC   =    0.000                                                                                
   RMAX   =    1.732    core radius for proj-oper                                                   
   RAUG   =    1.300    factor for augmentation sphere                                              
   RDEP   =    1.757    radius for radial grids                                                     
   RDEPT  =    1.436    core radius for aug-charge                                                  
                                                                                                    
   Atomic configuration                                                                             
    4 entries                                                                                       
     n  l   j            E        occ.                                                              
     1  0  0.50      -180.5896   2.0000                                                             
     2  0  0.50        -9.4431   2.0000                                                             
     2  1  0.50        -3.6068   1.0000                                                             
     3  2  1.50        -4.0817   0.0000                                                             
   Description                                                                                      
     l       E           TYP  RCUT    TYP  RCUT                                                     
     0     -9.4430752     23  1.500                                                                 
     0      0.8675899     23  1.500                                                                 
     1     -3.6067955     23  1.700                                                                 
     1      6.1086146     23  1.700                                                                 
     2     -4.0817478      7  1.700                                                                 
  local pseudopotential read in
  partial core-charges read in
  partial kinetic energy density read in
  atomic valenz-charges read in
  non local Contribution for L=           0  read in
    real space projection operators read in
  non local Contribution for L=           0  read in
    real space projection operators read in
  non local Contribution for L=           1  read in
    real space projection operators read in
  non local Contribution for L=           1  read in
    real space projection operators read in
    PAW grid and wavefunctions read in
 
   number of l-projection  operators is LMAX  =           4
   number of lm-projection operators is LMMAX =           8
 
 POTCAR:    PAW_PBE Mo_sv 02Feb2006               
   VRHFIN =Mo: 4p5s4d                                                                               
   LEXCH  = PE                                                                                      
   EATOM  =  1862.2866 eV,  136.8742 Ry                                                             
                                                                                                    
   TITEL  = PAW_PBE Mo_sv 02Feb2006                                                                 
   LULTRA =        F    use ultrasoft PP ?                                                          
   IUNSCR =        1    unscreen: 0-lin 1-nonlin 2-no                                               
   RPACOR =    2.200    partial core radius                                                         
   POMASS =   95.940; ZVAL   =   14.000    mass and valenz                                          
   RCORE  =    2.500    outmost cutoff radius                                                       
   RWIGS  =    2.750; RWIGS  =    1.455    wigner-seitz radius (au A)                               
   ENMAX  =  242.676; ENMIN  =  182.007 eV                                                          
   ICORE  =        3    local potential                                                             
   LCOR   =        T    correct aug charges                                                         
   LPAW   =        T    paw PP                                                                      
   EAUG   =  446.014                                                                                
   DEXC   =    0.000                                                                                
   RMAX   =    2.563    core radius for proj-oper                                                   
   RAUG   =    1.300    factor for augmentation sphere                                              
   RDEP   =    2.641    radius for radial grids                                                     
   RDEPT  =    2.031    core radius for aug-charge                                                  
                                                                                                    
   Atomic configuration                                                                             
   11 entries                                                                                       
     n  l   j            E        occ.                                                              
     1  0  0.50    -19819.0341   2.0000                                                             
     2  0  0.50     -2799.0127   2.0000                                                             
     2  1  1.50     -2502.0276   6.0000                                                             
     3  0  0.50      -476.4449   2.0000                                                             
     3  1  1.50      -379.1496   6.0000                                                             
     3  2  2.50      -220.9367  10.0000                                                             
     4  0  0.50       -64.3378   2.0000                                                             
     5  0  0.50        -4.0862   1.0000                                                             
     4  1  1.50       -38.4773   6.0000                                                             
     4  2  2.50        -3.7535   5.0000                                                             
     4  3  2.50        -1.3606   0.0000                                                             
   Description                                                                                      
     l       E           TYP  RCUT    TYP  RCUT                                                     
     0    -64.3377829     23  2.100                                                                 
     0     -4.0861640     23  2.400                                                                 
     1    -38.4772993     23  2.100                                                                 
     1     13.6058260     23  2.100                                                                 
     2     -3.7534941     23  2.400                                                                 
     2     -5.1140767     23  2.400                                                                 
     3     -4.0817478     23  2.500                                                                 
  local pseudopotential read in
  partial core-charges read in
  partial kinetic energy density read in
  atomic valenz-charges read in
  non local Contribution for L=           0  read in
    real space projection operators read in
  non local Contribution for L=           0  read in
    real space projection operators read in
  non local Contribution for L=           1  read in
    real space projection operators read in
  non local Contribution for L=           1  read in
    real space projection operators read in
  non local Contribution for L=           2  read in
    real space projection operators read in
  non local Contribution for L=           2  read in
    real space projection operators read in
    PAW grid and wavefunctions read in
 
   number of l-projection  operators is LMAX  =           6
   number of lm-projection operators is LMMAX =          18
 
 POTCAR:    PAW_PBE Si 05Jan2001                  
   VRHFIN =Si: s2p2                                                                                 
   LEXCH  = PE                                                                                      
   EATOM  =   103.0669 eV,    7.5752 Ry                                                             
                                                                                                    
   TITEL  = PAW_PBE Si 05Jan2001                                                                    
   LULTRA =        F    use ultrasoft PP ?                                                          
   IUNSCR =        1    unscreen: 0-lin 1-nonlin 2-no                                               
   RPACOR =    1.500    partial core radius                                                         
   POMASS =   28.085; ZVAL   =    4.000    mass and valenz                                          
   RCORE  =    1.900    outmost cutoff radius                                                       
   RWIGS  =    2.480; RWIGS  =    1.312    wigner-seitz radius (au A)                               
   ENMAX  =  245.345; ENMIN  =  184.009 eV                                                          
   ICORE  =        2    local potential                                                             
   LCOR   =        T    correct aug charges                                                         
   LPAW   =        T    paw PP                                                                      
   EAUG   =  322.069                                                                                
   DEXC   =    0.000                                                                                
   RMAX   =    1.950    core radius for proj-oper                                                   
   RAUG   =    1.300    factor for augmentation sphere                                              
   RDEP   =    1.993    radius for radial grids                                                     
   RDEPT  =    1.837    core radius for aug-charge                                                  
                                                                                                    
   Atomic configuration                                                                             
    6 entries                                                                                       
     n  l   j            E        occ.                                                              
     1  0  0.50     -1785.8828   2.0000                                                             
     2  0  0.50      -139.4969   2.0000                                                             
     2  1  1.50       -95.5546   6.0000                                                             
     3  0  0.50       -10.8127   2.0000                                                             
     3  1  0.50        -4.0811   2.0000                                                             
     3  2  1.50        -4.0817   0.0000                                                             
   Description                                                                                      
     l       E           TYP  RCUT    TYP  RCUT                                                     
     0    -10.8127223     23  1.900                                                                 
     0     -7.6451159     23  1.900                                                                 
     1     -4.0811372     23  1.900                                                                 
     1      2.4879257     23  1.900                                                                 
     2     -4.0817478      7  1.900                                                                 
  local pseudopotential read in
  partial core-charges read in
  partial kinetic energy density read in
  atomic valenz-charges read in
  non local Contribution for L=           0  read in
    real space projection operators read in
  non local Contribution for L=           0  read in
    real space projection operators read in
  non local Contribution for L=           1  read in
    real space projection operators read in
  non local Contribution for L=           1  read in
    real space projection operators read in
    PAW grid and wavefunctions read in
 
   number of l-projection  operators is LMAX  =           4
   number of lm-projection operators is LMMAX =           8
 
  PAW_PBE B 06Sep2000                   :
 energy of atom  1       EATOM=  -71.1703
 kinetic energy error for atom=    0.0007 (will be added to EATOM!!)
  PAW_PBE Mo_sv 02Feb2006               :
 energy of atom  2       EATOM=-1862.2866
 kinetic energy error for atom=    0.0041 (will be added to EATOM!!)
  PAW_PBE Si 05Jan2001                  :
 energy of atom  3       EATOM= -103.0669
 kinetic energy error for atom=    0.0003 (will be added to EATOM!!)
 
 
 POSCAR: EA134
  positions in direct lattice
  No initial velocities read in

 METAGGA = R2SCA    LMAXTAU =  6    LMIXTAU =  F

 exchange correlation table for  LEXCH =        8
   RHO(1)=    0.500       N(1)  =     2000
   RHO(2)=  100.500       N(2)  =     4000
 


--------------------------------------------------------------------------------------------------------


 ion  position               nearest neighbor table
   1  0.429  0.929  0.500-   2 1.75   9 2.02  10 2.02   8 2.18   6 2.18   5 2.22
   2  0.571  0.071  0.500-   1 1.75   9 2.02  10 2.02   6 2.18   8 2.18   7 2.22
   3  0.929  0.429  0.500-   4 1.75   8 2.02   6 2.02   9 2.18  10 2.18   7 2.22
   4  0.071  0.571  0.500-   3 1.75   6 2.02   8 2.02   9 2.18  10 2.18   5 2.22
   5  0.250  0.750  0.500-   1 2.22   4 2.22  11 2.70  12 2.70  11 2.70  12 2.70
   6  0.238  0.738  0.976-   4 2.02   3 2.02   2 2.18   1 2.18  10 2.70   9 2.70  10 2.70   9 2.70

   7  0.750  0.250  0.500-   2 2.22   3 2.22  11 2.70  12 2.70  12 2.70  11 2.70
   8  0.762  0.262  0.024-   3 2.02   4 2.02   1 2.18   2 2.18   9 2.70  10 2.70   9 2.70  10 2.70

   9  0.738  0.762  0.500-   1 2.02   2 2.02   3 2.18   4 2.18   6 2.70   8 2.70   8 2.70   6 2.70

  10  0.262  0.238  0.500-   1 2.02   2 2.02   3 2.18   4 2.18   6 2.70   8 2.70   6 2.70   8 2.70

  11  0.250  0.250  0.000-   5 2.70   7 2.70   5 2.70   7 2.70
  12  0.750  0.750  0.000-   5 2.70   7 2.70   7 2.70   5 2.70
 
  LATTYP: Found a body centered tetragonal cell.
 ALAT       =     5.4024409543
 C/A-ratio  =     2.2912723962
  
  Lattice vectors:
  
 A1 = (   5.0160373303,   0.0000000000,  -5.2668058759)
 A2 = (  -0.8026127192,   4.9514082160,  -5.2668058759)
 A3 = (   0.0000000000,   0.0000000000,   7.2732300000)


Analysis of symmetry for initial positions (statically):
=====================================================================
 Subroutine PRICEL returns:
 Original cell was already a primitive cell.
 

 Routine SETGRP: Setting up the symmetry group for a 
 body centered tetragonal supercell.


 Subroutine GETGRP returns: Found 16 space group operations
 (whereof  8 operations were pure point group operations)
 out of a pool of 16 trial point group operations.


The static configuration has the point symmetry C_4h.
 The point group associated with its full space group is D_4h.


Analysis of symmetry for dynamics (positions and initial velocities):
=====================================================================
 Subroutine PRICEL returns:
 Original cell was already a primitive cell.
 

 Routine SETGRP: Setting up the symmetry group for a 
 body centered tetragonal supercell.


 Subroutine GETGRP returns: Found 16 space group operations
 (whereof  8 operations were pure point group operations)
 out of a pool of 16 trial point group operations.


The dynamic configuration has the point symmetry C_4h.
 The point group associated with its full space group is D_4h.


 Subroutine INISYM returns: Found 16 space group operations
 (whereof  8 operations are pure point group operations),
 and found     1 'primitive' translations


----------------------------------------------------------------------------------------

                                     Primitive cell                                     

  volume of cell :     180.6412

  direct lattice vectors                    reciprocal lattice vectors
     5.016037330  0.000000000 -5.266805876     0.199360558  0.032315922  0.000000000
    -0.802612719  4.951408216 -5.266805876     0.000000000  0.201962746  0.000000000
     0.000000000  0.000000000  7.273230000     0.144364107  0.169649559  0.137490496

  length of vectors
     7.273230000  7.273230000  7.273230000     0.201962746  0.201962746  0.261773958

  position of ions in fractional coordinates (direct lattice)
     0.429320000  0.929320000  0.500000000
     0.570680000  0.070680000  0.500000000
     0.929320000  0.429320000  0.500000000
     0.070680000  0.570680000  0.500000000
     0.250000000  0.750000000  0.500000000
     0.238040000  0.738040000  0.976070000
     0.750000000  0.250000000  0.500000000
     0.761960000  0.261960000  0.023930000
     0.738040000  0.761960000  0.500000000
     0.261960000  0.238040000  0.500000000
     0.250000000  0.250000000  0.000000000
     0.750000000  0.750000000  0.000000000

  ion indices of the primitive-cell ions
   primitive index   ion index
                 1           1
                 2           2
                 3           3
                 4           4
                 5           5
                 6           6
                 7           7
                 8           8
                 9           9
                10          10
                11          11
                12          12

----------------------------------------------------------------------------------------

 
 
 KPOINTS: EA                                      

Automatic generation of k-mesh.
 Grid dimensions read from file:
 generate k-points for:    7    7    9

 Generating k-lattice:

  Cartesian coordinates                     Fractional coordinates (reciprocal lattice)
     0.028480080  0.004616560  0.000000000     0.142857143  0.000000000  0.000000000
     0.000000000  0.028851821  0.000000000     0.000000000  0.142857143  0.000000000
     0.016040456  0.018849951  0.015276722     0.000000000  0.000000000  0.111111111

  Length of vectors
     0.028851821  0.028851821  0.029085995

  Shift w.r.t. Gamma in fractional coordinates (k-lattice)
     0.000000000  0.000000000  0.000000000

 -----------------------------------------------------------------------------
|                                                                             |
|           W    W    AA    RRRRR   N    N  II  N    N   GGGG   !!!           |
|           W    W   A  A   R    R  NN   N  II  NN   N  G    G  !!!           |
|           W    W  A    A  R    R  N N  N  II  N N  N  G       !!!           |
|           W WW W  AAAAAA  RRRRR   N  N N  II  N  N N  G  GGG   !            |
|           WW  WW  A    A  R   R   N   NN  II  N   NN  G    G                |
|           W    W  A    A  R    R  N    N  II  N    N   GGGG   !!!           |
|                                                                             |
|     Your reciprocal lattice and k-lattice belong to different lattice       |
|     classes:                                                                |
|                                                                             |
|        The reciprocal lattice is body-centered tetragonal,                  |
|        whereas your k-lattice is base-centered monoclinic.                  |
|                                                                             |
|     Results are often still useful ...                                      |
|                                                                             |
 -----------------------------------------------------------------------------

 WARNING: IBZKPT: internal override: KBLOWUP is changed to .FALSE.
      ... skipping the blow-up phase ...

 
 Subroutine IBZKPT returns following result:
 ===========================================
 
 Found    128 irreducible k-points:
 
 Following reciprocal coordinates:
            Coordinates               Weight
  0.000000  0.000000  0.000000      1.000000
  0.142857  0.000000  0.000000      4.000000
  0.285714  0.000000  0.000000      4.000000
  0.428571 -0.000000  0.000000      4.000000
  0.142857  0.142857  0.000000      2.000000
  0.285714  0.142857  0.000000      4.000000
  0.428571  0.142857  0.000000      4.000000
 -0.428571  0.142857  0.000000      4.000000
 -0.285714  0.142857  0.000000      4.000000
 -0.142857  0.142857  0.000000      2.000000
  0.285714  0.285714  0.000000      2.000000
  0.428571  0.285714  0.000000      4.000000
 -0.428571  0.285714  0.000000      4.000000
 -0.285714  0.285714  0.000000      2.000000
  0.428571  0.428571  0.000000      2.000000
 -0.428571  0.428571  0.000000      2.000000
 -0.000000  0.000000  0.111111      2.000000
  0.142857  0.000000  0.111111      4.000000
  0.285714  0.000000  0.111111      4.000000
  0.428571 -0.000000  0.111111      4.000000
 -0.428571  0.000000  0.111111      4.000000
 -0.285714  0.000000  0.111111      4.000000
 -0.142857  0.000000  0.111111      4.000000
  0.142857  0.142857  0.111111      2.000000
  0.285714  0.142857  0.111111      4.000000
  0.428571  0.142857  0.111111      4.000000
 -0.428571  0.142857  0.111111      4.000000
 -0.285714  0.142857  0.111111      4.000000
 -0.142857  0.142857  0.111111      4.000000
  0.285714  0.285714  0.111111      2.000000
  0.428571  0.285714  0.111111      4.000000
 -0.428571  0.285714  0.111111      4.000000
 -0.285714  0.285714  0.111111      4.000000
 -0.142857  0.285714  0.111111      4.000000
  0.428571  0.428571  0.111111      2.000000
 -0.428571  0.428571  0.111111      4.000000
 -0.285714  0.428571  0.111111      4.000000
 -0.142857  0.428571  0.111111      4.000000
 -0.428571 -0.428571  0.111111      2.000000
 -0.285714 -0.428571  0.111111      4.000000
 -0.142857 -0.428571  0.111111      4.000000
 -0.285714 -0.285714  0.111111      2.000000
 -0.142857 -0.285714  0.111111      4.000000
 -0.142857 -0.142857  0.111111      2.000000
 -0.000000  0.000000  0.222222      2.000000
  0.142857  0.000000  0.222222      4.000000
  0.285714  0.000000  0.222222      4.000000
  0.428571  0.000000  0.222222      4.000000
 -0.428571  0.000000  0.222222      4.000000
 -0.285714  0.000000  0.222222      4.000000
 -0.142857  0.000000  0.222222      4.000000
  0.142857  0.142857  0.222222      2.000000
  0.285714  0.142857  0.222222      4.000000
  0.428571  0.142857  0.222222      4.000000
 -0.428571  0.142857  0.222222      4.000000
 -0.285714  0.142857  0.222222      4.000000
 -0.142857  0.142857  0.222222      4.000000
  0.285714  0.285714  0.222222      2.000000
  0.428571  0.285714  0.222222      4.000000
 -0.428571  0.285714  0.222222      4.000000
 -0.285714  0.285714  0.222222      4.000000
 -0.142857  0.285714  0.222222      4.000000
  0.428571  0.428571  0.222222      2.000000
 -0.428571  0.428571  0.222222      4.000000
 -0.285714  0.428571  0.222222      4.000000
 -0.142857  0.428571  0.222222      4.000000
 -0.428571 -0.428571  0.222222      2.000000
 -0.285714 -0.428571  0.222222      4.000000
 -0.142857 -0.428571  0.222222      4.000000
 -0.285714 -0.285714  0.222222      2.000000
 -0.142857 -0.285714  0.222222      4.000000
 -0.142857 -0.142857  0.222222      2.000000
 -0.000000  0.000000  0.333333      2.000000
  0.142857  0.000000  0.333333      4.000000
  0.285714 -0.000000  0.333333      4.000000
  0.428571  0.000000  0.333333      4.000000
 -0.428571  0.000000  0.333333      4.000000
 -0.285714  0.000000  0.333333      4.000000
 -0.142857  0.000000  0.333333      4.000000
  0.142857  0.142857  0.333333      2.000000
  0.285714  0.142857  0.333333      4.000000
  0.428571  0.142857  0.333333      4.000000
 -0.428571  0.142857  0.333333      4.000000
 -0.285714  0.142857  0.333333      4.000000
 -0.142857  0.142857  0.333333      4.000000
  0.285714  0.285714  0.333333      2.000000
  0.428571  0.285714  0.333333      4.000000
 -0.428571  0.285714  0.333333      4.000000
 -0.285714  0.285714  0.333333      4.000000
 -0.142857  0.285714  0.333333      4.000000
  0.428571  0.428571  0.333333      2.000000
 -0.428571  0.428571  0.333333      4.000000
 -0.285714  0.428571  0.333333      4.000000
 -0.142857  0.428571  0.333333      4.000000
 -0.428571 -0.428571  0.333333      2.000000
 -0.285714 -0.428571  0.333333      4.000000
 -0.142857 -0.428571  0.333333      4.000000
 -0.285714 -0.285714  0.333333      2.000000
 -0.142857 -0.285714  0.333333      4.000000
 -0.142857 -0.142857  0.333333      2.000000
 -0.000000  0.000000  0.444444      2.000000
  0.142857  0.000000  0.444444      4.000000
  0.285714  0.000000  0.444444      4.000000
  0.428571  0.000000  0.444444      4.000000
 -0.428571  0.000000  0.444444      4.000000
 -0.285714  0.000000  0.444444      4.000000
 -0.142857  0.000000  0.444444      4.000000
  0.142857  0.142857  0.444444      2.000000
  0.285714  0.142857  0.444444      4.000000
  0.428571  0.142857  0.444444      4.000000
 -0.428571  0.142857  0.444444      4.000000
 -0.285714  0.142857  0.444444      4.000000
 -0.142857  0.142857  0.444444      4.000000
  0.285714  0.285714  0.444444      2.000000
  0.428571  0.285714  0.444444      4.000000
 -0.428571  0.285714  0.444444      4.000000
 -0.285714  0.285714  0.444444      4.000000
 -0.142857  0.285714  0.444444      4.000000
  0.428571  0.428571  0.444444      2.000000
 -0.428571  0.428571  0.444444      4.000000
 -0.285714  0.428571  0.444444      4.000000
 -0.142857  0.428571  0.444444      4.000000
 -0.428571 -0.428571  0.444444      2.000000
 -0.285714 -0.428571  0.444444      4.000000
 -0.142857 -0.428571  0.444444      4.000000
 -0.285714 -0.285714  0.444444      2.000000
 -0.142857 -0.285714  0.444444      4.000000
 -0.142857 -0.142857  0.444444      2.000000
 
 Following cartesian coordinates:
            Coordinates               Weight
  0.000000  0.000000  0.000000      1.000000
  0.028480  0.004617  0.000000      4.000000
  0.056960  0.009233  0.000000      4.000000
  0.085440  0.013850  0.000000      4.000000
  0.028480  0.033468  0.000000      2.000000
  0.056960  0.038085  0.000000      4.000000
  0.085440  0.042702  0.000000      4.000000
 -0.085440  0.015002  0.000000      4.000000
 -0.056960  0.019619  0.000000      4.000000
 -0.028480  0.024235  0.000000      2.000000
  0.056960  0.066937  0.000000      2.000000
  0.085440  0.071553  0.000000      4.000000
 -0.085440  0.043854  0.000000      4.000000
 -0.056960  0.048471  0.000000      2.000000
  0.085440  0.100405  0.000000      2.000000
 -0.085440  0.072706  0.000000      2.000000
  0.016040  0.018850  0.015277      2.000000
  0.044521  0.023467  0.015277      4.000000
  0.073001  0.028083  0.015277      4.000000
  0.101481  0.032700  0.015277      4.000000
 -0.069400  0.005000  0.015277      4.000000
 -0.040920  0.009617  0.015277      4.000000
 -0.012440  0.014233  0.015277      4.000000
  0.044521  0.052318  0.015277      2.000000
  0.073001  0.056935  0.015277      4.000000
  0.101481  0.061551  0.015277      4.000000
 -0.069400  0.033852  0.015277      4.000000
 -0.040920  0.038469  0.015277      4.000000
 -0.012440  0.043085  0.015277      4.000000
  0.073001  0.085787  0.015277      2.000000
  0.101481  0.090403  0.015277      4.000000
 -0.069400  0.062704  0.015277      4.000000
 -0.040920  0.067320  0.015277      4.000000
 -0.012440  0.071937  0.015277      4.000000
  0.101481  0.119255  0.015277      2.000000
 -0.069400  0.091556  0.015277      4.000000
 -0.040920  0.096172  0.015277      4.000000
 -0.012440  0.100789  0.015277      4.000000
 -0.069400 -0.081555  0.015277      2.000000
 -0.040920 -0.076939  0.015277      4.000000
 -0.012440 -0.072322  0.015277      4.000000
 -0.040920 -0.048087  0.015277      2.000000
 -0.012440 -0.043470  0.015277      4.000000
 -0.012440 -0.014618  0.015277      2.000000
  0.032081  0.037700  0.030553      2.000000
  0.060561  0.042316  0.030553      4.000000
  0.089041  0.046933  0.030553      4.000000
  0.117521  0.051550  0.030553      4.000000
 -0.053359  0.023850  0.030553      4.000000
 -0.024879  0.028467  0.030553      4.000000
  0.003601  0.033083  0.030553      4.000000
  0.060561  0.071168  0.030553      2.000000
  0.089041  0.075785  0.030553      4.000000
  0.117521  0.080401  0.030553      4.000000
 -0.053359  0.052702  0.030553      4.000000
 -0.024879  0.057319  0.030553      4.000000
  0.003601  0.061935  0.030553      4.000000
  0.089041  0.104637  0.030553      2.000000
  0.117521  0.109253  0.030553      4.000000
 -0.053359  0.081554  0.030553      4.000000
 -0.024879  0.086170  0.030553      4.000000
  0.003601  0.090787  0.030553      4.000000
  0.117521  0.138105  0.030553      2.000000
 -0.053359  0.110406  0.030553      4.000000
 -0.024879  0.115022  0.030553      4.000000
  0.003601  0.119639  0.030553      4.000000
 -0.053359 -0.062705  0.030553      2.000000
 -0.024879 -0.058089  0.030553      4.000000
  0.003601 -0.053472  0.030553      4.000000
 -0.024879 -0.029237  0.030553      2.000000
  0.003601 -0.024620  0.030553      4.000000
  0.003601  0.004232  0.030553      2.000000
  0.048121  0.056550  0.045830      2.000000
  0.076601  0.061166  0.045830      4.000000
  0.105082  0.065783  0.045830      4.000000
  0.133562  0.070400  0.045830      4.000000
 -0.037319  0.042700  0.045830      4.000000
 -0.008839  0.047317  0.045830      4.000000
  0.019641  0.051933  0.045830      4.000000
  0.076601  0.090018  0.045830      2.000000
  0.105082  0.094635  0.045830      4.000000
  0.133562  0.099251  0.045830      4.000000
 -0.037319  0.071552  0.045830      4.000000
 -0.008839  0.076169  0.045830      4.000000
  0.019641  0.080785  0.045830      4.000000
  0.105082  0.123487  0.045830      2.000000
  0.133562  0.128103  0.045830      4.000000
 -0.037319  0.100404  0.045830      4.000000
 -0.008839  0.105020  0.045830      4.000000
  0.019641  0.109637  0.045830      4.000000
  0.133562  0.156955  0.045830      2.000000
 -0.037319  0.129256  0.045830      4.000000
 -0.008839  0.133872  0.045830      4.000000
  0.019641  0.138489  0.045830      4.000000
 -0.037319 -0.043855  0.045830      2.000000
 -0.008839 -0.039239  0.045830      4.000000
  0.019641 -0.034622  0.045830      4.000000
 -0.008839 -0.010387  0.045830      2.000000
  0.019641 -0.005770  0.045830      4.000000
  0.019641  0.023081  0.045830      2.000000
  0.064162  0.075400  0.061107      2.000000
  0.092642  0.080016  0.061107      4.000000
  0.121122  0.084633  0.061107      4.000000
  0.149602  0.089249  0.061107      4.000000
 -0.021278  0.061550  0.061107      4.000000
  0.007202  0.066167  0.061107      4.000000
  0.035682  0.070783  0.061107      4.000000
  0.092642  0.108868  0.061107      2.000000
  0.121122  0.113485  0.061107      4.000000
  0.149602  0.118101  0.061107      4.000000
 -0.021278  0.090402  0.061107      4.000000
  0.007202  0.095019  0.061107      4.000000
  0.035682  0.099635  0.061107      4.000000
  0.121122  0.142337  0.061107      2.000000
  0.149602  0.146953  0.061107      4.000000
 -0.021278  0.119254  0.061107      4.000000
  0.007202  0.123870  0.061107      4.000000
  0.035682  0.128487  0.061107      4.000000
  0.149602  0.175805  0.061107      2.000000
 -0.021278  0.148106  0.061107      4.000000
  0.007202  0.152722  0.061107      4.000000
  0.035682  0.157339  0.061107      4.000000
 -0.021278 -0.025005  0.061107      2.000000
  0.007202 -0.020389  0.061107      4.000000
  0.035682 -0.015772  0.061107      4.000000
  0.007202  0.008463  0.061107      2.000000
  0.035682  0.013080  0.061107      4.000000
  0.035682  0.041931  0.061107      2.000000
 


--------------------------------------------------------------------------------------------------------




 Dimension of arrays:
   k-points           NKPTS =    128   k-points in BZ     NKDIM =    128   number of bands    NBANDS=     66
   number of dos      NEDOS =    301   number of ions     NIONS =     12
   non local maximal  LDIM  =      6   non local SUM 2l+1 LMDIM =     18
   total plane-waves  NPLWV = 216000
   max r-space proj   IRMAX =      1   max aug-charges    IRDMAX= 418484
   dimension x,y,z NGX =    60 NGY =   60 NGZ =   60
   dimension x,y,z NGXF=   120 NGYF=  120 NGZF=  120
   support grid    NGXF=   240 NGYF=  240 NGZF=  240
   ions per type =               4   6   2
   NGX,Y,Z   is equivalent  to a cutoff of  13.71, 13.71, 13.71 a.u.
   NGXF,Y,Z  is equivalent  to a cutoff of  27.43, 27.43, 27.43 a.u.

 SYSTEM =  routine with relax: pwdword             
 POSCAR =  EA134                                   

 Startparameter for this run:
   NWRITE =      2    write-flag & timer
   PREC   = acc       normal or accurate (medium, high low for compatibility)
   ISTART =      0    job   : 0-new  1-cont  2-samecut
   ICHARG =      2    charge: 1-file 2-atom 10-const
   ISPIN  =      1    spin polarized calculation?
   LNONCOLLINEAR =      F non collinear calculations
   LSORBIT =      F    spin-orbit coupling
   INIWAV =      1    electr: 0-lowe 1-rand  2-diag
   LASPH  =      T    aspherical Exc in radial PAW
   METAGGA=      F    non-selfconsistent MetaGGA calc.

 Electronic Relaxation 1
   ENCUT  =  600.0 eV  44.10 Ry    6.64 a.u.  14.53 14.53 14.53*2*pi/ulx,y,z
   ENINI  =  600.0     initial cutoff
   ENAUG  =  535.5 eV  augmentation charge cutoff
   NELM   =    100;   NELMIN=  6; NELMDL= -5     # of ELM steps 
   EDIFF  = 0.1E-08   stopping-criterion for ELM
   LREAL  =      F    real-space projection
   NLSPLINE    = F    spline interpolate recip. space projectors
   LCOMPAT=      F    compatible to vasp.4.4
   GGA_COMPAT  = T    GGA compatible to vasp.4.4-vasp.4.6
   LMAXPAW     = -100 max onsite density
   LMAXMIX     =    2 max onsite mixed and CHGCAR
   VOSKOWN=      0    Vosko Wilk Nusair interpolation
   ROPT   =    0.00000   0.00000   0.00000
 Ionic relaxation
   EDIFFG = 0.1E-07   stopping-criterion for IOM
   NSW    =      0    number of steps for IOM
   NBLOCK =      1;   KBLOCK =      1    inner block; outer block 
   IBRION =     -1    ionic relax: 0-MD 1-quasi-New 2-CG
   NFREE  =      0    steps in history (QN), initial steepest desc. (CG)
   ISIF   =     -1    stress and relaxation
   IWAVPR =     10    prediction:  0-non 1-charg 2-wave 3-comb
   ISYM   =      2    0-nonsym 1-usesym 2-fastsym
   LCORR  =      T    Harris-Foulkes like correction to forces

   POTIM  = 0.5000    time-step for ionic-motion
   TEIN   =    0.0    initial temperature
   TEBEG  =    0.0;   TEEND  =   0.0 temperature during run
   SMASS  =  -3.00    Nose mass-parameter (am)
   estimated Nose-frequenzy (Omega)   =  0.10E-29 period in steps = 0.13E+47 mass=  -0.121E-26a.u.
   SCALEE = 1.0000    scale energy and forces
   NPACO  =    256;   APACO  = 16.0  distance and # of slots for P.C.
   PSTRESS=    0.0 pullay stress

  Mass of Ions in am
   POMASS =  10.81 95.94 28.09
  Ionic Valenz
   ZVAL   =   3.00 14.00  4.00
  Atomic Wigner-Seitz radii
   RWIGS  =  -1.00 -1.00 -1.00
  virtual crystal weights 
   VCA    =   1.00  1.00  1.00
   NELECT =     104.0000    total number of electrons
   NUPDOWN=      -1.0000    fix difference up-down

 DOS related values:
   EMIN   =  10.00;   EMAX   =-10.00  energy-range for DOS
   EFERMI =   0.00
   ISMEAR =     0;   SIGMA  =   0.02  broadening in eV -4-tet -1-fermi 0-gaus

 Electronic relaxation 2 (details)
   IALGO  =     58    algorithm
   LDIAG  =      T    sub-space diagonalisation (order eigenvalues)
   LSUBROT=      F    optimize rotation matrix (better conditioning)
   TURBO    =      0    0=normal 1=particle mesh
   IRESTART =      0    0=no restart 2=restart with 2 vectors
   NREBOOT  =      0    no. of reboots
   NMIN     =      0    reboot dimension
   EREF     =   0.00    reference energy to select bands
   IMIX   =      4    mixing-type and parameters
     AMIX     =   0.40;   BMIX     =  1.00
     AMIX_MAG =   1.60;   BMIX_MAG =  1.00
     AMIN     =   0.10
     WC   =   100.;   INIMIX=   1;  MIXPRE=   1;  MAXMIX= -45

 Intra band minimization:
   WEIMIN = 0.0000     energy-eigenvalue tresh-hold
   EBREAK =  0.38E-11  absolut break condition
   DEPER  =   0.30     relativ break condition  

   TIME   =   0.40     timestep for ELM

  volume/ion in A,a.u.               =      15.05       101.59
  Fermi-wavevector in a.u.,A,eV,Ry     =   1.361906  2.573628 25.235907  1.854787
  Thomas-Fermi vector in A             =   2.488441
 
 Write flags
   LWAVE        =      T    write WAVECAR
   LDOWNSAMPLE  =      F    k-point downsampling of WAVECAR
   LCHARG       =      T    write CHGCAR
   LVTOT        =      F    write LOCPOT, total local potential
   LVHAR        =      F    write LOCPOT, Hartree potential only
   LELF         =      F    write electronic localiz. function (ELF)
   LORBIT       =      0    0 simple, 1 ext, 2 COOP (PROOUT), +10 PAW based schemes


 Dipole corrections
   LMONO  =      F    monopole corrections only (constant potential shift)
   LDIPOL =      F    correct potential (dipole corrections)
   IDIPOL =      0    1-x, 2-y, 3-z, 4-all directions 
   EPSILON=  1.0000000 bulk dielectric constant

 Exchange correlation treatment:
   GGA     =    --    GGA type
   LEXCH   =     8    internal setting for exchange type
   VOSKOWN=      0    Vosko Wilk Nusair interpolation
   LHFCALC =     F    Hartree Fock is set to
   LHFONE  =     F    Hartree Fock one center treatment
   AEXX    =    0.0000 exact exchange contribution

 Linear response parameters
   LEPSILON=     F    determine dielectric tensor
   LRPA    =     F    only Hartree local field effects (RPA)
   LNABLA  =     F    use nabla operator in PAW spheres
   LVEL    =     F    velocity operator in full k-point grid
   LINTERFAST=   F  fast interpolation
   KINTER  =     0    interpolate to denser k-point grid
   CSHIFT  =0.1000    complex shift for real part using Kramers Kronig
   OMEGAMAX=  -1.0    maximum frequency
   DEG_THRESHOLD= 0.2000000E-02 threshold for treating states as degnerate
   RTIME   =   -0.100 relaxation time in fs
  (WPLASMAI=    0.000 imaginary part of plasma frequency in eV, 0.658/RTIME)
   DFIELD  = 0.0000000 0.0000000 0.0000000 field for delta impulse in time
 
 Orbital magnetization related:
   ORBITALMAG=     F  switch on orbital magnetization
   LCHIMAG   =     F  perturbation theory with respect to B field
   DQ        =  0.001000  dq finite difference perturbation B field
   LLRAUG    =     F  two centre corrections for induced B field



--------------------------------------------------------------------------------------------------------


 Static calculation
 charge density and potential will be updated during run
 non-spin polarized calculation
 Conjugate gradient for all bands (Freysoldt, et al. PRB 79, 241103 (2009))
 preconditioned conjugated gradient                                        
 perform sub-space diagonalisation
    before iterative eigenvector-optimisation
 modified Broyden-mixing scheme, WC =      100.0
 initial mixing is a Kerker type mixing with AMIX =  0.4000 and BMIX =      1.0000
 Hartree-type preconditioning will be used
 using additional bands           14
 reciprocal scheme for non local part
 use partial core corrections
 no Harris-corrections to forces 
 use gradient corrections 
 use of overlap-Matrix (Vanderbilt PP)
 Gauss-broadening in eV      SIGMA  =   0.02


--------------------------------------------------------------------------------------------------------


  energy-cutoff  :      600.00
  volume of cell :      180.64
      direct lattice vectors                 reciprocal lattice vectors
     5.016037330  0.000000000 -5.266805876     0.199360558  0.032315922  0.000000000
    -0.802612719  4.951408216 -5.266805876     0.000000000  0.201962746  0.000000000
     0.000000000  0.000000000  7.273230000     0.144364107  0.169649559  0.137490496

  length of vectors
     7.273230000  7.273230000  7.273230000     0.201962746  0.201962746  0.261773958


 
 k-points in units of 2pi/SCALE and weight: EA                                      
   0.00000000  0.00000000  0.00000000       0.002
   0.02848008  0.00461656  0.00000000       0.009
   0.05696016  0.00923312  0.00000000       0.009
   0.08544024  0.01384968  0.00000000       0.009
   0.02848008  0.03346838  0.00000000       0.005
   0.05696016  0.03808494  0.00000000       0.009
   0.08544024  0.04270150  0.00000000       0.009
  -0.08544024  0.01500214  0.00000000       0.009
  -0.05696016  0.01961870  0.00000000       0.009
  -0.02848008  0.02423526  0.00000000       0.005
   0.05696016  0.06693676  0.00000000       0.005
   0.08544024  0.07155332  0.00000000       0.009
  -0.08544024  0.04385396  0.00000000       0.009
  -0.05696016  0.04847052  0.00000000       0.005
   0.08544024  0.10040514  0.00000000       0.005
  -0.08544024  0.07270578  0.00000000       0.005
   0.01604046  0.01884995  0.01527672       0.005
   0.04452054  0.02346651  0.01527672       0.009
   0.07300062  0.02808307  0.01527672       0.009
   0.10148070  0.03269963  0.01527672       0.009
  -0.06939978  0.00500027  0.01527672       0.009
  -0.04091970  0.00961683  0.01527672       0.009
  -0.01243962  0.01423339  0.01527672       0.009
   0.04452054  0.05231833  0.01527672       0.005
   0.07300062  0.05693489  0.01527672       0.009
   0.10148070  0.06155145  0.01527672       0.009
  -0.06939978  0.03385209  0.01527672       0.009
  -0.04091970  0.03846865  0.01527672       0.009
  -0.01243962  0.04308521  0.01527672       0.009
   0.07300062  0.08578671  0.01527672       0.005
   0.10148070  0.09040327  0.01527672       0.009
  -0.06939978  0.06270391  0.01527672       0.009
  -0.04091970  0.06732047  0.01527672       0.009
  -0.01243962  0.07193703  0.01527672       0.009
   0.10148070  0.11925509  0.01527672       0.005
  -0.06939978  0.09155573  0.01527672       0.009
  -0.04091970  0.09617229  0.01527672       0.009
  -0.01243962  0.10078885  0.01527672       0.009
  -0.06939978 -0.08155519  0.01527672       0.005
  -0.04091970 -0.07693863  0.01527672       0.009
  -0.01243962 -0.07232207  0.01527672       0.009
  -0.04091970 -0.04808681  0.01527672       0.005
  -0.01243962 -0.04347025  0.01527672       0.009
  -0.01243962 -0.01461843  0.01527672       0.005
   0.03208091  0.03769990  0.03055344       0.005
   0.06056099  0.04231646  0.03055344       0.009
   0.08904107  0.04693302  0.03055344       0.009
   0.11752115  0.05154958  0.03055344       0.009
  -0.05335933  0.02385022  0.03055344       0.009
  -0.02487925  0.02846678  0.03055344       0.009
   0.00360083  0.03308334  0.03055344       0.009
   0.06056099  0.07116828  0.03055344       0.005
   0.08904107  0.07578484  0.03055344       0.009
   0.11752115  0.08040140  0.03055344       0.009
  -0.05335933  0.05270204  0.03055344       0.009
  -0.02487925  0.05731860  0.03055344       0.009
   0.00360083  0.06193516  0.03055344       0.009
   0.08904107  0.10463666  0.03055344       0.005
   0.11752115  0.10925322  0.03055344       0.009
  -0.05335933  0.08155386  0.03055344       0.009
  -0.02487925  0.08617042  0.03055344       0.009
   0.00360083  0.09078698  0.03055344       0.009
   0.11752115  0.13810505  0.03055344       0.005
  -0.05335933  0.11040568  0.03055344       0.009
  -0.02487925  0.11502224  0.03055344       0.009
   0.00360083  0.11963880  0.03055344       0.009
  -0.05335933 -0.06270524  0.03055344       0.005
  -0.02487925 -0.05808868  0.03055344       0.009
   0.00360083 -0.05347212  0.03055344       0.009
  -0.02487925 -0.02923686  0.03055344       0.005
   0.00360083 -0.02462030  0.03055344       0.009
   0.00360083  0.00423152  0.03055344       0.005
   0.04812137  0.05654985  0.04583017       0.005
   0.07660145  0.06116641  0.04583017       0.009
   0.10508153  0.06578297  0.04583017       0.009
   0.13356161  0.07039953  0.04583017       0.009
  -0.03731887  0.04270017  0.04583017       0.009
  -0.00883879  0.04731673  0.04583017       0.009
   0.01964129  0.05193329  0.04583017       0.009
   0.07660145  0.09001823  0.04583017       0.005
   0.10508153  0.09463479  0.04583017       0.009
   0.13356161  0.09925135  0.04583017       0.009
  -0.03731887  0.07155199  0.04583017       0.009
  -0.00883879  0.07616855  0.04583017       0.009
   0.01964129  0.08078511  0.04583017       0.009
   0.10508153  0.12348662  0.04583017       0.005
   0.13356161  0.12810318  0.04583017       0.009
  -0.03731887  0.10040381  0.04583017       0.009
  -0.00883879  0.10502037  0.04583017       0.009
   0.01964129  0.10963693  0.04583017       0.009
   0.13356161  0.15695500  0.04583017       0.005
  -0.03731887  0.12925563  0.04583017       0.009
  -0.00883879  0.13387220  0.04583017       0.009
   0.01964129  0.13848876  0.04583017       0.009
  -0.03731887 -0.04385529  0.04583017       0.005
  -0.00883879 -0.03923873  0.04583017       0.009
   0.01964129 -0.03462217  0.04583017       0.009
  -0.00883879 -0.01038691  0.04583017       0.005
   0.01964129 -0.00577035  0.04583017       0.009
   0.01964129  0.02308147  0.04583017       0.005
   0.06416183  0.07539980  0.06110689       0.005
   0.09264191  0.08001636  0.06110689       0.009
   0.12112198  0.08463292  0.06110689       0.009
   0.14960206  0.08924948  0.06110689       0.009
  -0.02127841  0.06155012  0.06110689       0.009
   0.00720167  0.06616668  0.06110689       0.009
   0.03568175  0.07078324  0.06110689       0.009
   0.09264191  0.10886819  0.06110689       0.005
   0.12112198  0.11348475  0.06110689       0.009
   0.14960206  0.11810131  0.06110689       0.009
  -0.02127841  0.09040194  0.06110689       0.009
   0.00720167  0.09501850  0.06110689       0.009
   0.03568175  0.09963506  0.06110689       0.009
   0.12112198  0.14233657  0.06110689       0.005
   0.14960206  0.14695313  0.06110689       0.009
  -0.02127841  0.11925377  0.06110689       0.009
   0.00720167  0.12387033  0.06110689       0.009
   0.03568175  0.12848689  0.06110689       0.009
   0.14960206  0.17580495  0.06110689       0.005
  -0.02127841  0.14810559  0.06110689       0.009
   0.00720167  0.15272215  0.06110689       0.009
   0.03568175  0.15733871  0.06110689       0.009
  -0.02127841 -0.02500534  0.06110689       0.005
   0.00720167 -0.02038878  0.06110689       0.009
   0.03568175 -0.01577222  0.06110689       0.009
   0.00720167  0.00846304  0.06110689       0.005
   0.03568175  0.01307960  0.06110689       0.009
   0.03568175  0.04193142  0.06110689       0.005
 
 k-points in reciprocal lattice and weights: EA                                      
   0.00000000  0.00000000  0.00000000       0.002
   0.14285714  0.00000000  0.00000000       0.009
   0.28571429  0.00000000  0.00000000       0.009
   0.42857143 -0.00000000  0.00000000       0.009
   0.14285714  0.14285714  0.00000000       0.005
   0.28571429  0.14285714  0.00000000       0.009
   0.42857143  0.14285714  0.00000000       0.009
  -0.42857143  0.14285714  0.00000000       0.009
  -0.28571429  0.14285714  0.00000000       0.009
  -0.14285714  0.14285714  0.00000000       0.005
   0.28571429  0.28571429  0.00000000       0.005
   0.42857143  0.28571429  0.00000000       0.009
  -0.42857143  0.28571429  0.00000000       0.009
  -0.28571429  0.28571429  0.00000000       0.005
   0.42857143  0.42857143  0.00000000       0.005
  -0.42857143  0.42857143  0.00000000       0.005
  -0.00000000  0.00000000  0.11111111       0.005
   0.14285714  0.00000000  0.11111111       0.009
   0.28571429  0.00000000  0.11111111       0.009
   0.42857143 -0.00000000  0.11111111       0.009
  -0.42857143  0.00000000  0.11111111       0.009
  -0.28571429  0.00000000  0.11111111       0.009
  -0.14285714  0.00000000  0.11111111       0.009
   0.14285714  0.14285714  0.11111111       0.005
   0.28571429  0.14285714  0.11111111       0.009
   0.42857143  0.14285714  0.11111111       0.009
  -0.42857143  0.14285714  0.11111111       0.009
  -0.28571429  0.14285714  0.11111111       0.009
  -0.14285714  0.14285714  0.11111111       0.009
   0.28571429  0.28571429  0.11111111       0.005
   0.42857143  0.28571429  0.11111111       0.009
  -0.42857143  0.28571429  0.11111111       0.009
  -0.28571429  0.28571429  0.11111111       0.009
  -0.14285714  0.28571429  0.11111111       0.009
   0.42857143  0.42857143  0.11111111       0.005
  -0.42857143  0.42857143  0.11111111       0.009
  -0.28571429  0.42857143  0.11111111       0.009
  -0.14285714  0.42857143  0.11111111       0.009
  -0.42857143 -0.42857143  0.11111111       0.005
  -0.28571429 -0.42857143  0.11111111       0.009
  -0.14285714 -0.42857143  0.11111111       0.009
  -0.28571429 -0.28571429  0.11111111       0.005
  -0.14285714 -0.28571429  0.11111111       0.009
  -0.14285714 -0.14285714  0.11111111       0.005
  -0.00000000  0.00000000  0.22222222       0.005
   0.14285714  0.00000000  0.22222222       0.009
   0.28571429  0.00000000  0.22222222       0.009
   0.42857143  0.00000000  0.22222222       0.009
  -0.42857143  0.00000000  0.22222222       0.009
  -0.28571429  0.00000000  0.22222222       0.009
  -0.14285714  0.00000000  0.22222222       0.009
   0.14285714  0.14285714  0.22222222       0.005
   0.28571429  0.14285714  0.22222222       0.009
   0.42857143  0.14285714  0.22222222       0.009
  -0.42857143  0.14285714  0.22222222       0.009
  -0.28571429  0.14285714  0.22222222       0.009
  -0.14285714  0.14285714  0.22222222       0.009
   0.28571429  0.28571429  0.22222222       0.005
   0.42857143  0.28571429  0.22222222       0.009
  -0.42857143  0.28571429  0.22222222       0.009
  -0.28571429  0.28571429  0.22222222       0.009
  -0.14285714  0.28571429  0.22222222       0.009
   0.42857143  0.42857143  0.22222222       0.005
  -0.42857143  0.42857143  0.22222222       0.009
  -0.28571429  0.42857143  0.22222222       0.009
  -0.14285714  0.42857143  0.22222222       0.009
  -0.42857143 -0.42857143  0.22222222       0.005
  -0.28571429 -0.42857143  0.22222222       0.009
  -0.14285714 -0.42857143  0.22222222       0.009
  -0.28571429 -0.28571429  0.22222222       0.005
  -0.14285714 -0.28571429  0.22222222       0.009
  -0.14285714 -0.14285714  0.22222222       0.005
  -0.00000000  0.00000000  0.33333333       0.005
   0.14285714  0.00000000  0.33333333       0.009
   0.28571429 -0.00000000  0.33333333       0.009
   0.42857143  0.00000000  0.33333333       0.009
  -0.42857143  0.00000000  0.33333333       0.009
  -0.28571429  0.00000000  0.33333333       0.009
  -0.14285714  0.00000000  0.33333333       0.009
   0.14285714  0.14285714  0.33333333       0.005
   0.28571429  0.14285714  0.33333333       0.009
   0.42857143  0.14285714  0.33333333       0.009
  -0.42857143  0.14285714  0.33333333       0.009
  -0.28571429  0.14285714  0.33333333       0.009
  -0.14285714  0.14285714  0.33333333       0.009
   0.28571429  0.28571429  0.33333333       0.005
   0.42857143  0.28571429  0.33333333       0.009
  -0.42857143  0.28571429  0.33333333       0.009
  -0.28571429  0.28571429  0.33333333       0.009
  -0.14285714  0.28571429  0.33333333       0.009
   0.42857143  0.42857143  0.33333333       0.005
  -0.42857143  0.42857143  0.33333333       0.009
  -0.28571429  0.42857143  0.33333333       0.009
  -0.14285714  0.42857143  0.33333333       0.009
  -0.42857143 -0.42857143  0.33333333       0.005
  -0.28571429 -0.42857143  0.33333333       0.009
  -0.14285714 -0.42857143  0.33333333       0.009
  -0.28571429 -0.28571429  0.33333333       0.005
  -0.14285714 -0.28571429  0.33333333       0.009
  -0.14285714 -0.14285714  0.33333333       0.005
  -0.00000000  0.00000000  0.44444444       0.005
   0.14285714  0.00000000  0.44444444       0.009
   0.28571429  0.00000000  0.44444444       0.009
   0.42857143  0.00000000  0.44444444       0.009
  -0.42857143  0.00000000  0.44444444       0.009
  -0.28571429  0.00000000  0.44444444       0.009
  -0.14285714  0.00000000  0.44444444       0.009
   0.14285714  0.14285714  0.44444444       0.005
   0.28571429  0.14285714  0.44444444       0.009
   0.42857143  0.14285714  0.44444444       0.009
  -0.42857143  0.14285714  0.44444444       0.009
  -0.28571429  0.14285714  0.44444444       0.009
  -0.14285714  0.14285714  0.44444444       0.009
   0.28571429  0.28571429  0.44444444       0.005
   0.42857143  0.28571429  0.44444444       0.009
  -0.42857143  0.28571429  0.44444444       0.009
  -0.28571429  0.28571429  0.44444444       0.009
  -0.14285714  0.28571429  0.44444444       0.009
   0.42857143  0.42857143  0.44444444       0.005
  -0.42857143  0.42857143  0.44444444       0.009
  -0.28571429  0.42857143  0.44444444       0.009
  -0.14285714  0.42857143  0.44444444       0.009
  -0.42857143 -0.42857143  0.44444444       0.005
  -0.28571429 -0.42857143  0.44444444       0.009
  -0.14285714 -0.42857143  0.44444444       0.009
  -0.28571429 -0.28571429  0.44444444       0.005
  -0.14285714 -0.28571429  0.44444444       0.009
  -0.14285714 -0.14285714  0.44444444       0.005
 
 position of ions in fractional coordinates (direct lattice) 
   0.42932000  0.92932000  0.50000000
   0.57068000  0.07068000  0.50000000
   0.92932000  0.42932000  0.50000000
   0.07068000  0.57068000  0.50000000
   0.25000000  0.75000000  0.50000000
   0.23804000  0.73804000  0.97607000
   0.75000000  0.25000000  0.50000000
   0.76196000  0.26196000  0.02393000
   0.73804000  0.76196000  0.50000000
   0.26196000  0.23804000  0.50000000
   0.25000000  0.25000000  0.00000000
   0.75000000  0.75000000  0.00000000
 
 position of ions in cartesian coordinates  (Angst):
   1.40760109  4.60144268 -3.51907814
   2.80582352  0.34996553  0.25869638
   4.31692612  2.12573858 -3.51907814
  -0.10350151  2.82566964  0.25869638
   0.65204979  3.71355616 -1.63019088
   0.60165723  3.65433732  1.95835773
   3.56137482  1.23785205 -1.63019088
   3.61176738  1.29707090 -5.21873948
   3.09047740  3.77277500 -4.26359381
   1.12294721  1.17863321  1.00321206
   1.05335615  1.23785205 -2.63340294
   3.16006846  3.71355616 -7.90020881
 


--------------------------------------------------------------------------------------------------------


 k-point   1 :   0.0000 0.0000 0.0000  plane waves:    5985
 k-point   2 :   0.1429 0.0000 0.0000  plane waves:    6036
 k-point   3 :   0.2857 0.0000 0.0000  plane waves:    6039
 k-point   4 :   0.4286-0.0000 0.0000  plane waves:    6035
 k-point   5 :   0.1429 0.1429 0.0000  plane waves:    6037
 k-point   6 :   0.2857 0.1429 0.0000  plane waves:    6033
 k-point   7 :   0.4286 0.1429 0.0000  plane waves:    6021
 k-point   8 :  -0.4286 0.1429 0.0000  plane waves:    6034
 k-point   9 :  -0.2857 0.1429 0.0000  plane waves:    6040
 k-point  10 :  -0.1429 0.1429 0.0000  plane waves:    6039
 k-point  11 :   0.2857 0.2857 0.0000  plane waves:    6018
 k-point  12 :   0.4286 0.2857 0.0000  plane waves:    6029
 k-point  13 :  -0.4286 0.2857 0.0000  plane waves:    6034
 k-point  14 :  -0.2857 0.2857 0.0000  plane waves:    6045
 k-point  15 :   0.4286 0.4286 0.0000  plane waves:    6042
 k-point  16 :  -0.4286 0.4286 0.0000  plane waves:    6022
 k-point  17 :  -0.0000 0.0000 0.1111  plane waves:    6023
 k-point  18 :   0.1429 0.0000 0.1111  plane waves:    6035
 k-point  19 :   0.2857 0.0000 0.1111  plane waves:    6036
 k-point  20 :   0.4286-0.0000 0.1111  plane waves:    6022
 k-point  21 :  -0.4286 0.0000 0.1111  plane waves:    6034
 k-point  22 :  -0.2857 0.0000 0.1111  plane waves:    6034
 k-point  23 :  -0.1429 0.0000 0.1111  plane waves:    6028
 k-point  24 :   0.1429 0.1429 0.1111  plane waves:    6027
 k-point  25 :   0.2857 0.1429 0.1111  plane waves:    6017
 k-point  26 :   0.4286 0.1429 0.1111  plane waves:    6023
 k-point  27 :  -0.4286 0.1429 0.1111  plane waves:    6032
 k-point  28 :  -0.2857 0.1429 0.1111  plane waves:    6037
 k-point  29 :  -0.1429 0.1429 0.1111  plane waves:    6042
 k-point  30 :   0.2857 0.2857 0.1111  plane waves:    6050
 k-point  31 :   0.4286 0.2857 0.1111  plane waves:    6032
 k-point  32 :  -0.4286 0.2857 0.1111  plane waves:    6036
 k-point  33 :  -0.2857 0.2857 0.1111  plane waves:    6039
 k-point  34 :  -0.1429 0.2857 0.1111  plane waves:    6040
 k-point  35 :   0.4286 0.4286 0.1111  plane waves:    6045
 k-point  36 :  -0.4286 0.4286 0.1111  plane waves:    6029
 k-point  37 :  -0.2857 0.4286 0.1111  plane waves:    6022
 k-point  38 :  -0.1429 0.4286 0.1111  plane waves:    6027
 k-point  39 :  -0.4286-0.4286 0.1111  plane waves:    6027
 k-point  40 :  -0.2857-0.4286 0.1111  plane waves:    6015
 k-point  41 :  -0.1429-0.4286 0.1111  plane waves:    6028
 k-point  42 :  -0.2857-0.2857 0.1111  plane waves:    6031
 k-point  43 :  -0.1429-0.2857 0.1111  plane waves:    6039
 k-point  44 :  -0.1429-0.1429 0.1111  plane waves:    6026
 k-point  45 :  -0.0000 0.0000 0.2222  plane waves:    6041
 k-point  46 :   0.1429 0.0000 0.2222  plane waves:    6033
 k-point  47 :   0.2857 0.0000 0.2222  plane waves:    6019
 k-point  48 :   0.4286 0.0000 0.2222  plane waves:    6016
 k-point  49 :  -0.4286 0.0000 0.2222  plane waves:    6030
 k-point  50 :  -0.2857 0.0000 0.2222  plane waves:    6038
 k-point  51 :  -0.1429 0.0000 0.2222  plane waves:    6042
 k-point  52 :   0.1429 0.1429 0.2222  plane waves:    6036
 k-point  53 :   0.2857 0.1429 0.2222  plane waves:    6033
 k-point  54 :   0.4286 0.1429 0.2222  plane waves:    6035
 k-point  55 :  -0.4286 0.1429 0.2222  plane waves:    6028
 k-point  56 :  -0.2857 0.1429 0.2222  plane waves:    6040
 k-point  57 :  -0.1429 0.1429 0.2222  plane waves:    6035
 k-point  58 :   0.2857 0.2857 0.2222  plane waves:    6051
 k-point  59 :   0.4286 0.2857 0.2222  plane waves:    6030
 k-point  60 :  -0.4286 0.2857 0.2222  plane waves:    6023
 k-point  61 :  -0.2857 0.2857 0.2222  plane waves:    6039
 k-point  62 :  -0.1429 0.2857 0.2222  plane waves:    6033
 k-point  63 :   0.4286 0.4286 0.2222  plane waves:    6032
 k-point  64 :  -0.4286 0.4286 0.2222  plane waves:    6012
 k-point  65 :  -0.2857 0.4286 0.2222  plane waves:    6016
 k-point  66 :  -0.1429 0.4286 0.2222  plane waves:    6021
 k-point  67 :  -0.4286-0.4286 0.2222  plane waves:    6005
 k-point  68 :  -0.2857-0.4286 0.2222  plane waves:    6010
 k-point  69 :  -0.1429-0.4286 0.2222  plane waves:    6023
 k-point  70 :  -0.2857-0.2857 0.2222  plane waves:    6026
 k-point  71 :  -0.1429-0.2857 0.2222  plane waves:    6029
 k-point  72 :  -0.1429-0.1429 0.2222  plane waves:    6023
 k-point  73 :  -0.0000 0.0000 0.3333  plane waves:    6059
 k-point  74 :   0.1429 0.0000 0.3333  plane waves:    6036
 k-point  75 :   0.2857-0.0000 0.3333  plane waves:    6024
 k-point  76 :   0.4286 0.0000 0.3333  plane waves:    6019
 k-point  77 :  -0.4286 0.0000 0.3333  plane waves:    6039
 k-point  78 :  -0.2857 0.0000 0.3333  plane waves:    6038
 k-point  79 :  -0.1429 0.0000 0.3333  plane waves:    6042
 k-point  80 :   0.1429 0.1429 0.3333  plane waves:    6035
 k-point  81 :   0.2857 0.1429 0.3333  plane waves:    6033
 k-point  82 :   0.4286 0.1429 0.3333  plane waves:    6028
 k-point  83 :  -0.4286 0.1429 0.3333  plane waves:    6032
 k-point  84 :  -0.2857 0.1429 0.3333  plane waves:    6040
 k-point  85 :  -0.1429 0.1429 0.3333  plane waves:    6041
 k-point  86 :   0.2857 0.2857 0.3333  plane waves:    6039
 k-point  87 :   0.4286 0.2857 0.3333  plane waves:    6028
 k-point  88 :  -0.4286 0.2857 0.3333  plane waves:    6014
 k-point  89 :  -0.2857 0.2857 0.3333  plane waves:    6013
 k-point  90 :  -0.1429 0.2857 0.3333  plane waves:    6019
 k-point  91 :   0.4286 0.4286 0.3333  plane waves:    6011
 k-point  92 :  -0.4286 0.4286 0.3333  plane waves:    6017
 k-point  93 :  -0.2857 0.4286 0.3333  plane waves:    6006
 k-point  94 :  -0.1429 0.4286 0.3333  plane waves:    6019
 k-point  95 :  -0.4286-0.4286 0.3333  plane waves:    6013
 k-point  96 :  -0.2857-0.4286 0.3333  plane waves:    6030
 k-point  97 :  -0.1429-0.4286 0.3333  plane waves:    6027
 k-point  98 :  -0.2857-0.2857 0.3333  plane waves:    6025
 k-point  99 :  -0.1429-0.2857 0.3333  plane waves:    6035
 k-point 100 :  -0.1429-0.1429 0.3333  plane waves:    6031
 k-point 101 :  -0.0000 0.0000 0.4444  plane waves:    6036
 k-point 102 :   0.1429 0.0000 0.4444  plane waves:    6038
 k-point 103 :   0.2857 0.0000 0.4444  plane waves:    6029
 k-point 104 :   0.4286 0.0000 0.4444  plane waves:    6021
 k-point 105 :  -0.4286 0.0000 0.4444  plane waves:    6032
 k-point 106 :  -0.2857 0.0000 0.4444  plane waves:    6026
 k-point 107 :  -0.1429 0.0000 0.4444  plane waves:    6035
 k-point 108 :   0.1429 0.1429 0.4444  plane waves:    6040
 k-point 109 :   0.2857 0.1429 0.4444  plane waves:    6019
 k-point 110 :   0.4286 0.1429 0.4444  plane waves:    6021
 k-point 111 :  -0.4286 0.1429 0.4444  plane waves:    6021
 k-point 112 :  -0.2857 0.1429 0.4444  plane waves:    6021
 k-point 113 :  -0.1429 0.1429 0.4444  plane waves:    6022
 k-point 114 :   0.2857 0.2857 0.4444  plane waves:    6018
 k-point 115 :   0.4286 0.2857 0.4444  plane waves:    6020
 k-point 116 :  -0.4286 0.2857 0.4444  plane waves:    6014
 k-point 117 :  -0.2857 0.2857 0.4444  plane waves:    6004
 k-point 118 :  -0.1429 0.2857 0.4444  plane waves:    6027
 k-point 119 :   0.4286 0.4286 0.4444  plane waves:    6014
 k-point 120 :  -0.4286 0.4286 0.4444  plane waves:    6020
 k-point 121 :  -0.2857 0.4286 0.4444  plane waves:    6008
 k-point 122 :  -0.1429 0.4286 0.4444  plane waves:    6024
 k-point 123 :  -0.4286-0.4286 0.4444  plane waves:    6046
 k-point 124 :  -0.2857-0.4286 0.4444  plane waves:    6010
 k-point 125 :  -0.1429-0.4286 0.4444  plane waves:    6027
 k-point 126 :  -0.2857-0.2857 0.4444  plane waves:    6032
 k-point 127 :  -0.1429-0.2857 0.4444  plane waves:    6029
 k-point 128 :  -0.1429-0.1429 0.4444  plane waves:    6035

 maximum and minimum number of plane-waves per node :      3038     2981

 maximum number of plane-waves:      6059
 maximum index in each direction: 
   IXMAX=   14   IYMAX=   14   IZMAX=   14
   IXMIN=  -14   IYMIN=  -14   IZMIN=  -14


 parallel 3D FFT for wavefunctions:
    minimum data exchange during FFTs selected (reduces bandwidth)
 parallel 3D FFT for charge:
    minimum data exchange during FFTs selected (reduces bandwidth)


 total amount of memory used by VASP MPI-rank0   452356. kBytes
=======================================================================

   base      :      30000. kBytes
   nonl-proj :     168794. kBytes
   fftplans  :      24301. kBytes
   grid      :      18307. kBytes
   one-center:         93. kBytes
   wavefun   :     210861. kBytes
 
     INWAV:  cpu time    0.0002: real time    0.0005
 Broyden mixing: mesh for mixing (old mesh)
   NGX = 29   NGY = 29   NGZ = 29
  (NGX  =120   NGY  =120   NGZ  =120)
  gives a total of  24389 points

 initial charge density was supplied:
 charge density of overlapping atoms calculated
 number of electron     104.0000000 magnetization 
 keeping initial charge density in first step


--------------------------------------------------------------------------------------------------------


 Maximum index for augmentation-charges        34041 (set IRDMAX)


--------------------------------------------------------------------------------------------------------


 First call to EWALD:  gamma=   0.314
 Maximum number of real-space cells 3x 3x 4
 Maximum number of reciprocal cells 3x 3x 3

    FEWALD:  cpu time    0.0025: real time    0.0025


--------------------------------------- Iteration      1(   1)  ---------------------------------------


    POTLOK:  cpu time    0.2191: real time    0.2210
    SETDIJ:  cpu time    0.7274: real time    0.7342
    TRIAL :  cpu time   51.7366: real time   52.3374
    CORREC:  cpu time    0.0025: real time    0.0025
    --------------------------------------------
      LOOP:  cpu time   52.8160: real time   53.4330

 eigenvalue-minimisations  : 17220
 total energy-change (2. order) : 0.1084498E+04  (-0.7024914E+04)
 number of electron     104.0000000 magnetization 
 augmentation part      104.0000000 magnetization 

 Free energy of the ion-electron system (eV)
  ---------------------------------------------------
  alpha Z        PSCENC =       517.20872146
  Ewald energy   TEWEN  =     -8451.59863310
  -Hartree energ DENC   =     -3127.85310190
  -exchange      EXHF   =         0.00000000
  -V(xc)+E(xc)   XCENC  =       481.97849620
  PAW double counting   =      9250.47132855    -9210.50234729
  entropy T*S    EENTRO =        -0.00067862
  eigenvalues    EBANDS =       -39.71214436
  atomic energy  EATOM  =     11664.50664672
  ---------------------------------------------------
  free energy    TOTEN  =      1084.49828768 eV

  energy without entropy =     1084.49896630  energy(sigma->0) =     1084.49862699


--------------------------------------------------------------------------------------------------------




--------------------------------------- Iteration      1(   2)  ---------------------------------------


    TRIAL :  cpu time   54.8598: real time   55.4991
    CORREC:  cpu time    0.0023: real time    0.0023
    --------------------------------------------
      LOOP:  cpu time   54.8642: real time   55.5043

 eigenvalue-minimisations  : 19104
 total energy-change (2. order) :-0.1276940E+04  (-0.1247186E+04)
 number of electron     104.0000000 magnetization 
 augmentation part      104.0000000 magnetization 

 Free energy of the ion-electron system (eV)
  ---------------------------------------------------
  alpha Z        PSCENC =       517.20872146
  Ewald energy   TEWEN  =     -8451.59863310
  -Hartree energ DENC   =     -3127.85310190
  -exchange      EXHF   =         0.00000000
  -V(xc)+E(xc)   XCENC  =       481.97849620
  PAW double counting   =      9250.47132855    -9210.50234729
  entropy T*S    EENTRO =        -0.00160556
  eigenvalues    EBANDS =     -1316.65149070
  atomic energy  EATOM  =     11664.50664672
  ---------------------------------------------------
  free energy    TOTEN  =      -192.44198561 eV

  energy without entropy =     -192.44038004  energy(sigma->0) =     -192.44118282


--------------------------------------------------------------------------------------------------------




--------------------------------------- Iteration      1(   3)  ---------------------------------------


    TRIAL :  cpu time   59.7954: real time   60.4969
    CORREC:  cpu time    0.0022: real time    0.0023
    --------------------------------------------
      LOOP:  cpu time   59.8003: real time   60.5022

 eigenvalue-minimisations  : 22206
 total energy-change (2. order) :-0.5123775E+02  (-0.4986025E+02)
 number of electron     104.0000000 magnetization 
 augmentation part      104.0000000 magnetization 

 Free energy of the ion-electron system (eV)
  ---------------------------------------------------
  alpha Z        PSCENC =       517.20872146
  Ewald energy   TEWEN  =     -8451.59863310
  -Hartree energ DENC   =     -3127.85310190
  -exchange      EXHF   =         0.00000000
  -V(xc)+E(xc)   XCENC  =       481.97849620
  PAW double counting   =      9250.47132855    -9210.50234729
  entropy T*S    EENTRO =        -0.00127321
  eigenvalues    EBANDS =     -1367.88957515
  atomic energy  EATOM  =     11664.50664672
  ---------------------------------------------------
  free energy    TOTEN  =      -243.67973770 eV

  energy without entropy =     -243.67846449  energy(sigma->0) =     -243.67910110


--------------------------------------------------------------------------------------------------------




--------------------------------------- Iteration      1(   4)  ---------------------------------------


    TRIAL :  cpu time   57.9210: real time   58.5901
    CORREC:  cpu time    0.0022: real time    0.0022
    --------------------------------------------
      LOOP:  cpu time   57.9254: real time   58.5952

 eigenvalue-minimisations  : 20976
 total energy-change (2. order) :-0.1140816E+01  (-0.1126070E+01)
 number of electron     104.0000000 magnetization 
 augmentation part      104.0000000 magnetization 

 Free energy of the ion-electron system (eV)
  ---------------------------------------------------
  alpha Z        PSCENC =       517.20872146
  Ewald energy   TEWEN  =     -8451.59863310
  -Hartree energ DENC   =     -3127.85310190
  -exchange      EXHF   =         0.00000000
  -V(xc)+E(xc)   XCENC  =       481.97849620
  PAW double counting   =      9250.47132855    -9210.50234729
  entropy T*S    EENTRO =        -0.00126899
  eigenvalues    EBANDS =     -1369.03039530
  atomic energy  EATOM  =     11664.50664672
  ---------------------------------------------------
  free energy    TOTEN  =      -244.82055364 eV

  energy without entropy =     -244.81928464  energy(sigma->0) =     -244.81991914


--------------------------------------------------------------------------------------------------------




--------------------------------------- Iteration      1(   5)  ---------------------------------------


    TRIAL :  cpu time   58.0792: real time   58.7475
    CORREC:  cpu time    0.0024: real time    0.0024
    CHARGE:  cpu time    3.4444: real time    3.4747
    --------------------------------------------
      LOOP:  cpu time   61.5287: real time   62.2276

 eigenvalue-minimisations  : 21012
 total energy-change (2. order) :-0.2203350E-01  (-0.2196874E-01)
 number of electron     104.0000001 magnetization 
 augmentation part       12.2114544 magnetization 

 Free energy of the ion-electron system (eV)
  ---------------------------------------------------
  alpha Z        PSCENC =       517.20872146
  Ewald energy   TEWEN  =     -8451.59863310
  -Hartree energ DENC   =     -3127.85310190
  -exchange      EXHF   =         0.00000000
  -V(xc)+E(xc)   XCENC  =       481.97849620
  PAW double counting   =      9250.47132855    -9210.50234729
  entropy T*S    EENTRO =        -0.00129964
  eigenvalues    EBANDS =     -1369.05239815
  atomic energy  EATOM  =     11664.50664672
  ---------------------------------------------------
  free energy    TOTEN  =      -244.84258713 eV

  energy without entropy =     -244.84128749  energy(sigma->0) =     -244.84193731


--------------------------------------------------------------------------------------------------------




--------------------------------------- Iteration      1(   6)  ---------------------------------------


    POTLOK:  cpu time    0.2408: real time    0.2425
    SETDIJ:  cpu time    0.7216: real time    0.7279
    TRIAL :  cpu time   44.2259: real time   44.6947
    CORREC:  cpu time   14.6569: real time   14.7922
    CHARGE:  cpu time    3.3893: real time    3.4161
    --------------------------------------------
      LOOP:  cpu time   63.2364: real time   63.8762

 eigenvalue-minimisations  :     0
 total energy-change (2. order) : 0.1125976E+03  (-0.3448960E+02)
 number of electron     104.0000001 magnetization 
 augmentation part       13.5169267 magnetization 

 Free energy of the ion-electron system (eV)
  ---------------------------------------------------
  alpha Z        PSCENC =       517.20872146
  Ewald energy   TEWEN  =     -8451.59863310
  -Hartree energ DENC   =     -2964.94966724
  -exchange      EXHF   =         0.00000000
  -V(xc)+E(xc)   XCENC  =       480.83897343
  PAW double counting   =     13947.97512749   -13953.22250521
  entropy T*S    EENTRO =        -0.00238335
  eigenvalues    EBANDS =     -1373.00237101
  atomic energy  EATOM  =     11664.50664672
  ---------------------------------------------------
  free energy    TOTEN  =      -132.24500710 eV

  energy without entropy =     -132.24262375  energy(sigma->0) =     -132.24381542


--------------------------------------------------------------------------------------------------------




--------------------------------------- Iteration      1(   7)  ---------------------------------------


    POTLOK:  cpu time    0.2068: real time    0.2085
    SETDIJ:  cpu time    0.7523: real time    0.7587
    TRIAL :  cpu time   44.3546: real time   44.8295
    CORREC:  cpu time   14.6875: real time   14.8321
    CHARGE:  cpu time    3.3993: real time    3.4262
    --------------------------------------------
      LOOP:  cpu time   63.4024: real time   64.0583

 eigenvalue-minimisations  :     0
 total energy-change (2. order) :-0.4425885E+02  (-0.7162834E+01)
 number of electron     104.0000000 magnetization 
 augmentation part       14.1524490 magnetization 

 Free energy of the ion-electron system (eV)
  ---------------------------------------------------
  alpha Z        PSCENC =       517.20872146
  Ewald energy   TEWEN  =     -8451.59863310
  -Hartree energ DENC   =     -2933.83821257
  -exchange      EXHF   =         0.00000000
  -V(xc)+E(xc)   XCENC  =       485.69673288
  PAW double counting   =     13289.24597934   -13285.16417389
  entropy T*S    EENTRO =        -0.00262177
  eigenvalues    EBANDS =     -1462.55853113
  atomic energy  EATOM  =     11664.50664672
  ---------------------------------------------------
  free energy    TOTEN  =      -176.50385363 eV

  energy without entropy =     -176.50123187  energy(sigma->0) =     -176.50254275


--------------------------------------------------------------------------------------------------------




--------------------------------------- Iteration      1(   8)  ---------------------------------------


    POTLOK:  cpu time    0.2230: real time    0.2247
    SETDIJ:  cpu time    0.7316: real time    0.7380
    TRIAL :  cpu time   44.3479: real time   44.8269
    CORREC:  cpu time   14.6422: real time   14.7892
    CHARGE:  cpu time    3.3761: real time    3.4036
    --------------------------------------------
      LOOP:  cpu time   63.3224: real time   63.9850

 eigenvalue-minimisations  :     0
 total energy-change (2. order) :-0.7631766E+01  (-0.3867817E+01)
 number of electron     104.0000001 magnetization 
 augmentation part       14.5481027 magnetization 

 Free energy of the ion-electron system (eV)
  ---------------------------------------------------
  alpha Z        PSCENC =       517.20872146
  Ewald energy   TEWEN  =     -8451.59863310
  -Hartree energ DENC   =     -2957.30393433
  -exchange      EXHF   =         0.00000000
  -V(xc)+E(xc)   XCENC  =       489.19436564
  PAW double counting   =     12871.49008745   -12859.96485089
  entropy T*S    EENTRO =        -0.00214627
  eigenvalues    EBANDS =     -1457.66540044
  atomic energy  EATOM  =     11664.50664672
  ---------------------------------------------------
  free energy    TOTEN  =      -184.13561925 eV

  energy without entropy =     -184.13347298  energy(sigma->0) =     -184.13454612


--------------------------------------------------------------------------------------------------------




--------------------------------------- Iteration      1(   9)  ---------------------------------------


    POTLOK:  cpu time    0.2128: real time    0.2144
    SETDIJ:  cpu time    0.7390: real time    0.7454
    TRIAL :  cpu time   44.3203: real time   44.8059
    CORREC:  cpu time   14.6050: real time   14.7480
    CHARGE:  cpu time    3.4094: real time    3.4370
    --------------------------------------------
      LOOP:  cpu time   63.2887: real time   63.9532

 eigenvalue-minimisations  :     0
[...]
  free energy    TOTEN  =      -190.69570598 eV

  energy without entropy =     -190.69305938  energy(sigma->0) =     -190.69438268


--------------------------------------------------------------------------------------------------------




--------------------------------------- Iteration      1(  25)  ---------------------------------------


    POTLOK:  cpu time    0.2143: real time    0.2159
    SETDIJ:  cpu time    0.7397: real time    0.7462
    TRIAL :  cpu time   44.4971: real time   44.9735
    CORREC:  cpu time   14.7177: real time   14.8590
    CHARGE:  cpu time    3.4255: real time    3.4533
    --------------------------------------------
      LOOP:  cpu time   63.5961: real time   64.2506

 eigenvalue-minimisations  :     0
 total energy-change (2. order) :-0.9379795E-03  (-0.2332028E-03)
 number of electron     104.0000000 magnetization 
 augmentation part       14.2539268 magnetization 

 Free energy of the ion-electron system (eV)
  ---------------------------------------------------
  alpha Z        PSCENC =       517.20872146
  Ewald energy   TEWEN  =     -8451.59863310
  -Hartree energ DENC   =     -3029.02581633
  -exchange      EXHF   =         0.00000000
  -V(xc)+E(xc)   XCENC  =       491.66780063
  PAW double counting   =     12460.00039513   -12439.05750015
  entropy T*S    EENTRO =        -0.00266265
  eigenvalues    EBANDS =     -1404.39561172
  atomic energy  EATOM  =     11664.50664672
  ---------------------------------------------------
  free energy    TOTEN  =      -190.69664396 eV

  energy without entropy =     -190.69398131  energy(sigma->0) =     -190.69531264


--------------------------------------------------------------------------------------------------------




--------------------------------------- Iteration      1(  26)  ---------------------------------------


    POTLOK:  cpu time    0.2152: real time    0.2168
    SETDIJ:  cpu time    0.7642: real time    0.7710
    TRIAL :  cpu time   44.4852: real time   44.9606
    CORREC:  cpu time   14.8038: real time   14.9485
    CHARGE:  cpu time    3.4130: real time    3.4413
    --------------------------------------------
      LOOP:  cpu time   63.6828: real time   64.3403

 eigenvalue-minimisations  :     0
 total energy-change (2. order) :-0.2349578E-03  (-0.2636154E-03)
 number of electron     104.0000000 magnetization 
 augmentation part       14.2533231 magnetization 

 Free energy of the ion-electron system (eV)
  ---------------------------------------------------
  alpha Z        PSCENC =       517.20872146
  Ewald energy   TEWEN  =     -8451.59863310
  -Hartree energ DENC   =     -3028.80607468
  -exchange      EXHF   =         0.00000000
  -V(xc)+E(xc)   XCENC  =       491.67091993
  PAW double counting   =     12459.77966617   -12438.83438072
  entropy T*S    EENTRO =        -0.00267940
  eigenvalues    EBANDS =     -1404.62108206
  atomic energy  EATOM  =     11664.50664672
  ---------------------------------------------------
  free energy    TOTEN  =      -190.69687892 eV

  energy without entropy =     -190.69419952  energy(sigma->0) =     -190.69553922


--------------------------------------------------------------------------------------------------------




--------------------------------------- Iteration      1(  27)  ---------------------------------------


    POTLOK:  cpu time    0.2217: real time    0.2234
    SETDIJ:  cpu time    0.7505: real time    0.7575
    TRIAL :  cpu time   44.4132: real time   44.8906
    CORREC:  cpu time   14.7432: real time   14.8887
    CHARGE:  cpu time    3.4365: real time    3.4639
    --------------------------------------------
      LOOP:  cpu time   63.5670: real time   64.2261

 eigenvalue-minimisations  :     0
 total energy-change (2. order) :-0.2627315E-03  (-0.1433384E-03)
 number of electron     104.0000000 magnetization 
 augmentation part       14.2527402 magnetization 

 Free energy of the ion-electron system (eV)
  ---------------------------------------------------
  alpha Z        PSCENC =       517.20872146
  Ewald energy   TEWEN  =     -8451.59863310
  -Hartree energ DENC   =     -3028.66810650
  -exchange      EXHF   =         0.00000000
  -V(xc)+E(xc)   XCENC  =       491.67049585
  PAW double counting   =     12460.61342661   -12439.68271446
  entropy T*S    EENTRO =        -0.00268137
  eigenvalues    EBANDS =     -1404.74429885
  atomic energy  EATOM  =     11664.50664672
  ---------------------------------------------------
  free energy    TOTEN  =      -190.69714165 eV

  energy without entropy =     -190.69446028  energy(sigma->0) =     -190.69580097


--------------------------------------------------------------------------------------------------------




--------------------------------------- Iteration      1(  28)  ---------------------------------------


    POTLOK:  cpu time    0.2136: real time    0.2153
    SETDIJ:  cpu time    0.7479: real time    0.7547
    TRIAL :  cpu time   44.4219: real time   44.8998
    CORREC:  cpu time   14.7166: real time   14.8606
    CHARGE:  cpu time    3.4293: real time    3.4577
    --------------------------------------------
      LOOP:  cpu time   63.5318: real time   64.1913

 eigenvalue-minimisations  :     0
 total energy-change (2. order) :-0.1436578E-03  (-0.6995124E-04)
 number of electron     104.0000000 magnetization 
 augmentation part       14.2524393 magnetization 

 Free energy of the ion-electron system (eV)
  ---------------------------------------------------
  alpha Z        PSCENC =       517.20872146
  Ewald energy   TEWEN  =     -8451.59863310
  -Hartree energ DENC   =     -3028.84585242
  -exchange      EXHF   =         0.00000000
  -V(xc)+E(xc)   XCENC  =       491.66828697
  PAW double counting   =     12461.08482172   -12440.16736015
  entropy T*S    EENTRO =        -0.00268062
  eigenvalues    EBANDS =     -1404.55123515
  atomic energy  EATOM  =     11664.50664672
  ---------------------------------------------------
  free energy    TOTEN  =      -190.69728531 eV

  energy without entropy =     -190.69460468  energy(sigma->0) =     -190.69594500


--------------------------------------------------------------------------------------------------------




--------------------------------------- Iteration      1(  29)  ---------------------------------------


    POTLOK:  cpu time    0.2175: real time    0.2192
    SETDIJ:  cpu time    0.7433: real time    0.7510
    TRIAL :  cpu time   44.4256: real time   44.8989
    CORREC:  cpu time   14.8224: real time   14.9677
    CHARGE:  cpu time    3.4647: real time    3.4938
    --------------------------------------------
      LOOP:  cpu time   63.6749: real time   64.3336

 eigenvalue-minimisations  :     0
 total energy-change (2. order) :-0.6978182E-04  (-0.8835041E-04)
 number of electron     104.0000000 magnetization 
 augmentation part       14.2523516 magnetization 

 Free energy of the ion-electron system (eV)
  ---------------------------------------------------
  alpha Z        PSCENC =       517.20872146
  Ewald energy   TEWEN  =     -8451.59863310
  -Hartree energ DENC   =     -3028.90459799
  -exchange      EXHF   =         0.00000000
  -V(xc)+E(xc)   XCENC  =       491.66545140
  PAW double counting   =     12461.15881174   -12440.24787267
  entropy T*S    EENTRO =        -0.00268727
  eigenvalues    EBANDS =     -1404.48320202
  atomic energy  EATOM  =     11664.50664672
  ---------------------------------------------------
  free energy    TOTEN  =      -190.69735509 eV

  energy without entropy =     -190.69466782  energy(sigma->0) =     -190.69601146


--------------------------------------------------------------------------------------------------------




--------------------------------------- Iteration      1(  30)  ---------------------------------------


    POTLOK:  cpu time    0.2183: real time    0.2201
    SETDIJ:  cpu time    0.7368: real time    0.7434
    TRIAL :  cpu time   44.4144: real time   44.8936
    CORREC:  cpu time   14.7422: real time   14.8892
    CHARGE:  cpu time    3.3956: real time    3.4228
    --------------------------------------------
      LOOP:  cpu time   63.5094: real time   64.1715

 eigenvalue-minimisations  :     0
 total energy-change (2. order) :-0.8890449E-04  (-0.2088157E-04)
 number of electron     104.0000000 magnetization 
 augmentation part       14.2526318 magnetization 

 Free energy of the ion-electron system (eV)
  ---------------------------------------------------
  alpha Z        PSCENC =       517.20872146
  Ewald energy   TEWEN  =     -8451.59863310
  -Hartree energ DENC   =     -3028.70790280
  -exchange      EXHF   =         0.00000000
  -V(xc)+E(xc)   XCENC  =       491.66326543
  PAW double counting   =     12461.21195212   -12440.30354085
  entropy T*S    EENTRO =        -0.00269071
  eigenvalues    EBANDS =     -1404.67526572
  atomic energy  EATOM  =     11664.50664672
  ---------------------------------------------------
  free energy    TOTEN  =      -190.69744400 eV

  energy without entropy =     -190.69475328  energy(sigma->0) =     -190.69609864


--------------------------------------------------------------------------------------------------------




--------------------------------------- Iteration      1(  31)  ---------------------------------------


    POTLOK:  cpu time    0.2183: real time    0.2200
    SETDIJ:  cpu time    0.7387: real time    0.7459
    TRIAL :  cpu time   44.5209: real time   45.0167
    CORREC:  cpu time   14.8277: real time   14.9767
    CHARGE:  cpu time    3.4444: real time    3.4734
    --------------------------------------------
      LOOP:  cpu time   63.7521: real time   64.4357

 eigenvalue-minimisations  :     0
 total energy-change (2. order) :-0.2101336E-04  (-0.3734988E-04)
 number of electron     104.0000000 magnetization 
 augmentation part       14.2533459 magnetization 

 Free energy of the ion-electron system (eV)
  ---------------------------------------------------
  alpha Z        PSCENC =       517.20872146
  Ewald energy   TEWEN  =     -8451.59863310
  -Hartree energ DENC   =     -3028.64975278
  -exchange      EXHF   =         0.00000000
  -V(xc)+E(xc)   XCENC  =       491.66511358
  PAW double counting   =     12461.16431912   -12440.25183405
  entropy T*S    EENTRO =        -0.00269165
  eigenvalues    EBANDS =     -1404.73935525
  atomic energy  EATOM  =     11664.50664672
  ---------------------------------------------------
  free energy    TOTEN  =      -190.69746501 eV

  energy without entropy =     -190.69477336  energy(sigma->0) =     -190.69611918


--------------------------------------------------------------------------------------------------------




--------------------------------------- Iteration      1(  32)  ---------------------------------------


    POTLOK:  cpu time    0.2169: real time    0.2186
    SETDIJ:  cpu time    0.7456: real time    0.7526
    TRIAL :  cpu time   44.5278: real time   45.0233
    CORREC:  cpu time   14.8608: real time   15.0068
    CHARGE:  cpu time    3.4653: real time    3.4945
    --------------------------------------------
      LOOP:  cpu time   63.8184: real time   64.4981

 eigenvalue-minimisations  :     0
 total energy-change (2. order) :-0.3733711E-04  (-0.9196524E-05)
 number of electron     104.0000000 magnetization 
 augmentation part       14.2533227 magnetization 

 Free energy of the ion-electron system (eV)
  ---------------------------------------------------
  alpha Z        PSCENC =       517.20872146
  Ewald energy   TEWEN  =     -8451.59863310
  -Hartree energ DENC   =     -3028.79585982
  -exchange      EXHF   =         0.00000000
  -V(xc)+E(xc)   XCENC  =       491.67044176
  PAW double counting   =     12460.89408550   -12439.97152882
  entropy T*S    EENTRO =        -0.00268987
  eigenvalues    EBANDS =     -1404.60868440
  atomic energy  EATOM  =     11664.50664672
  ---------------------------------------------------
  free energy    TOTEN  =      -190.69750235 eV

  energy without entropy =     -190.69481247  energy(sigma->0) =     -190.69615741


--------------------------------------------------------------------------------------------------------




--------------------------------------- Iteration      1(  33)  ---------------------------------------


    POTLOK:  cpu time    0.2150: real time    0.2166
    SETDIJ:  cpu time    0.7543: real time    0.7608
    TRIAL :  cpu time   44.5868: real time   45.0789
    CORREC:  cpu time   14.8351: real time   14.9807
    CHARGE:  cpu time    3.4776: real time    3.5060
    --------------------------------------------
      LOOP:  cpu time   63.8699: real time   64.5448

 eigenvalue-minimisations  :     0
 total energy-change (2. order) :-0.8974996E-05  (-0.1053408E-04)
 number of electron     104.0000000 magnetization 
 augmentation part       14.2528486 magnetization 

 Free energy of the ion-electron system (eV)
  ---------------------------------------------------
  alpha Z        PSCENC =       517.20872146
  Ewald energy   TEWEN  =     -8451.59863310
  -Hartree energ DENC   =     -3028.86531517
  -exchange      EXHF   =         0.00000000
  -V(xc)+E(xc)   XCENC  =       491.67034506
  PAW double counting   =     12460.76604275   -12439.84324097
  entropy T*S    EENTRO =        -0.00268837
  eigenvalues    EBANDS =     -1404.53938820
  atomic energy  EATOM  =     11664.50664672
  ---------------------------------------------------
  free energy    TOTEN  =      -190.69751132 eV

  energy without entropy =     -190.69482295  energy(sigma->0) =     -190.69616713


--------------------------------------------------------------------------------------------------------




--------------------------------------- Iteration      1(  34)  ---------------------------------------


    POTLOK:  cpu time    0.2120: real time    0.2137
    SETDIJ:  cpu time    0.7527: real time    0.7604
    TRIAL :  cpu time   44.3772: real time   44.8633
    CORREC:  cpu time   14.8106: real time   14.9626
    CHARGE:  cpu time    3.4866: real time    3.5165
    --------------------------------------------
      LOOP:  cpu time   63.6397: real time   64.3181

 eigenvalue-minimisations  :     0
 total energy-change (2. order) :-0.1086840E-04  (-0.5760274E-05)
 number of electron     104.0000000 magnetization 
 augmentation part       14.2526075 magnetization 

 Free energy of the ion-electron system (eV)
  ---------------------------------------------------
  alpha Z        PSCENC =       517.20872146
  Ewald energy   TEWEN  =     -8451.59863310
  -Hartree energ DENC   =     -3028.81962812
  -exchange      EXHF   =         0.00000000
  -V(xc)+E(xc)   XCENC  =       491.66694561
  PAW double counting   =     12460.54861816   -12439.62964398
  entropy T*S    EENTRO =        -0.00268884
  eigenvalues    EBANDS =     -1404.57786057
  atomic energy  EATOM  =     11664.50664672
  ---------------------------------------------------
  free energy    TOTEN  =      -190.69752219 eV

  energy without entropy =     -190.69483335  energy(sigma->0) =     -190.69617777


--------------------------------------------------------------------------------------------------------




--------------------------------------- Iteration      1(  35)  ---------------------------------------


    POTLOK:  cpu time    0.2137: real time    0.2154
    SETDIJ:  cpu time    0.7564: real time    0.7631
    TRIAL :  cpu time   44.5142: real time   44.9993
    CORREC:  cpu time   14.9010: real time   15.0488
    CHARGE:  cpu time    3.4493: real time    3.4793
    --------------------------------------------
      LOOP:  cpu time   63.8358: real time   64.5075

 eigenvalue-minimisations  :     0
 total energy-change (2. order) :-0.5484235E-05  (-0.4876209E-05)
 number of electron     104.0000000 magnetization 
 augmentation part       14.2525878 magnetization 

 Free energy of the ion-electron system (eV)
  ---------------------------------------------------
  alpha Z        PSCENC =       517.20872146
  Ewald energy   TEWEN  =     -8451.59863310
  -Hartree energ DENC   =     -3028.73949583
  -exchange      EXHF   =         0.00000000
  -V(xc)+E(xc)   XCENC  =       491.66523394
  PAW double counting   =     12460.46146927   -12439.54421648
  entropy T*S    EENTRO =        -0.00268776
  eigenvalues    EBANDS =     -1404.65456482
  atomic energy  EATOM  =     11664.50664672
  ---------------------------------------------------
  free energy    TOTEN  =      -190.69752767 eV

  energy without entropy =     -190.69483991  energy(sigma->0) =     -190.69618379


--------------------------------------------------------------------------------------------------------




--------------------------------------- Iteration      1(  36)  ---------------------------------------


    POTLOK:  cpu time    0.2131: real time    0.2148
    SETDIJ:  cpu time    0.7523: real time    0.7589
    TRIAL :  cpu time   44.4625: real time   44.9415
    CORREC:  cpu time   14.8272: real time   14.9754
    CHARGE:  cpu time    3.4722: real time    3.5035
    --------------------------------------------
      LOOP:  cpu time   63.7285: real time   64.3961

 eigenvalue-minimisations  :     0
 total energy-change (2. order) :-0.4862666E-05  (-0.1632136E-05)
 number of electron     104.0000000 magnetization 
 augmentation part       14.2526497 magnetization 

 Free energy of the ion-electron system (eV)
  ---------------------------------------------------
  alpha Z        PSCENC =       517.20872146
  Ewald energy   TEWEN  =     -8451.59863310
  -Hartree energ DENC   =     -3028.72178966
  -exchange      EXHF   =         0.00000000
  -V(xc)+E(xc)   XCENC  =       491.66529157
  PAW double counting   =     12460.45227991   -12439.53527690
  entropy T*S    EENTRO =        -0.00268635
  eigenvalues    EBANDS =     -1404.67208478
  atomic energy  EATOM  =     11664.50664672
  ---------------------------------------------------
  free energy    TOTEN  =      -190.69753254 eV

  energy without entropy =     -190.69484618  energy(sigma->0) =     -190.69618936


--------------------------------------------------------------------------------------------------------




--------------------------------------- Iteration      1(  37)  ---------------------------------------


    POTLOK:  cpu time    0.2123: real time    0.2141
    SETDIJ:  cpu time    0.7593: real time    0.7661
    TRIAL :  cpu time   44.3510: real time   44.8396
    CORREC:  cpu time   14.7955: real time   14.9464
    CHARGE:  cpu time    3.5217: real time    3.5521
    --------------------------------------------
      LOOP:  cpu time   63.6458: real time   64.3255

 eigenvalue-minimisations  :     0
 total energy-change (2. order) :-0.1712564E-05  (-0.2626783E-05)
 number of electron     104.0000000 magnetization 
 augmentation part       14.2529070 magnetization 

 Free energy of the ion-electron system (eV)
  ---------------------------------------------------
  alpha Z        PSCENC =       517.20872146
  Ewald energy   TEWEN  =     -8451.59863310
  -Hartree energ DENC   =     -3028.75798688
  -exchange      EXHF   =         0.00000000
  -V(xc)+E(xc)   XCENC  =       491.66579179
  PAW double counting   =     12460.47101959   -12439.55376715
  entropy T*S    EENTRO =        -0.00268683
  eigenvalues    EBANDS =     -1404.63664034
  atomic energy  EATOM  =     11664.50664672
  ---------------------------------------------------
  free energy    TOTEN  =      -190.69753425 eV

  energy without entropy =     -190.69484741  energy(sigma->0) =     -190.69619083


--------------------------------------------------------------------------------------------------------




--------------------------------------- Iteration      1(  38)  ---------------------------------------


    POTLOK:  cpu time    0.2157: real time    0.2173
    SETDIJ:  cpu time    0.7448: real time    0.7512
    TRIAL :  cpu time   44.5695: real time   45.0619
