 vasp.6.2.0 18Jan21 (build Jan 05 2022 15:41:44) complex                        
  
 executed on             LinuxIFC date 2025.05.07  21:30:27
 running on   24 total cores
 distrk:  each k-point on   12 cores,    2 groups
 distr:  one band on NCORE=   2 cores,    6 groups


--------------------------------------------------------------------------------------------------------


 INCAR:
   SYSTEM = routine with relax: pwdword
   ICHARG = 2
   NPAR = 6
   KPAR = 2
   NCORE = 2
   ADDGRID = T
   PREC = Acc
   ENCUT = 600
   METAGGA = R2SCAN
   LASPH = .TRUE.
   LMIXTAU = .FALSE.
   ALGO = A
   EDIFF = 1E-9
   NELM = 100
   NELMIN = 6
   IALGO = 38
   LREAL = F
   NSW = 0
   ISIF = -1
   ISMEAR = 0
   SIGMA = 0.02

 POTCAR:    PAW_PBE B 06Sep2000                   
 POTCAR:    PAW_PBE Si 05Jan2001                  
 -----------------------------------------------------------------------------
|                                                                             |
|           W    W    AA    RRRRR   N    N  II  N    N   GGGG   !!!           |
|           W    W   A  A   R    R  NN   N  II  NN   N  G    G  !!!           |
|           W    W  A    A  R    R  N N  N  II  N N  N  G       !!!           |
|           W WW W  AAAAAA  RRRRR   N  N N  II  N  N N  G  GGG   !            |
|           WW  WW  A    A  R   R   N   NN  II  N   NN  G    G                |
|           W    W  A    A  R    R  N    N  II  N    N   GGGG   !!!           |
|                                                                             |
|     For optimal performance we recommend to set                             |
|       NCORE = 2 up to number-of-cores-per-socket                            |
|     NCORE specifies how many cores store one orbital (NPAR=cpu/NCORE).      |
|     This setting can greatly improve the performance of VASP for DFT.       |
|     The default, NCORE=1 might be grossly inefficient on modern             |
|     multi-core architectures or massively parallel machines. Do your        |
|     own testing! More info at https://www.vasp.at/wiki/index.php/NCORE      |
|     Unfortunately you need to use the default for GW and RPA                |
|     calculations (for HF NCORE is supported but not extensively tested      |
|     yet).                                                                   |
|                                                                             |
 -----------------------------------------------------------------------------

 POTCAR:    PAW_PBE B 06Sep2000                   
   VRHFIN =B: s2p1                                                                                  
   LEXCH  = PE                                                                                      
   EATOM  =    71.1703 eV,    5.2309 Ry                                                             
                                                                                                    
   TITEL  = PAW_PBE B 06Sep2000                                                                     
   LULTRA =        F    use ultrasoft PP ?                                                          
   IUNSCR =        1    unscreen: 0-lin 1-nonlin 2-no                                               
   RPACOR =    1.200    partial core radius                                                         
   POMASS =   10.811; ZVAL   =    3.000    mass and valenz                                          
   RCORE  =    1.700    outmost cutoff radius                                                       
   RWIGS  =    1.710; RWIGS  =    0.905    wigner-seitz radius (au A)                               
   ENMAX  =  318.614; ENMIN  =  238.960 eV                                                          
   ICORE  =        2    local potential                                                             
   LCOR   =        T    correct aug charges                                                         
   LPAW   =        T    paw PP                                                                      
   EAUG   =  535.514                                                                                
   DEXC   =    0.000                                                                                
   RMAX   =    1.732    core radius for proj-oper                                                   
   RAUG   =    1.300    factor for augmentation sphere                                              
   RDEP   =    1.757    radius for radial grids                                                     
   RDEPT  =    1.436    core radius for aug-charge                                                  
                                                                                                    
   Atomic configuration                                                                             
    4 entries                                                                                       
     n  l   j            E        occ.                                                              
     1  0  0.50      -180.5896   2.0000                                                             
     2  0  0.50        -9.4431   2.0000                                                             
     2  1  0.50        -3.6068   1.0000                                                             
     3  2  1.50        -4.0817   0.0000                                                             
   Description                                                                                      
     l       E           TYP  RCUT    TYP  RCUT                                                     
     0     -9.4430752     23  1.500                                                                 
     0      0.8675899     23  1.500                                                                 
     1     -3.6067955     23  1.700                                                                 
     1      6.1086146     23  1.700                                                                 
     2     -4.0817478      7  1.700                                                                 
  local pseudopotential read in
  partial core-charges read in
  partial kinetic energy density read in
  atomic valenz-charges read in
  non local Contribution for L=           0  read in
    real space projection operators read in
  non local Contribution for L=           0  read in
    real space projection operators read in
  non local Contribution for L=           1  read in
    real space projection operators read in
  non local Contribution for L=           1  read in
    real space projection operators read in
    PAW grid and wavefunctions read in
 
   number of l-projection  operators is LMAX  =           4
   number of lm-projection operators is LMMAX =           8
 
 POTCAR:    PAW_PBE Si 05Jan2001                  
   VRHFIN =Si: s2p2                                                                                 
   LEXCH  = PE                                                                                      
   EATOM  =   103.0669 eV,    7.5752 Ry                                                             
                                                                                                    
   TITEL  = PAW_PBE Si 05Jan2001                                                                    
   LULTRA =        F    use ultrasoft PP ?                                                          
   IUNSCR =        1    unscreen: 0-lin 1-nonlin 2-no                                               
   RPACOR =    1.500    partial core radius                                                         
   POMASS =   28.085; ZVAL   =    4.000    mass and valenz                                          
   RCORE  =    1.900    outmost cutoff radius                                                       
   RWIGS  =    2.480; RWIGS  =    1.312    wigner-seitz radius (au A)                               
   ENMAX  =  245.345; ENMIN  =  184.009 eV                                                          
   ICORE  =        2    local potential                                                             
   LCOR   =        T    correct aug charges                                                         
   LPAW   =        T    paw PP                                                                      
   EAUG   =  322.069                                                                                
   DEXC   =    0.000                                                                                
   RMAX   =    1.950    core radius for proj-oper                                                   
   RAUG   =    1.300    factor for augmentation sphere                                              
   RDEP   =    1.993    radius for radial grids                                                     
   RDEPT  =    1.837    core radius for aug-charge                                                  
                                                                                                    
   Atomic configuration                                                                             
    6 entries                                                                                       
     n  l   j            E        occ.                                                              
     1  0  0.50     -1785.8828   2.0000                                                             
     2  0  0.50      -139.4969   2.0000                                                             
     2  1  1.50       -95.5546   6.0000                                                             
     3  0  0.50       -10.8127   2.0000                                                             
     3  1  0.50        -4.0811   2.0000                                                             
     3  2  1.50        -4.0817   0.0000                                                             
   Description                                                                                      
     l       E           TYP  RCUT    TYP  RCUT                                                     
     0    -10.8127223     23  1.900                                                                 
     0     -7.6451159     23  1.900                                                                 
     1     -4.0811372     23  1.900                                                                 
     1      2.4879257     23  1.900                                                                 
     2     -4.0817478      7  1.900                                                                 
  local pseudopotential read in
  partial core-charges read in
  partial kinetic energy density read in
  atomic valenz-charges read in
  non local Contribution for L=           0  read in
    real space projection operators read in
  non local Contribution for L=           0  read in
    real space projection operators read in
  non local Contribution for L=           1  read in
    real space projection operators read in
  non local Contribution for L=           1  read in
    real space projection operators read in
    PAW grid and wavefunctions read in
 
   number of l-projection  operators is LMAX  =           4
   number of lm-projection operators is LMMAX =           8
 
  PAW_PBE B 06Sep2000                   :
 energy of atom  1       EATOM=  -71.1703
 kinetic energy error for atom=    0.0007 (will be added to EATOM!!)
  PAW_PBE Si 05Jan2001                  :
 energy of atom  2       EATOM= -103.0669
 kinetic energy error for atom=    0.0003 (will be added to EATOM!!)
 
 
 POSCAR: EA262
  positions in direct lattice
  No initial velocities read in

 METAGGA = R2SCA    LMAXTAU =  6    LMIXTAU =  F

 exchange correlation table for  LEXCH =        8
   RHO(1)=    0.500       N(1)  =     2000
   RHO(2)=  100.500       N(2)  =     4000
 


--------------------------------------------------------------------------------------------------------


 ion  position               nearest neighbor table
   1  0.800  0.500  0.500-   2 1.65   3 1.75   4 1.75   5 1.75   6 1.75
   2  0.200  0.500  0.500-   1 1.65   3 1.75   4 1.75   5 1.75   6 1.75
   3  0.500  0.500  0.800-   4 1.65   2 1.75   1 1.75   5 1.75   6 1.75
   4  0.500  0.500  0.200-   3 1.65   2 1.75   1 1.75   5 1.75   6 1.75
   5  0.500  0.200  0.500-   6 1.65   2 1.75   3 1.75   4 1.75   1 1.75
   6  0.500  0.800  0.500-   5 1.65   2 1.75   3 1.75   4 1.75   1 1.75
   7  0.000  0.000  0.000-
 
  LATTYP: Found a simple cubic cell.
 ALAT       =     4.1335480000
  
  Lattice vectors:
  
 A1 = (   4.1335480000,   0.0000000000,   0.0000000000)
 A2 = (   0.0000000000,   4.1335480000,   0.0000000000)
 A3 = (   0.0000000000,   0.0000000000,   4.1335480000)


Analysis of symmetry for initial positions (statically):
=====================================================================
 Subroutine PRICEL returns:
 Original cell was already a primitive cell.
 

 Routine SETGRP: Setting up the symmetry group for a 
 simple cubic supercell.


 Subroutine GETGRP returns: Found 48 space group operations
 (whereof 48 operations were pure point group operations)
 out of a pool of 48 trial point group operations.


The static configuration has the point symmetry O_h .


Analysis of symmetry for dynamics (positions and initial velocities):
=====================================================================
 Subroutine PRICEL returns:
 Original cell was already a primitive cell.
 

 Routine SETGRP: Setting up the symmetry group for a 
 simple cubic supercell.


 Subroutine GETGRP returns: Found 48 space group operations
 (whereof 48 operations were pure point group operations)
 out of a pool of 48 trial point group operations.


The dynamic configuration has the point symmetry O_h .


 Subroutine INISYM returns: Found 48 space group operations
 (whereof 48 operations are pure point group operations),
 and found     1 'primitive' translations


----------------------------------------------------------------------------------------

                                     Primitive cell                                     

  volume of cell :      70.6267

  direct lattice vectors                    reciprocal lattice vectors
     4.133548000  0.000000000  0.000000000     0.241922919  0.000000000  0.000000000
     0.000000000  4.133548000  0.000000000     0.000000000  0.241922919  0.000000000
     0.000000000  0.000000000  4.133548000     0.000000000  0.000000000  0.241922919

  length of vectors
     4.133548000  4.133548000  4.133548000     0.241922919  0.241922919  0.241922919

  position of ions in fractional coordinates (direct lattice)
     0.799960000  0.500000000  0.500000000
     0.200040000  0.500000000  0.500000000
     0.500000000  0.500000000  0.799960000
     0.500000000  0.500000000  0.200040000
     0.500000000  0.200040000  0.500000000
     0.500000000  0.799960000  0.500000000
     0.000000000  0.000000000  0.000000000

  ion indices of the primitive-cell ions
   primitive index   ion index
                 1           1
                 2           2
                 3           3
                 4           4
                 5           5
                 6           6
                 7           7

----------------------------------------------------------------------------------------

 
 
 KPOINTS: EA                                      

Automatic generation of k-mesh.
 Grid dimensions read from file:
 generate k-points for:    9    9    9

 Generating k-lattice:

  Cartesian coordinates                     Fractional coordinates (reciprocal lattice)
     0.026880324  0.000000000  0.000000000     0.111111111  0.000000000  0.000000000
     0.000000000  0.026880324  0.000000000     0.000000000  0.111111111  0.000000000
     0.000000000  0.000000000  0.026880324     0.000000000  0.000000000  0.111111111

  Length of vectors
     0.026880324  0.026880324  0.026880324

  Shift w.r.t. Gamma in fractional coordinates (k-lattice)
     0.000000000  0.000000000  0.000000000

 
 Subroutine IBZKPT returns following result:
 ===========================================
 
 Found     35 irreducible k-points:
 
 Following reciprocal coordinates:
            Coordinates               Weight
  0.000000  0.000000  0.000000      1.000000
  0.111111  0.000000  0.000000      6.000000
  0.222222  0.000000  0.000000      6.000000
  0.333333  0.000000  0.000000      6.000000
  0.444444  0.000000  0.000000      6.000000
  0.111111  0.111111  0.000000     12.000000
  0.222222  0.111111  0.000000     24.000000
  0.333333  0.111111  0.000000     24.000000
  0.444444  0.111111  0.000000     24.000000
  0.222222  0.222222  0.000000     12.000000
  0.333333  0.222222  0.000000     24.000000
  0.444444  0.222222  0.000000     24.000000
  0.333333  0.333333  0.000000     12.000000
  0.444444  0.333333  0.000000     24.000000
  0.444444  0.444444  0.000000     12.000000
  0.111111  0.111111  0.111111      8.000000
  0.222222  0.111111  0.111111     24.000000
  0.333333  0.111111  0.111111     24.000000
  0.444444  0.111111  0.111111     24.000000
  0.222222  0.222222  0.111111     24.000000
  0.333333  0.222222  0.111111     48.000000
  0.444444  0.222222  0.111111     48.000000
  0.333333  0.333333  0.111111     24.000000
  0.444444  0.333333  0.111111     48.000000
  0.444444  0.444444  0.111111     24.000000
  0.222222  0.222222  0.222222      8.000000
  0.333333  0.222222  0.222222     24.000000
  0.444444  0.222222  0.222222     24.000000
  0.333333  0.333333  0.222222     24.000000
  0.444444  0.333333  0.222222     48.000000
  0.444444  0.444444  0.222222     24.000000
  0.333333  0.333333  0.333333      8.000000
  0.444444  0.333333  0.333333     24.000000
  0.444444  0.444444  0.333333     24.000000
  0.444444  0.444444  0.444444      8.000000
 
 Following cartesian coordinates:
            Coordinates               Weight
  0.000000  0.000000  0.000000      1.000000
  0.026880  0.000000  0.000000      6.000000
  0.053761  0.000000  0.000000      6.000000
  0.080641  0.000000  0.000000      6.000000
  0.107521  0.000000  0.000000      6.000000
  0.026880  0.026880  0.000000     12.000000
  0.053761  0.026880  0.000000     24.000000
  0.080641  0.026880  0.000000     24.000000
  0.107521  0.026880  0.000000     24.000000
  0.053761  0.053761  0.000000     12.000000
  0.080641  0.053761  0.000000     24.000000
  0.107521  0.053761  0.000000     24.000000
  0.080641  0.080641  0.000000     12.000000
  0.107521  0.080641  0.000000     24.000000
  0.107521  0.107521  0.000000     12.000000
  0.026880  0.026880  0.026880      8.000000
  0.053761  0.026880  0.026880     24.000000
  0.080641  0.026880  0.026880     24.000000
  0.107521  0.026880  0.026880     24.000000
  0.053761  0.053761  0.026880     24.000000
  0.080641  0.053761  0.026880     48.000000
  0.107521  0.053761  0.026880     48.000000
  0.080641  0.080641  0.026880     24.000000
  0.107521  0.080641  0.026880     48.000000
  0.107521  0.107521  0.026880     24.000000
  0.053761  0.053761  0.053761      8.000000
  0.080641  0.053761  0.053761     24.000000
  0.107521  0.053761  0.053761     24.000000
  0.080641  0.080641  0.053761     24.000000
  0.107521  0.080641  0.053761     48.000000
  0.107521  0.107521  0.053761     24.000000
  0.080641  0.080641  0.080641      8.000000
  0.107521  0.080641  0.080641     24.000000
  0.107521  0.107521  0.080641     24.000000
  0.107521  0.107521  0.107521      8.000000
 


--------------------------------------------------------------------------------------------------------




 Dimension of arrays:
   k-points           NKPTS =     35   k-points in BZ     NKDIM =     35   number of bands    NBANDS=     18
   number of dos      NEDOS =    301   number of ions     NIONS =      7
   non local maximal  LDIM  =      4   non local SUM 2l+1 LMDIM =      8
   total plane-waves  NPLWV =  46656
   max r-space proj   IRMAX =      1   max aug-charges    IRDMAX= 176876
   dimension x,y,z NGX =    36 NGY =   36 NGZ =   36
   dimension x,y,z NGXF=    72 NGYF=   72 NGZF=   72
   support grid    NGXF=   144 NGYF=  144 NGZF=  144
   ions per type =               6   1
   NGX,Y,Z   is equivalent  to a cutoff of  14.48, 14.48, 14.48 a.u.
   NGXF,Y,Z  is equivalent  to a cutoff of  28.96, 28.96, 28.96 a.u.

 SYSTEM =  routine with relax: pwdword             
 POSCAR =  EA262                                   

 Startparameter for this run:
   NWRITE =      2    write-flag & timer
   PREC   = acc       normal or accurate (medium, high low for compatibility)
   ISTART =      0    job   : 0-new  1-cont  2-samecut
   ICHARG =      2    charge: 1-file 2-atom 10-const
   ISPIN  =      1    spin polarized calculation?
   LNONCOLLINEAR =      F non collinear calculations
   LSORBIT =      F    spin-orbit coupling
   INIWAV =      1    electr: 0-lowe 1-rand  2-diag
   LASPH  =      T    aspherical Exc in radial PAW
   METAGGA=      F    non-selfconsistent MetaGGA calc.

 Electronic Relaxation 1
   ENCUT  =  600.0 eV  44.10 Ry    6.64 a.u.   8.26  8.26  8.26*2*pi/ulx,y,z
   ENINI  =  600.0     initial cutoff
   ENAUG  =  535.5 eV  augmentation charge cutoff
   NELM   =    100;   NELMIN=  6; NELMDL= -5     # of ELM steps 
   EDIFF  = 0.1E-08   stopping-criterion for ELM
   LREAL  =      F    real-space projection
   NLSPLINE    = F    spline interpolate recip. space projectors
   LCOMPAT=      F    compatible to vasp.4.4
   GGA_COMPAT  = T    GGA compatible to vasp.4.4-vasp.4.6
   LMAXPAW     = -100 max onsite density
   LMAXMIX     =    2 max onsite mixed and CHGCAR
   VOSKOWN=      0    Vosko Wilk Nusair interpolation
   ROPT   =    0.00000   0.00000
 Ionic relaxation
   EDIFFG = 0.1E-07   stopping-criterion for IOM
   NSW    =      0    number of steps for IOM
   NBLOCK =      1;   KBLOCK =      1    inner block; outer block 
   IBRION =     -1    ionic relax: 0-MD 1-quasi-New 2-CG
   NFREE  =      0    steps in history (QN), initial steepest desc. (CG)
   ISIF   =     -1    stress and relaxation
   IWAVPR =     10    prediction:  0-non 1-charg 2-wave 3-comb
   ISYM   =      2    0-nonsym 1-usesym 2-fastsym
   LCORR  =      T    Harris-Foulkes like correction to forces

   POTIM  = 0.5000    time-step for ionic-motion
   TEIN   =    0.0    initial temperature
   TEBEG  =    0.0;   TEEND  =   0.0 temperature during run
   SMASS  =  -3.00    Nose mass-parameter (am)
   estimated Nose-frequenzy (Omega)   =  0.10E-29 period in steps = 0.13E+47 mass=  -0.390E-27a.u.
   SCALEE = 1.0000    scale energy and forces
   NPACO  =    256;   APACO  = 16.0  distance and # of slots for P.C.
   PSTRESS=    0.0 pullay stress

  Mass of Ions in am
   POMASS =  10.81 28.09
  Ionic Valenz
   ZVAL   =   3.00  4.00
  Atomic Wigner-Seitz radii
   RWIGS  =  -1.00 -1.00
  virtual crystal weights 
   VCA    =   1.00  1.00
   NELECT =      22.0000    total number of electrons
   NUPDOWN=      -1.0000    fix difference up-down

 DOS related values:
   EMIN   =  10.00;   EMAX   =-10.00  energy-range for DOS
   EFERMI =   0.00
   ISMEAR =     0;   SIGMA  =   0.02  broadening in eV -4-tet -1-fermi 0-gaus

 Electronic relaxation 2 (details)
   IALGO  =     58    algorithm
   LDIAG  =      T    sub-space diagonalisation (order eigenvalues)
   LSUBROT=      F    optimize rotation matrix (better conditioning)
   TURBO    =      0    0=normal 1=particle mesh
   IRESTART =      0    0=no restart 2=restart with 2 vectors
   NREBOOT  =      0    no. of reboots
   NMIN     =      0    reboot dimension
   EREF     =   0.00    reference energy to select bands
   IMIX   =      4    mixing-type and parameters
     AMIX     =   0.40;   BMIX     =  1.00
     AMIX_MAG =   1.60;   BMIX_MAG =  1.00
     AMIN     =   0.10
     WC   =   100.;   INIMIX=   1;  MIXPRE=   1;  MAXMIX= -45

 Intra band minimization:
   WEIMIN = 0.0000     energy-eigenvalue tresh-hold
   EBREAK =  0.14E-10  absolut break condition
   DEPER  =   0.30     relativ break condition  

   TIME   =   0.40     timestep for ELM

  volume/ion in A,a.u.               =      10.09        68.09
  Fermi-wavevector in a.u.,A,eV,Ry     =   1.109752  2.097128 16.756259  1.231550
  Thomas-Fermi vector in A             =   2.246296
 
 Write flags
   LWAVE        =      T    write WAVECAR
   LDOWNSAMPLE  =      F    k-point downsampling of WAVECAR
   LCHARG       =      T    write CHGCAR
   LVTOT        =      F    write LOCPOT, total local potential
   LVHAR        =      F    write LOCPOT, Hartree potential only
   LELF         =      F    write electronic localiz. function (ELF)
   LORBIT       =      0    0 simple, 1 ext, 2 COOP (PROOUT), +10 PAW based schemes


 Dipole corrections
   LMONO  =      F    monopole corrections only (constant potential shift)
   LDIPOL =      F    correct potential (dipole corrections)
   IDIPOL =      0    1-x, 2-y, 3-z, 4-all directions 
   EPSILON=  1.0000000 bulk dielectric constant

 Exchange correlation treatment:
   GGA     =    --    GGA type
   LEXCH   =     8    internal setting for exchange type
   VOSKOWN=      0    Vosko Wilk Nusair interpolation
   LHFCALC =     F    Hartree Fock is set to
   LHFONE  =     F    Hartree Fock one center treatment
   AEXX    =    0.0000 exact exchange contribution

 Linear response parameters
   LEPSILON=     F    determine dielectric tensor
   LRPA    =     F    only Hartree local field effects (RPA)
   LNABLA  =     F    use nabla operator in PAW spheres
   LVEL    =     F    velocity operator in full k-point grid
   LINTERFAST=   F  fast interpolation
   KINTER  =     0    interpolate to denser k-point grid
   CSHIFT  =0.1000    complex shift for real part using Kramers Kronig
   OMEGAMAX=  -1.0    maximum frequency
   DEG_THRESHOLD= 0.2000000E-02 threshold for treating states as degnerate
   RTIME   =   -0.100 relaxation time in fs
  (WPLASMAI=    0.000 imaginary part of plasma frequency in eV, 0.658/RTIME)
   DFIELD  = 0.0000000 0.0000000 0.0000000 field for delta impulse in time
 
 Orbital magnetization related:
   ORBITALMAG=     F  switch on orbital magnetization
   LCHIMAG   =     F  perturbation theory with respect to B field
   DQ        =  0.001000  dq finite difference perturbation B field
   LLRAUG    =     F  two centre corrections for induced B field



--------------------------------------------------------------------------------------------------------


 Static calculation
 charge density and potential will be updated during run
 non-spin polarized calculation
 Conjugate gradient for all bands (Freysoldt, et al. PRB 79, 241103 (2009))
 preconditioned conjugated gradient                                        
 perform sub-space diagonalisation
    before iterative eigenvector-optimisation
 modified Broyden-mixing scheme, WC =      100.0
 initial mixing is a Kerker type mixing with AMIX =  0.4000 and BMIX =      1.0000
 Hartree-type preconditioning will be used
 using additional bands            7
 reciprocal scheme for non local part
 use partial core corrections
 no Harris-corrections to forces 
 use gradient corrections 
 use of overlap-Matrix (Vanderbilt PP)
 Gauss-broadening in eV      SIGMA  =   0.02


--------------------------------------------------------------------------------------------------------


  energy-cutoff  :      600.00
  volume of cell :       70.63
      direct lattice vectors                 reciprocal lattice vectors
     4.133548000  0.000000000  0.000000000     0.241922919  0.000000000  0.000000000
     0.000000000  4.133548000  0.000000000     0.000000000  0.241922919  0.000000000
     0.000000000  0.000000000  4.133548000     0.000000000  0.000000000  0.241922919

  length of vectors
     4.133548000  4.133548000  4.133548000     0.241922919  0.241922919  0.241922919


 
 k-points in units of 2pi/SCALE and weight: EA                                      
   0.00000000  0.00000000  0.00000000       0.001
   0.02688032  0.00000000  0.00000000       0.008
   0.05376065  0.00000000  0.00000000       0.008
   0.08064097  0.00000000  0.00000000       0.008
   0.10752130  0.00000000  0.00000000       0.008
   0.02688032  0.02688032  0.00000000       0.016
   0.05376065  0.02688032  0.00000000       0.033
   0.08064097  0.02688032  0.00000000       0.033
   0.10752130  0.02688032  0.00000000       0.033
   0.05376065  0.05376065  0.00000000       0.016
   0.08064097  0.05376065  0.00000000       0.033
   0.10752130  0.05376065  0.00000000       0.033
   0.08064097  0.08064097  0.00000000       0.016
   0.10752130  0.08064097  0.00000000       0.033
   0.10752130  0.10752130  0.00000000       0.016
   0.02688032  0.02688032  0.02688032       0.011
   0.05376065  0.02688032  0.02688032       0.033
   0.08064097  0.02688032  0.02688032       0.033
   0.10752130  0.02688032  0.02688032       0.033
   0.05376065  0.05376065  0.02688032       0.033
   0.08064097  0.05376065  0.02688032       0.066
   0.10752130  0.05376065  0.02688032       0.066
   0.08064097  0.08064097  0.02688032       0.033
   0.10752130  0.08064097  0.02688032       0.066
   0.10752130  0.10752130  0.02688032       0.033
   0.05376065  0.05376065  0.05376065       0.011
   0.08064097  0.05376065  0.05376065       0.033
   0.10752130  0.05376065  0.05376065       0.033
   0.08064097  0.08064097  0.05376065       0.033
   0.10752130  0.08064097  0.05376065       0.066
   0.10752130  0.10752130  0.05376065       0.033
   0.08064097  0.08064097  0.08064097       0.011
   0.10752130  0.08064097  0.08064097       0.033
   0.10752130  0.10752130  0.08064097       0.033
   0.10752130  0.10752130  0.10752130       0.011
 
 k-points in reciprocal lattice and weights: EA                                      
   0.00000000  0.00000000  0.00000000       0.001
   0.11111111  0.00000000  0.00000000       0.008
   0.22222222  0.00000000  0.00000000       0.008
   0.33333333  0.00000000  0.00000000       0.008
   0.44444444  0.00000000  0.00000000       0.008
   0.11111111  0.11111111  0.00000000       0.016
   0.22222222  0.11111111  0.00000000       0.033
   0.33333333  0.11111111  0.00000000       0.033
   0.44444444  0.11111111  0.00000000       0.033
   0.22222222  0.22222222  0.00000000       0.016
   0.33333333  0.22222222  0.00000000       0.033
   0.44444444  0.22222222  0.00000000       0.033
   0.33333333  0.33333333  0.00000000       0.016
   0.44444444  0.33333333  0.00000000       0.033
   0.44444444  0.44444444  0.00000000       0.016
   0.11111111  0.11111111  0.11111111       0.011
   0.22222222  0.11111111  0.11111111       0.033
   0.33333333  0.11111111  0.11111111       0.033
   0.44444444  0.11111111  0.11111111       0.033
   0.22222222  0.22222222  0.11111111       0.033
   0.33333333  0.22222222  0.11111111       0.066
   0.44444444  0.22222222  0.11111111       0.066
   0.33333333  0.33333333  0.11111111       0.033
   0.44444444  0.33333333  0.11111111       0.066
   0.44444444  0.44444444  0.11111111       0.033
   0.22222222  0.22222222  0.22222222       0.011
   0.33333333  0.22222222  0.22222222       0.033
   0.44444444  0.22222222  0.22222222       0.033
   0.33333333  0.33333333  0.22222222       0.033
   0.44444444  0.33333333  0.22222222       0.066
   0.44444444  0.44444444  0.22222222       0.033
   0.33333333  0.33333333  0.33333333       0.011
   0.44444444  0.33333333  0.33333333       0.033
   0.44444444  0.44444444  0.33333333       0.033
   0.44444444  0.44444444  0.44444444       0.011
 
 position of ions in fractional coordinates (direct lattice) 
   0.79996000  0.50000000  0.50000000
   0.20004000  0.50000000  0.50000000
   0.50000000  0.50000000  0.79996000
   0.50000000  0.50000000  0.20004000
   0.50000000  0.20004000  0.50000000
   0.50000000  0.79996000  0.50000000
   0.00000000  0.00000000  0.00000000
 
 position of ions in cartesian coordinates  (Angst):
   3.30667306  2.06677400  2.06677400
   0.82687494  2.06677400  2.06677400
   2.06677400  2.06677400  3.30667306
   2.06677400  2.06677400  0.82687494
   2.06677400  0.82687494  2.06677400
   2.06677400  3.30667306  2.06677400
   0.00000000  0.00000000  0.00000000
 


--------------------------------------------------------------------------------------------------------


 k-point   1 :   0.0000 0.0000 0.0000  plane waves:    2373
 k-point   2 :   0.1111 0.0000 0.0000  plane waves:    2373
 k-point   3 :   0.2222 0.0000 0.0000  plane waves:    2353
 k-point   4 :   0.3333 0.0000 0.0000  plane waves:    2360
 k-point   5 :   0.4444 0.0000 0.0000  plane waves:    2368
 k-point   6 :   0.1111 0.1111 0.0000  plane waves:    2379
 k-point   7 :   0.2222 0.1111 0.0000  plane waves:    2356
 k-point   8 :   0.3333 0.1111 0.0000  plane waves:    2361
 k-point   9 :   0.4444 0.1111 0.0000  plane waves:    2356
 k-point  10 :   0.2222 0.2222 0.0000  plane waves:    2344
 k-point  11 :   0.3333 0.2222 0.0000  plane waves:    2342
 k-point  12 :   0.4444 0.2222 0.0000  plane waves:    2354
 k-point  13 :   0.3333 0.3333 0.0000  plane waves:    2344
 k-point  14 :   0.4444 0.3333 0.0000  plane waves:    2353
 k-point  15 :   0.4444 0.4444 0.0000  plane waves:    2352
 k-point  16 :   0.1111 0.1111 0.1111  plane waves:    2370
 k-point  17 :   0.2222 0.1111 0.1111  plane waves:    2353
 k-point  18 :   0.3333 0.1111 0.1111  plane waves:    2357
 k-point  19 :   0.4444 0.1111 0.1111  plane waves:    2357
 k-point  20 :   0.2222 0.2222 0.1111  plane waves:    2355
 k-point  21 :   0.3333 0.2222 0.1111  plane waves:    2351
 k-point  22 :   0.4444 0.2222 0.1111  plane waves:    2353
 k-point  23 :   0.3333 0.3333 0.1111  plane waves:    2356
 k-point  24 :   0.4444 0.3333 0.1111  plane waves:    2350
 k-point  25 :   0.4444 0.4444 0.1111  plane waves:    2359
 k-point  26 :   0.2222 0.2222 0.2222  plane waves:    2349
 k-point  27 :   0.3333 0.2222 0.2222  plane waves:    2355
 k-point  28 :   0.4444 0.2222 0.2222  plane waves:    2358
 k-point  29 :   0.3333 0.3333 0.2222  plane waves:    2351
 k-point  30 :   0.4444 0.3333 0.2222  plane waves:    2362
 k-point  31 :   0.4444 0.4444 0.2222  plane waves:    2357
 k-point  32 :   0.3333 0.3333 0.3333  plane waves:    2365
 k-point  33 :   0.4444 0.3333 0.3333  plane waves:    2361
 k-point  34 :   0.4444 0.4444 0.3333  plane waves:    2352
 k-point  35 :   0.4444 0.4444 0.4444  plane waves:    2347

 maximum and minimum number of plane-waves per node :      1205     1160

 maximum number of plane-waves:      2379
 maximum index in each direction: 
   IXMAX=    8   IYMAX=    8   IZMAX=    8
   IXMIN=   -8   IYMIN=   -8   IZMIN=   -8


 parallel 3D FFT for wavefunctions:
    minimum data exchange during FFTs selected (reduces bandwidth)
 parallel 3D FFT for charge:
    minimum data exchange during FFTs selected (reduces bandwidth)


 total amount of memory used by VASP MPI-rank0    50812. kBytes
=======================================================================

   base      :      30000. kBytes
   nonl-proj :       5537. kBytes
   fftplans  :       5284. kBytes
   grid      :       3721. kBytes
   one-center:         12. kBytes
   wavefun   :       6258. kBytes
 
     INWAV:  cpu time    0.0000: real time    0.0000
 Broyden mixing: mesh for mixing (old mesh)
   NGX = 17   NGY = 17   NGZ = 17
  (NGX  = 72   NGY  = 72   NGZ  = 72)
  gives a total of   4913 points

 initial charge density was supplied:
 charge density of overlapping atoms calculated
 number of electron      22.0000000 magnetization 
 keeping initial charge density in first step


--------------------------------------------------------------------------------------------------------


 Maximum index for augmentation-charges        14141 (set IRDMAX)


--------------------------------------------------------------------------------------------------------


 First call to EWALD:  gamma=   0.429
 Maximum number of real-space cells 3x 3x 3
 Maximum number of reciprocal cells 3x 3x 3

    FEWALD:  cpu time    0.0017: real time    0.0017


--------------------------------------- Iteration      1(   1)  ---------------------------------------


    POTLOK:  cpu time    0.0431: real time    0.0434
    SETDIJ:  cpu time    0.1971: real time    0.1981
    TRIAL :  cpu time    0.4784: real time    0.4848
    CORREC:  cpu time    0.0004: real time    0.0004
    --------------------------------------------
      LOOP:  cpu time    0.7211: real time    0.7311

 eigenvalue-minimisations  :  1260
 total energy-change (2. order) : 0.3694608E+02  (-0.1223182E+04)
 number of electron      22.0000000 magnetization 
 augmentation part       22.0000000 magnetization 

 Free energy of the ion-electron system (eV)
  ---------------------------------------------------
  alpha Z        PSCENC =        45.48040875
  Ewald energy   TEWEN  =      -553.38080797
  -Hartree energ DENC   =       -72.15056820
  -exchange      EXHF   =         0.00000000
  -V(xc)+E(xc)   XCENC  =        46.67365235
  PAW double counting   =       333.74668840     -325.44844249
  entropy T*S    EENTRO =        -0.00041250
  eigenvalues    EBANDS =        31.94139305
  atomic energy  EATOM  =       530.08416407
  ---------------------------------------------------
  free energy    TOTEN  =        36.94607544 eV

  energy without entropy =       36.94648795  energy(sigma->0) =       36.94628170


--------------------------------------------------------------------------------------------------------




--------------------------------------- Iteration      1(   2)  ---------------------------------------


    TRIAL :  cpu time    0.5663: real time    0.5709
    CORREC:  cpu time    0.0001: real time    0.0002
    --------------------------------------------
      LOOP:  cpu time    0.5690: real time    0.5739

 eigenvalue-minimisations  :  1818
 total energy-change (2. order) :-0.9380379E+02  (-0.8531081E+02)
 number of electron      22.0000000 magnetization 
 augmentation part       22.0000000 magnetization 

 Free energy of the ion-electron system (eV)
  ---------------------------------------------------
  alpha Z        PSCENC =        45.48040875
  Ewald energy   TEWEN  =      -553.38080797
  -Hartree energ DENC   =       -72.15056820
  -exchange      EXHF   =         0.00000000
  -V(xc)+E(xc)   XCENC  =        46.67365235
  PAW double counting   =       333.74668840     -325.44844249
  entropy T*S    EENTRO =        -0.00000000
  eigenvalues    EBANDS =       -61.86281420
  atomic energy  EATOM  =       530.08416407
  ---------------------------------------------------
  free energy    TOTEN  =       -56.85771930 eV

  energy without entropy =      -56.85771930  energy(sigma->0) =      -56.85771930


--------------------------------------------------------------------------------------------------------




--------------------------------------- Iteration      1(   3)  ---------------------------------------


    TRIAL :  cpu time    0.5637: real time    0.5679
    CORREC:  cpu time    0.0001: real time    0.0001
    --------------------------------------------
      LOOP:  cpu time    0.5662: real time    0.5707

 eigenvalue-minimisations  :  1632
 total energy-change (2. order) :-0.3616941E+01  (-0.3584046E+01)
 number of electron      22.0000000 magnetization 
 augmentation part       22.0000000 magnetization 

 Free energy of the ion-electron system (eV)
  ---------------------------------------------------
  alpha Z        PSCENC =        45.48040875
  Ewald energy   TEWEN  =      -553.38080797
  -Hartree energ DENC   =       -72.15056820
  -exchange      EXHF   =         0.00000000
  -V(xc)+E(xc)   XCENC  =        46.67365235
  PAW double counting   =       333.74668840     -325.44844249
  entropy T*S    EENTRO =        -0.00000000
  eigenvalues    EBANDS =       -65.47975501
  atomic energy  EATOM  =       530.08416407
  ---------------------------------------------------
  free energy    TOTEN  =       -60.47466010 eV

  energy without entropy =      -60.47466010  energy(sigma->0) =      -60.47466010


--------------------------------------------------------------------------------------------------------




--------------------------------------- Iteration      1(   4)  ---------------------------------------


    TRIAL :  cpu time    0.5521: real time    0.5560
    CORREC:  cpu time    0.0001: real time    0.0001
    --------------------------------------------
      LOOP:  cpu time    0.5548: real time    0.5591

 eigenvalue-minimisations  :  1584
 total energy-change (2. order) :-0.2714375E-01  (-0.2713298E-01)
 number of electron      22.0000000 magnetization 
 augmentation part       22.0000000 magnetization 

 Free energy of the ion-electron system (eV)
  ---------------------------------------------------
  alpha Z        PSCENC =        45.48040875
  Ewald energy   TEWEN  =      -553.38080797
  -Hartree energ DENC   =       -72.15056820
  -exchange      EXHF   =         0.00000000
  -V(xc)+E(xc)   XCENC  =        46.67365235
  PAW double counting   =       333.74668840     -325.44844249
  entropy T*S    EENTRO =        -0.00000000
  eigenvalues    EBANDS =       -65.50689875
  atomic energy  EATOM  =       530.08416407
  ---------------------------------------------------
  free energy    TOTEN  =       -60.50180385 eV

  energy without entropy =      -60.50180385  energy(sigma->0) =      -60.50180385


--------------------------------------------------------------------------------------------------------




--------------------------------------- Iteration      1(   5)  ---------------------------------------


    TRIAL :  cpu time    0.5406: real time    0.5446
    CORREC:  cpu time    0.0001: real time    0.0001
    CHARGE:  cpu time    0.1342: real time    0.1353
    --------------------------------------------
      LOOP:  cpu time    0.6754: real time    0.6827

 eigenvalue-minimisations  :  1770
 total energy-change (2. order) :-0.2971606E-03  (-0.2971511E-03)
 number of electron      22.0000000 magnetization 
 augmentation part       -0.2862002 magnetization 

 Free energy of the ion-electron system (eV)
  ---------------------------------------------------
  alpha Z        PSCENC =        45.48040875
  Ewald energy   TEWEN  =      -553.38080797
  -Hartree energ DENC   =       -72.15056820
  -exchange      EXHF   =         0.00000000
  -V(xc)+E(xc)   XCENC  =        46.67365235
  PAW double counting   =       333.74668840     -325.44844249
  entropy T*S    EENTRO =        -0.00000000
  eigenvalues    EBANDS =       -65.50719591
  atomic energy  EATOM  =       530.08416407
  ---------------------------------------------------
  free energy    TOTEN  =       -60.50210101 eV

  energy without entropy =      -60.50210101  energy(sigma->0) =      -60.50210101


--------------------------------------------------------------------------------------------------------




--------------------------------------- Iteration      1(   6)  ---------------------------------------


    POTLOK:  cpu time    0.0437: real time    0.0440
    SETDIJ:  cpu time    0.1968: real time    0.1979
    TRIAL :  cpu time    0.4098: real time    0.4124
    CORREC:  cpu time    0.4885: real time    0.4915
    CHARGE:  cpu time    0.1331: real time    0.1340
    --------------------------------------------
      LOOP:  cpu time    1.2755: real time    1.2837

 eigenvalue-minimisations  :     0
 total energy-change (2. order) : 0.2032591E+02  (-0.7955392E+01)
 number of electron      22.0000000 magnetization 
 augmentation part       -0.3763835 magnetization 

 Free energy of the ion-electron system (eV)
  ---------------------------------------------------
  alpha Z        PSCENC =        45.48040875
  Ewald energy   TEWEN  =      -553.38080797
  -Hartree energ DENC   =      -164.20420227
  -exchange      EXHF   =         0.00000000
  -V(xc)+E(xc)   XCENC  =        52.83306663
  PAW double counting   =      1969.20637436    -1961.82886618
  entropy T*S    EENTRO =        -0.00000000
  eigenvalues    EBANDS =        41.63367216
  atomic energy  EATOM  =       530.08416407
  ---------------------------------------------------
  free energy    TOTEN  =       -40.17619046 eV

  energy without entropy =      -40.17619046  energy(sigma->0) =      -40.17619046


--------------------------------------------------------------------------------------------------------




--------------------------------------- Iteration      1(   7)  ---------------------------------------


    POTLOK:  cpu time    0.0403: real time    0.0406
    SETDIJ:  cpu time    0.1971: real time    0.1981
    TRIAL :  cpu time    0.4252: real time    0.4278
    CORREC:  cpu time    0.4740: real time    0.4767
    CHARGE:  cpu time    0.1277: real time    0.1285
    --------------------------------------------
      LOOP:  cpu time    1.2648: real time    1.2744

 eigenvalue-minimisations  :     0
 total energy-change (2. order) :-0.7749144E+01  (-0.1320705E+01)
 number of electron      22.0000000 magnetization 
 augmentation part       -0.3946584 magnetization 

 Free energy of the ion-electron system (eV)
  ---------------------------------------------------
  alpha Z        PSCENC =        45.48040875
  Ewald energy   TEWEN  =      -553.38080797
  -Hartree energ DENC   =      -111.71751137
  -exchange      EXHF   =         0.00000000
  -V(xc)+E(xc)   XCENC  =        49.78949194
  PAW double counting   =      2021.24145078    -2013.37810627
  entropy T*S    EENTRO =        -0.00000739
  eigenvalues    EBANDS =       -16.04442413
  atomic energy  EATOM  =       530.08416407
  ---------------------------------------------------
  free energy    TOTEN  =       -47.92533420 eV

  energy without entropy =      -47.92532681  energy(sigma->0) =      -47.92533051


--------------------------------------------------------------------------------------------------------




--------------------------------------- Iteration      1(   8)  ---------------------------------------


    POTLOK:  cpu time    0.0401: real time    0.0403
    SETDIJ:  cpu time    0.1943: real time    0.1953
    TRIAL :  cpu time    0.4039: real time    0.4064
    CORREC:  cpu time    0.4855: real time    0.4884
    CHARGE:  cpu time    0.1303: real time    0.1314
    --------------------------------------------
      LOOP:  cpu time    1.2566: real time    1.2649

 eigenvalue-minimisations  :     0
 total energy-change (2. order) :-0.1141944E+01  (-0.1499792E+00)
 number of electron      22.0000000 magnetization 
 augmentation part       -0.3787094 magnetization 

 Free energy of the ion-electron system (eV)
  ---------------------------------------------------
  alpha Z        PSCENC =        45.48040875
  Ewald energy   TEWEN  =      -553.38080797
  -Hartree energ DENC   =      -107.61705570
  -exchange      EXHF   =         0.00000000
  -V(xc)+E(xc)   XCENC  =        49.77815003
  PAW double counting   =      1872.44835080    -1864.69306633
  entropy T*S    EENTRO =        -0.00023597
  eigenvalues    EBANDS =       -21.16741436
  atomic energy  EATOM  =       530.08416407
  ---------------------------------------------------
  free energy    TOTEN  =       -49.06727809 eV

  energy without entropy =      -49.06704212  energy(sigma->0) =      -49.06716011


--------------------------------------------------------------------------------------------------------




--------------------------------------- Iteration      1(   9)  ---------------------------------------


    POTLOK:  cpu time    0.0428: real time    0.0430
    SETDIJ:  cpu time    0.2042: real time    0.2052
    TRIAL :  cpu time    0.4143: real time    0.4169
    CORREC:  cpu time    0.4917: real time    0.4946
    CHARGE:  cpu time    0.1340: real time    0.1348
    --------------------------------------------
      LOOP:  cpu time    1.2937: real time    1.3023

 eigenvalue-minimisations  :     0
 total energy-change (2. order) :-0.1509517E+00  (-0.4036815E-01)
 number of electron      22.0000000 magnetization 
 augmentation part       -0.3696966 magnetization 

 Free energy of the ion-electron system (eV)
  ---------------------------------------------------
  alpha Z        PSCENC =        45.48040875
  Ewald energy   TEWEN  =      -553.38080797
  -Hartree energ DENC   =      -106.39369201
  -exchange      EXHF   =         0.00000000
  -V(xc)+E(xc)   XCENC  =        49.70024252
  PAW double counting   =      1876.46474563    -1868.69728124
  entropy T*S    EENTRO =        -0.00008616
  eigenvalues    EBANDS =       -22.47577355
  atomic energy  EATOM  =       530.08416407
  ---------------------------------------------------
  free energy    TOTEN  =       -49.21822976 eV

  energy without entropy =      -49.21814360  energy(sigma->0) =      -49.21818668


--------------------------------------------------------------------------------------------------------




--------------------------------------- Iteration      1(  10)  ---------------------------------------


    POTLOK:  cpu time    0.0402: real time    0.0404
    SETDIJ:  cpu time    0.1906: real time    0.1914
    TRIAL :  cpu time    0.3945: real time    0.3968
    CORREC:  cpu time    0.4914: real time    0.4943
    CHARGE:  cpu time    0.1282: real time    0.1291
    --------------------------------------------
      LOOP:  cpu time    1.2460: real time    1.2541

 eigenvalue-minimisations  :     0
 total energy-change (2. order) :-0.4038456E-01  (-0.1106637E-01)
 number of electron      22.0000000 magnetization 
 augmentation part       -0.3714488 magnetization 

 Free energy of the ion-electron system (eV)
  ---------------------------------------------------
  alpha Z        PSCENC =        45.48040875
  Ewald energy   TEWEN  =      -553.38080797
  -Hartree energ DENC   =      -107.62143012
  -exchange      EXHF   =         0.00000000
  -V(xc)+E(xc)   XCENC  =        49.74835413
  PAW double counting   =      1897.79916966    -1890.02335785
  entropy T*S    EENTRO =        -0.00000065
  eigenvalues    EBANDS =       -21.34502884
  atomic energy  EATOM  =       530.08416407
  ---------------------------------------------------
  free energy    TOTEN  =       -49.25861432 eV

  energy without entropy =      -49.25861367  energy(sigma->0) =      -49.25861400


--------------------------------------------------------------------------------------------------------




--------------------------------------- Iteration      1(  11)  ---------------------------------------


    POTLOK:  cpu time    0.0398: real time    0.0401
    SETDIJ:  cpu time    0.1976: real time    0.1986
    TRIAL :  cpu time    0.4152: real time    0.4177
    CORREC:  cpu time    0.4753: real time    0.4780
    CHARGE:  cpu time    0.1280: real time    0.1288
    --------------------------------------------
      LOOP:  cpu time    1.2599: real time    1.2674

 eigenvalue-minimisations  :     0
 total energy-change (2. order) :-0.1128261E-01  (-0.2730890E-02)
 number of electron      22.0000000 magnetization 
 augmentation part       -0.3730500 magnetization 

 Free energy of the ion-electron system (eV)
  ---------------------------------------------------
  alpha Z        PSCENC =        45.48040875
  Ewald energy   TEWEN  =      -553.38080797
  -Hartree energ DENC   =      -107.86087236
  -exchange      EXHF   =         0.00000000
  -V(xc)+E(xc)   XCENC  =        49.75597046
  PAW double counting   =      1903.98540646    -1896.20670133
  entropy T*S    EENTRO =        -0.00000003
  eigenvalues    EBANDS =       -21.12746436
  atomic energy  EATOM  =       530.08416407
  ---------------------------------------------------
  free energy    TOTEN  =       -49.26989693 eV

  energy without entropy =      -49.26989690  energy(sigma->0) =      -49.26989692


--------------------------------------------------------------------------------------------------------




--------------------------------------- Iteration      1(  12)  ---------------------------------------


    POTLOK:  cpu time    0.0391: real time    0.0393
    SETDIJ:  cpu time    0.1927: real time    0.1937
    TRIAL :  cpu time    0.4064: real time    0.4091
    CORREC:  cpu time    0.4894: real time    0.4922
    CHARGE:  cpu time    0.1318: real time    0.1327
    --------------------------------------------
      LOOP:  cpu time    1.2619: real time    1.2702

 eigenvalue-minimisations  :     0
 total energy-change (2. order) :-0.2725720E-02  (-0.4821783E-03)
 number of electron      22.0000000 magnetization 
 augmentation part       -0.3728550 magnetization 

 Free energy of the ion-electron system (eV)
  ---------------------------------------------------
  alpha Z        PSCENC =        45.48040875
  Ewald energy   TEWEN  =      -553.38080797
  -Hartree energ DENC   =      -108.00517367
  -exchange      EXHF   =         0.00000000
  -V(xc)+E(xc)   XCENC  =        49.76263715
  PAW double counting   =      1901.53829885    -1893.76143000
  entropy T*S    EENTRO =        -0.00000002
  eigenvalues    EBANDS =       -20.99071980
  atomic energy  EATOM  =       530.08416407
  ---------------------------------------------------
  free energy    TOTEN  =       -49.27262265 eV

  energy without entropy =      -49.27262264  energy(sigma->0) =      -49.27262265


--------------------------------------------------------------------------------------------------------




--------------------------------------- Iteration      1(  13)  ---------------------------------------


    POTLOK:  cpu time    0.0414: real time    0.0417
    SETDIJ:  cpu time    0.1953: real time    0.1963
    TRIAL :  cpu time    0.4391: real time    0.4417
    CORREC:  cpu time    0.5005: real time    0.5033
    CHARGE:  cpu time    0.1319: real time    0.1328
    --------------------------------------------
      LOOP:  cpu time    1.3106: real time    1.9918

 eigenvalue-minimisations  :     0
 total energy-change (2. order) :-0.4823599E-03  (-0.9001378E-04)
 number of electron      22.0000000 magnetization 
 augmentation part       -0.3727829 magnetization 

 Free energy of the ion-electron system (eV)
  ---------------------------------------------------
  alpha Z        PSCENC =        45.48040875
  Ewald energy   TEWEN  =      -553.38080797
  -Hartree energ DENC   =      -108.07552327
  -exchange      EXHF   =         0.00000000
  -V(xc)+E(xc)   XCENC  =        49.76543198
  PAW double counting   =      1900.72852108    -1892.95203996
  entropy T*S    EENTRO =        -0.00000002
  eigenvalues    EBANDS =       -20.92325967
  atomic energy  EATOM  =       530.08416407
  ---------------------------------------------------
  free energy    TOTEN  =       -49.27310501 eV

  energy without entropy =      -49.27310499  energy(sigma->0) =      -49.27310500


--------------------------------------------------------------------------------------------------------




--------------------------------------- Iteration      1(  14)  ---------------------------------------


    POTLOK:  cpu time    0.0398: real time    0.0400
    SETDIJ:  cpu time    0.1910: real time    0.1919
    TRIAL :  cpu time    0.4358: real time    0.4385
    CORREC:  cpu time    0.4851: real time    0.4878
    CHARGE:  cpu time    0.1306: real time    0.1315
    --------------------------------------------
      LOOP:  cpu time    1.2859: real time    1.2938

 eigenvalue-minimisations  :     0
 total energy-change (2. order) :-0.9071399E-04  (-0.2084160E-04)
 number of electron      22.0000000 magnetization 
 augmentation part       -0.3728264 magnetization 

 Free energy of the ion-electron system (eV)
  ---------------------------------------------------
  alpha Z        PSCENC =        45.48040875
  Ewald energy   TEWEN  =      -553.38080797
  -Hartree energ DENC   =      -108.03264485
  -exchange      EXHF   =         0.00000000
  -V(xc)+E(xc)   XCENC  =        49.76299152
  PAW double counting   =      1901.07281754    -1893.29567634
  entropy T*S    EENTRO =        -0.00000004
  eigenvalues    EBANDS =       -20.96444843
  atomic energy  EATOM  =       530.08416407
  ---------------------------------------------------
  free energy    TOTEN  =       -49.27319573 eV

  energy without entropy =      -49.27319569  energy(sigma->0) =      -49.27319571


--------------------------------------------------------------------------------------------------------




--------------------------------------- Iteration      1(  15)  ---------------------------------------


    POTLOK:  cpu time    0.0395: real time    0.0397
    SETDIJ:  cpu time    0.1942: real time    0.1951
    TRIAL :  cpu time    0.4060: real time    0.4085
    CORREC:  cpu time    0.4848: real time    0.4879
    CHARGE:  cpu time    0.1328: real time    0.1337
    --------------------------------------------
      LOOP:  cpu time    1.2601: real time    1.2681

 eigenvalue-minimisations  :     0
 total energy-change (2. order) :-0.2077325E-04  (-0.5180593E-05)
 number of electron      22.0000000 magnetization 
 augmentation part       -0.3728310 magnetization 

 Free energy of the ion-electron system (eV)
  ---------------------------------------------------
  alpha Z        PSCENC =        45.48040875
  Ewald energy   TEWEN  =      -553.38080797
  -Hartree energ DENC   =      -108.01609535
  -exchange      EXHF   =         0.00000000
  -V(xc)+E(xc)   XCENC  =        49.76256448
  PAW double counting   =      1901.20199917    -1893.42478402
  entropy T*S    EENTRO =        -0.00000004
  eigenvalues    EBANDS =       -20.98066558
  atomic energy  EATOM  =       530.08416407
  ---------------------------------------------------
  free energy    TOTEN  =       -49.27321650 eV

  energy without entropy =      -49.27321646  energy(sigma->0) =      -49.27321648


--------------------------------------------------------------------------------------------------------




--------------------------------------- Iteration      1(  16)  ---------------------------------------


    POTLOK:  cpu time    0.0425: real time    0.0427
    SETDIJ:  cpu time    0.1925: real time    0.1934
    TRIAL :  cpu time    0.4008: real time    0.4032
    CORREC:  cpu time    0.4881: real time    0.4908
    CHARGE:  cpu time    0.1296: real time    0.1305
    --------------------------------------------
      LOOP:  cpu time    1.2561: real time    1.2638

 eigenvalue-minimisations  :     0
 total energy-change (2. order) :-0.4926526E-05  (-0.9236510E-06)
 number of electron      22.0000000 magnetization 
 augmentation part       -0.3728300 magnetization 

 Free energy of the ion-electron system (eV)
  ---------------------------------------------------
  alpha Z        PSCENC =        45.48040875
  Ewald energy   TEWEN  =      -553.38080797
  -Hartree energ DENC   =      -108.02169261
  -exchange      EXHF   =         0.00000000
  -V(xc)+E(xc)   XCENC  =        49.76314100
  PAW double counting   =      1901.06528901    -1893.28829147
  entropy T*S    EENTRO =        -0.00000004
  eigenvalues    EBANDS =       -20.97543217
  atomic energy  EATOM  =       530.08416407
  ---------------------------------------------------
  free energy    TOTEN  =       -49.27322143 eV

  energy without entropy =      -49.27322138  energy(sigma->0) =      -49.27322141


--------------------------------------------------------------------------------------------------------




--------------------------------------- Iteration      1(  17)  ---------------------------------------


    POTLOK:  cpu time    0.0398: real time    0.0400
    SETDIJ:  cpu time    0.1978: real time    0.1988
    TRIAL :  cpu time    0.4344: real time    0.4369
    CORREC:  cpu time    0.4861: real time    0.4888
    CHARGE:  cpu time    0.1343: real time    0.1351
    --------------------------------------------
      LOOP:  cpu time    1.2974: real time    1.3055

 eigenvalue-minimisations  :     0
 total energy-change (2. order) :-0.9308103E-06  (-0.1808487E-06)
 number of electron      22.0000000 magnetization 
 augmentation part       -0.3728284 magnetization 

 Free energy of the ion-electron system (eV)
  ---------------------------------------------------
  alpha Z        PSCENC =        45.48040875
  Ewald energy   TEWEN  =      -553.38080797
  -Hartree energ DENC   =      -108.01775049
  -exchange      EXHF   =         0.00000000
  -V(xc)+E(xc)   XCENC  =        49.76288937
  PAW double counting   =      1901.01813645    -1893.24113839
  entropy T*S    EENTRO =        -0.00000004
  eigenvalues    EBANDS =       -20.97912410
  atomic energy  EATOM  =       530.08416407
  ---------------------------------------------------
  free energy    TOTEN  =       -49.27322236 eV

  energy without entropy =      -49.27322231  energy(sigma->0) =      -49.27322234


--------------------------------------------------------------------------------------------------------




--------------------------------------- Iteration      1(  18)  ---------------------------------------


    POTLOK:  cpu time    0.0386: real time    0.0387
    SETDIJ:  cpu time    0.1883: real time    0.1891
    TRIAL :  cpu time    0.4212: real time    0.4239
    CORREC:  cpu time    0.4771: real time    0.4798
    CHARGE:  cpu time    0.1291: real time    0.1300
    --------------------------------------------
      LOOP:  cpu time    1.2549: real time    1.2636

 eigenvalue-minimisations  :     0
 total energy-change (2. order) :-0.1827188E-06  (-0.5429215E-07)
 number of electron      22.0000000 magnetization 
 augmentation part       -0.3728280 magnetization 

 Free energy of the ion-electron system (eV)
  ---------------------------------------------------
  alpha Z        PSCENC =        45.48040875
  Ewald energy   TEWEN  =      -553.38080797
  -Hartree energ DENC   =      -108.01749495
  -exchange      EXHF   =         0.00000000
  -V(xc)+E(xc)   XCENC  =        49.76283853
  PAW double counting   =      1901.02878206    -1893.25176707
  entropy T*S    EENTRO =        -0.00000004
  eigenvalues    EBANDS =       -20.97934592
  atomic energy  EATOM  =       530.08416407
  ---------------------------------------------------
  free energy    TOTEN  =       -49.27322254 eV

  energy without entropy =      -49.27322250  energy(sigma->0) =      -49.27322252


--------------------------------------------------------------------------------------------------------




--------------------------------------- Iteration      1(  19)  ---------------------------------------


    POTLOK:  cpu time    0.0399: real time    0.0401
    SETDIJ:  cpu time    0.1973: real time    0.1982
    TRIAL :  cpu time    0.4205: real time    0.4230
    CORREC:  cpu time    0.4846: real time    0.4873
    CHARGE:  cpu time    0.1295: real time    0.1304
    --------------------------------------------
      LOOP:  cpu time    1.2742: real time    1.2822

 eigenvalue-minimisations  :     0
 total energy-change (2. order) :-0.5414927E-07  (-0.3251853E-07)
 number of electron      22.0000000 magnetization 
 augmentation part       -0.3728302 magnetization 

 Free energy of the ion-electron system (eV)
  ---------------------------------------------------
  alpha Z        PSCENC =        45.48040875
  Ewald energy   TEWEN  =      -553.38080797
  -Hartree energ DENC   =      -108.01846572
  -exchange      EXHF   =         0.00000000
  -V(xc)+E(xc)   XCENC  =        49.76287415
  PAW double counting   =      1901.04193546    -1893.26491466
  entropy T*S    EENTRO =        -0.00000004
  eigenvalues    EBANDS =       -20.97841664
  atomic energy  EATOM  =       530.08416407
  ---------------------------------------------------
  free energy    TOTEN  =       -49.27322260 eV

  energy without entropy =      -49.27322255  energy(sigma->0) =      -49.27322257


--------------------------------------------------------------------------------------------------------




--------------------------------------- Iteration      1(  20)  ---------------------------------------


    POTLOK:  cpu time    0.0391: real time    0.0393
    SETDIJ:  cpu time    0.1960: real time    0.1969
    TRIAL :  cpu time    0.4111: real time    0.4136
    CORREC:  cpu time    0.4745: real time    0.4771
    CHARGE:  cpu time    0.1313: real time    0.1322
    --------------------------------------------
      LOOP:  cpu time    1.2547: real time    1.2622

 eigenvalue-minimisations  :     0
 total energy-change (2. order) :-0.5838501E-08  (-0.1366788E-07)
 number of electron      22.0000000 magnetization 
 augmentation part       -0.3728294 magnetization 

 Free energy of the ion-electron system (eV)
  ---------------------------------------------------
  alpha Z        PSCENC =        45.48040875
  Ewald energy   TEWEN  =      -553.38080797
  -Hartree energ DENC   =      -108.01974312
  -exchange      EXHF   =         0.00000000
  -V(xc)+E(xc)   XCENC  =        49.76292599
  PAW double counting   =      1901.05399975    -1893.27697513
  entropy T*S    EENTRO =        -0.00000004
  eigenvalues    EBANDS =       -20.97719490
  atomic energy  EATOM  =       530.08416407
  ---------------------------------------------------
  free energy    TOTEN  =       -49.27322260 eV

  energy without entropy =      -49.27322256  energy(sigma->0) =      -49.27322258


--------------------------------------------------------------------------------------------------------




--------------------------------------- Iteration      1(  21)  ---------------------------------------


    POTLOK:  cpu time    0.0393: real time    0.0395
    SETDIJ:  cpu time    0.1956: real time    0.1965
    TRIAL :  cpu time    0.4085: real time    0.4110
    CORREC:  cpu time    0.4826: real time    0.4854
    CHARGE:  cpu time    0.1288: real time    0.1297
    --------------------------------------------
      LOOP:  cpu time    1.2590: real time    1.2664

 eigenvalue-minimisations  :     0
 total energy-change (2. order) :-0.1121543E-07  (-0.3361625E-08)
 number of electron      22.0000000 magnetization 
 augmentation part       -0.3728288 magnetization 

 Free energy of the ion-electron system (eV)
  ---------------------------------------------------
  alpha Z        PSCENC =        45.48040875
  Ewald energy   TEWEN  =      -553.38080797
  -Hartree energ DENC   =      -108.01924085
  -exchange      EXHF   =         0.00000000
  -V(xc)+E(xc)   XCENC  =        49.76289856
  PAW double counting   =      1901.04933227    -1893.27230692
  entropy T*S    EENTRO =        -0.00000004
  eigenvalues    EBANDS =       -20.97767048
  atomic energy  EATOM  =       530.08416407
  ---------------------------------------------------
  free energy    TOTEN  =       -49.27322261 eV

  energy without entropy =      -49.27322257  energy(sigma->0) =      -49.27322259


--------------------------------------------------------------------------------------------------------




--------------------------------------- Iteration      1(  22)  ---------------------------------------


    POTLOK:  cpu time    0.0404: real time    0.0406
    SETDIJ:  cpu time    0.1952: real time    0.1961
    TRIAL :  cpu time    0.4148: real time    0.4172
    CORREC:  cpu time    0.4710: real time    0.4736
    CHARGE:  cpu time    0.1283: real time    0.1292
    --------------------------------------------
      LOOP:  cpu time    1.2522: real time    1.2598

 eigenvalue-minimisations  :     0
 total energy-change (2. order) :-0.3034756E-08  ( 0.3052671E-08)
 number of electron      22.0000000 magnetization 
 augmentation part       -0.3728287 magnetization 

 Free energy of the ion-electron system (eV)
  ---------------------------------------------------
  alpha Z        PSCENC =        45.48040875
  Ewald energy   TEWEN  =      -553.38080797
  -Hartree energ DENC   =      -108.01907686
  -exchange      EXHF   =         0.00000000
  -V(xc)+E(xc)   XCENC  =        49.76289157
  PAW double counting   =      1901.04681036    -1893.26978598
  entropy T*S    EENTRO =        -0.00000004
  eigenvalues    EBANDS =       -20.97782651
  atomic energy  EATOM  =       530.08416407
  ---------------------------------------------------
  free energy    TOTEN  =       -49.27322262 eV

  energy without entropy =      -49.27322257  energy(sigma->0) =      -49.27322259


--------------------------------------------------------------------------------------------------------




--------------------------------------- Iteration      1(  23)  ---------------------------------------


    POTLOK:  cpu time    0.0398: real time    0.0400
    SETDIJ:  cpu time    0.1952: real time    0.1961
    TRIAL :  cpu time    0.4268: real time    0.4294
    CORREC:  cpu time    0.4688: real time    0.4714
    CHARGE:  cpu time    0.1322: real time    0.1330
    --------------------------------------------
      LOOP:  cpu time    1.2654: real time    1.2739

 eigenvalue-minimisations  :     0
 total energy-change (2. order) :-0.1774879E-08  ( 0.1519647E-09)
 number of electron      22.0000000 magnetization 
 augmentation part       -0.3728287 magnetization 

 Free energy of the ion-electron system (eV)
  ---------------------------------------------------
  alpha Z        PSCENC =        45.48040875
  Ewald energy   TEWEN  =      -553.38080797
  -Hartree energ DENC   =      -108.01908997
  -exchange      EXHF   =         0.00000000
  -V(xc)+E(xc)   XCENC  =        49.76289527
  PAW double counting   =      1901.04615561    -1893.26913263
  entropy T*S    EENTRO =        -0.00000004
  eigenvalues    EBANDS =       -20.97781570
  atomic energy  EATOM  =       530.08416407
  ---------------------------------------------------
  free energy    TOTEN  =       -49.27322262 eV

  energy without entropy =      -49.27322257  energy(sigma->0) =      -49.27322260


--------------------------------------------------------------------------------------------------------




--------------------------------------- Iteration      1(  24)  ---------------------------------------


    POTLOK:  cpu time    0.0406: real time    0.0408
    SETDIJ:  cpu time    0.1917: real time    0.1925
    TRIAL :  cpu time    0.4087: real time    0.4112
    CORREC:  cpu time    0.4614: real time    0.4641
    CHARGE:  cpu time    0.1294: real time    0.1303
    --------------------------------------------
      LOOP:  cpu time    1.2334: real time    1.2411

 eigenvalue-minimisations  :     0
 total energy-change (2. order) :-0.1319677E-08  ( 0.6565620E-11)
 number of electron      22.0000000 magnetization 
 augmentation part       -0.3728288 magnetization 

 Free energy of the ion-electron system (eV)
  ---------------------------------------------------
  alpha Z        PSCENC =        45.48040875
  Ewald energy   TEWEN  =      -553.38080797
  -Hartree energ DENC   =      -108.01902990
  -exchange      EXHF   =         0.00000000
  -V(xc)+E(xc)   XCENC  =        49.76289416
  PAW double counting   =      1901.04574402    -1893.26872153
  entropy T*S    EENTRO =        -0.00000004
  eigenvalues    EBANDS =       -20.97787417
  atomic energy  EATOM  =       530.08416407
  ---------------------------------------------------
  free energy    TOTEN  =       -49.27322262 eV

  energy without entropy =      -49.27322257  energy(sigma->0) =      -49.27322260


--------------------------------------------------------------------------------------------------------




--------------------------------------- Iteration      1(  25)  ---------------------------------------


    POTLOK:  cpu time    0.0402: real time    0.0405
    SETDIJ:  cpu time    0.1972: real time    0.1981
    TRIAL :  cpu time    0.4092: real time    0.4118
    CORREC:  cpu time    0.4566: real time    0.4591
    EDDIAG:  cpu time    0.1184: real time    0.1192
    CHARGE:  cpu time    0.1258: real time    0.1268
    --------------------------------------------
      LOOP:  cpu time    1.3502: real time    1.3586

 eigenvalue-minimisations  :     0
 total energy-change (2. order) :-0.2953584E-09  ( 0.7378006E-11)
 number of electron      22.0000000 magnetization 
 augmentation part       -0.3728288 magnetization 

 Free energy of the ion-electron system (eV)
  ---------------------------------------------------
  alpha Z        PSCENC =        45.48040875
  Ewald energy   TEWEN  =      -553.38080797
  -Hartree energ DENC   =      -108.01898261
  -exchange      EXHF   =         0.00000000
  -V(xc)+E(xc)   XCENC  =        49.76289216
  PAW double counting   =      1901.04566075    -1893.26863816
  entropy T*S    EENTRO =        -0.00000004
  eigenvalues    EBANDS =       -20.97791957
  atomic energy  EATOM  =       530.08416407
  ---------------------------------------------------
  free energy    TOTEN  =       -49.27322262 eV

  energy without entropy =      -49.27322257  energy(sigma->0) =      -49.27322260


--------------------------------------------------------------------------------------------------------


  average scaling for gradient   1.4713


 average (electrostatic) potential at core
  the test charge radii are     0.7672  0.9892
  (the norm of the test charge is              1.0000)
       1 -27.7566       2 -27.7566       3 -27.7566       4 -27.7566       5 -27.7566
       6 -27.7566       7 -89.7649
 
 
 
 E-fermi :   5.3405     XC(G=0): -11.1602     alpha+bet :-12.8249

 Fermi energy:         5.3405297921

 k-point     1 :       0.0000    0.0000    0.0000
  band No.  band energies     occupation 
      1     -10.5363      2.00000
      2      -4.1302      2.00000
      3      -2.2595      2.00000
      4      -2.2595      2.00000
      5      -2.2595      2.00000
      6      -0.5398      2.00000
      7      -0.5398      2.00000
      8       1.3805      2.00000
      9       5.0550      2.00000
     10       5.0550      2.00000
     11       5.0550      2.00000
     12       6.4849      0.00000
     13       6.4849      0.00000
     14       6.4849      0.00000
     15       8.2332      0.00000
     16       8.2332      0.00000
     17       8.2332      0.00000
     18      12.0954      0.00000

 k-point     2 :       0.1111    0.0000    0.0000
  band No.  band energies     occupation 
      1     -10.4862      2.00000
      2      -4.3968      2.00000
      3      -2.4119      2.00000
      4      -2.1877      2.00000
      5      -2.1877      2.00000
      6      -0.5076      2.00000
      7       0.0557      2.00000
      8       1.2025      2.00000
      9       4.3871      2.00000
     10       4.3871      2.00000
     11       5.0809      2.00000
     12       6.5597      0.00000
     13       6.8093      0.00000
     14       6.8093      0.00000
     15       7.8529      0.00000
     16       8.6817      0.00000
     17       8.6817      0.00000
     18      12.3250      0.00000

 k-point     3 :       0.2222    0.0000    0.0000
  band No.  band energies     occupation 
      1     -10.3493      2.00000
      2      -5.0310      2.00000
      3      -2.4285      2.00000
      4      -1.9854      2.00000
      5      -1.9854      2.00000
      6      -0.4227      2.00000
      7       0.7492      2.00000
      8       1.2104      2.00000
      9       3.3188      2.00000
     10       3.3188      2.00000
     11       5.1484      2.00000
     12       6.7247      0.00000
     13       7.1254      0.00000
     14       7.1829      0.00000
     15       7.1829      0.00000
     16       9.5260      0.00000
     17       9.5260      0.00000
     18      12.8862      0.00000

 k-point     4 :       0.3333    0.0000    0.0000
  band No.  band energies     occupation 
      1     -10.1711      2.00000
      2      -5.6729      2.00000
      3      -2.2462      2.00000
      4      -1.7032      2.00000
      5      -1.7032      2.00000
      6      -0.3195      2.00000
      7       0.2233      2.00000
      8       2.3573      2.00000
      9       2.3859      2.00000
     10       2.3859      2.00000
     11       5.2284      2.00000
     12       6.4882      0.00000
     13       6.8737      0.00000
     14       7.5335      0.00000
     15       7.5335      0.00000
     16       9.9137      0.00000
     17       9.9137      0.00000
     18      13.2584      0.00000

 k-point     5 :       0.4444    0.0000    0.0000
  band No.  band energies     occupation 
      1     -10.0371      2.00000
      2      -6.0657      2.00000
      3      -2.0428      2.00000
      4      -1.4685      2.00000
      5      -1.4685      2.00000
      6      -0.2477      2.00000
      7      -0.1669      2.00000
      8       1.8124      2.00000
      9       1.8124      2.00000
     10       3.1209      2.00000
     11       5.2827      1.99996
     12       6.1289      0.00000
     13       6.9434      0.00000
     14       7.8088      0.00000
     15       7.8088      0.00000
     16       9.8267      0.00000
     17       9.8267      0.00000
     18      13.0669      0.00000

 k-point     6 :       0.1111    0.1111    0.0000
  band No.  band energies     occupation 
      1     -10.4371      2.00000
      2      -4.5365      2.00000
      3      -2.8783      2.00000
      4      -2.1162      2.00000
      5      -1.8874      2.00000
      6      -0.1207      2.00000
      7       0.2528      2.00000
      8       0.9916      2.00000
      9       4.0001      2.00000
     10       4.3656      2.00000
     11       4.5108      2.00000
     12       6.3688      0.00000
     13       7.1331      0.00000
     14       7.1520      0.00000
     15       8.2321      0.00000
     16       8.3657      0.00000
     17       9.0615      0.00000
     18      12.7041      0.00000

 k-point     7 :       0.2222    0.1111    0.0000
  band No.  band energies     occupation 
      1     -10.3030      2.00000
      2      -5.0134      2.00000
      3      -3.0893      2.00000
      4      -1.9146      2.00000
      5      -1.6423      2.00000
      6       0.0930      2.00000
      7       0.4625      2.00000
      8       1.2599      2.00000
      9       3.2267      2.00000
     10       3.3774      2.00000
     11       4.5703      2.00000
     12       6.3549      0.00000
     13       7.4094      0.00000
     14       7.4544      0.00000
     15       7.5706      0.00000
     16       9.2081      0.00000
     17       9.8739      0.00000
     18      13.1825      0.00000

 k-point     8 :       0.3333    0.1111    0.0000
  band No.  band energies     occupation 
      1     -10.1294      2.00000
      2      -5.5996      2.00000
      3      -2.9474      2.00000
      4      -1.6337      2.00000
      5      -1.4011      2.00000
      6      -0.1589      2.00000
      7       0.2371      2.00000
      8       2.3322      2.00000
      9       2.4528      2.00000
     10       2.5418      2.00000
     11       4.7255      2.00000
     12       6.4825      0.00000
     13       6.9393      0.00000
     14       7.5174      0.00000
     15       7.5961      0.00000
     16       9.8563      0.00000
     17      10.3428      0.00000
     18      13.4502      0.00000

 k-point     9 :       0.4444    0.1111    0.0000
  band No.  band energies     occupation 
      1      -9.9993      2.00000
      2      -5.9753      2.00000
      3      -2.7370      2.00000
      4      -1.4003      2.00000
      5      -1.2202      2.00000
      6      -0.6167      2.00000
      7       0.3470      2.00000
      8       1.8830      2.00000
      9       2.0041      2.00000
     10       3.1552      2.00000
     11       4.8392      2.00000
     12       6.5274      0.00000
     13       6.6636      0.00000
     14       7.5452      0.00000
     15       7.6191      0.00000
     16      10.0487      0.00000
     17      10.4018      0.00000
     18      13.2021      0.00000

 k-point    10 :       0.2222    0.2222    0.0000
  band No.  band energies     occupation 
      1     -10.1776      2.00000
      2      -5.0730      2.00000
      3      -3.7290      2.00000
      4      -1.7153      2.00000
      5      -1.4048      2.00000
      6      -0.2226      2.00000
[...]
      6      -1.0661      2.00000
      7       1.5026      2.00000
      8       2.0817      2.00000
      9       2.3506      2.00000
     10       3.2288      2.00000
     11       3.9537      2.00000
     12       6.0665      0.00000
     13       6.7375      0.00000
     14       6.8858      0.00000
     15       8.0218      0.00000
     16      10.4834      0.00000
     17      11.7543      0.00000
     18      13.4362      0.00000

 k-point    13 :       0.3333    0.3333    0.0000
  band No.  band energies     occupation 
      1      -9.8749      2.00000
      2      -5.2198      2.00000
      3      -4.3531      2.00000
      4      -1.8825      2.00000
      5      -1.1672      2.00000
      6      -1.0455      2.00000
      7       2.3317      2.00000
      8       2.7062      2.00000
      9       2.7740      2.00000
     10       2.8533      2.00000
     11       2.9505      2.00000
     12       5.6024      0.00000
     13       6.5753      0.00000
     14       6.5870      0.00000
     15       9.6500      0.00000
     16       9.6625      0.00000
     17      12.7557      0.00000
     18      13.6209      0.00000

 k-point    14 :       0.4444    0.3333    0.0000
  band No.  band energies     occupation 
      1      -9.7718      2.00000
      2      -5.2936      2.00000
      3      -4.3254      2.00000
      4      -2.5155      2.00000
      5      -0.9562      2.00000
      6      -0.9442      2.00000
      7       2.3571      2.00000
      8       2.6040      2.00000
      9       2.7310      2.00000
     10       3.1126      2.00000
     11       3.3023      2.00000
     12       5.5962      0.00000
     13       6.0762      0.00000
     14       6.1650      0.00000
     15       9.5539      0.00000
     16      10.8462      0.00000
     17      13.0974      0.00000
     18      13.3741      0.00000

 k-point    15 :       0.4444    0.4444    0.0000
  band No.  band energies     occupation 
      1      -9.6812      2.00000
      2      -4.8687      2.00000
      3      -4.6756      2.00000
      4      -3.2734      2.00000
      5      -0.8862      2.00000
      6      -0.7276      2.00000
      7       2.5772      2.00000
      8       2.5933      2.00000
      9       2.9761      2.00000
     10       3.3270      2.00000
     11       3.3606      2.00000
     12       5.4006      0.00002
     13       5.5542      0.00000
     14       5.6823      0.00000
     15      11.0497      0.00000
     16      11.0820      0.00000
     17      12.4423      0.00000
     18      13.4477      0.00000

 k-point    16 :       0.1111    0.1111    0.1111
  band No.  band energies     occupation 
      1     -10.3889      2.00000
      2      -4.6242      2.00000
      3      -2.8111      2.00000
      4      -2.8111      2.00000
      5      -1.2671      2.00000
      6       0.2869      2.00000
      7       0.2869      2.00000
      8       0.7837      2.00000
      9       3.8759      2.00000
     10       3.8759      2.00000
     11       4.2925      2.00000
     12       6.7784      0.00000
     13       6.7784      0.00000
     14       7.4458      0.00000
     15       8.5310      0.00000
     16       8.7458      0.00000
     17       8.7458      0.00000
     18      13.2127      0.00000

 k-point    17 :       0.2222    0.1111    0.1111
  band No.  band energies     occupation 
      1     -10.2577      2.00000
      2      -4.9931      2.00000
      3      -3.1799      2.00000
      4      -2.6230      2.00000
      5      -0.8611      2.00000
      6       0.2506      2.00000
      7       0.3788      2.00000
      8       1.3063      2.00000
      9       2.8310      2.00000
     10       3.5463      2.00000
     11       4.1602      2.00000
     12       6.6575      0.00000
     13       7.2555      0.00000
     14       7.4018      0.00000
     15       7.9374      0.00000
     16       9.4616      0.00000
     17       9.6347      0.00000
     18      13.4745      0.00000

 k-point    18 :       0.3333    0.1111    0.1111
  band No.  band energies     occupation 
      1     -10.0883      2.00000
      2      -5.5265      2.00000
      3      -3.0979      2.00000
      4      -2.3659      2.00000
      5      -0.5655      2.00000
      6      -0.3813      2.00000
      7       0.4997      2.00000
      8       1.9131      2.00000
      9       2.3883      2.00000
     10       3.0640      2.00000
     11       4.2108      2.00000
     12       6.6851      0.00000
     13       7.1417      0.00000
     14       7.2675      0.00000
     15       7.6787      0.00000
     16       9.9997      0.00000
     17      10.4911      0.00000
     18      13.7307      0.00000

 k-point    19 :       0.4444    0.1111    0.1111
  band No.  band energies     occupation 
      1      -9.9621      2.00000
      2      -5.8855      2.00000
      3      -2.8960      2.00000
      4      -2.1589      2.00000
      5      -0.8602      2.00000
      6      -0.3494      2.00000
      7       0.6078      2.00000
      8       1.3343      2.00000
      9       2.6058      2.00000
     10       3.2168      2.00000
     11       4.3119      2.00000
     12       6.7508      0.00000
     13       6.8826      0.00000
     14       6.9226      0.00000
     15       7.9437      0.00000
     16      10.0088      0.00000
     17      10.9327      0.00000
     18      13.3449      0.00000

 k-point    20 :       0.2222    0.2222    0.1111
  band No.  band energies     occupation 
      1     -10.1350      2.00000
      2      -5.0343      2.00000
      3      -3.6618      2.00000
      4      -2.6643      2.00000
      5      -0.4058      2.00000
      6      -0.3016      2.00000
      7       1.1255      2.00000
      8       1.5715      2.00000
      9       2.4321      2.00000
     10       3.0432      2.00000
     11       3.9760      2.00000
     12       6.5590      0.00000
     13       6.9832      0.00000
     14       7.5510      0.00000
     15       8.8495      0.00000
     16       8.9518      0.00000
     17      10.4106      0.00000
     18      13.8594      0.00000

 k-point    21 :       0.3333    0.2222    0.1111
  band No.  band energies     occupation 
      1      -9.9781      2.00000
      2      -5.3299      2.00000
      3      -3.7671      2.00000
      4      -2.4439      2.00000
      5      -1.0430      2.00000
      6      -0.0981      2.00000
      7       1.3678      2.00000
      8       1.7904      2.00000
      9       2.4279      2.00000
     10       3.0117      2.00000
     11       3.7150      2.00000
     12       6.3850      0.00000
     13       6.5860      0.00000
     14       7.6583      0.00000
     15       8.4325      0.00000
     16       9.9275      0.00000
     17      11.2964      0.00000
     18      14.0406      0.00000

 k-point    22 :       0.4444    0.2222    0.1111
  band No.  band energies     occupation 
      1      -9.8626      2.00000
      2      -5.6218      2.00000
      3      -3.5941      2.00000
      4      -2.2496      2.00000
      5      -1.5709      2.00000
      6       0.0768      2.00000
      7       1.1745      2.00000
      8       1.5839      2.00000
      9       2.8749      2.00000
     10       3.3710      2.00000
     11       3.4589      2.00000
     12       6.0854      0.00000
     13       6.6059      0.00000
     14       7.5090      0.00000
     15       8.2975      0.00000
     16      10.4151      0.00000
     17      11.8727      0.00000
     18      13.5397      0.00000

 k-point    23 :       0.3333    0.3333    0.1111
  band No.  band energies     occupation 
      1      -9.8391      2.00000
      2      -5.1443      2.00000
      3      -4.2849      2.00000
      4      -2.2605      2.00000
      5      -1.8435      2.00000
      6       0.1351      2.00000
      7       1.7041      2.00000
      8       2.2210      2.00000
      9       2.4225      2.00000
     10       2.8888      2.00000
     11       3.5499      2.00000
     12       5.9593      0.00000
     13       6.2238      0.00000
     14       7.4393      0.00000
     15       9.7808      0.00000
     16       9.7956      0.00000
     17      12.3882      0.00000
     18      13.6190      0.00000

 k-point    24 :       0.4444    0.3333    0.1111
  band No.  band energies     occupation 
      1      -9.7385      2.00000
      2      -5.2103      2.00000
      3      -4.2624      2.00000
      4      -2.4655      2.00000
      5      -2.0835      2.00000
      6       0.2933      2.00000
      7       1.4268      2.00000
      8       2.3366      2.00000
      9       2.7245      2.00000
     10       3.0725      2.00000
     11       3.4919      2.00000
     12       5.6922      0.00000
     13       6.2271      0.00000
     14       7.0873      0.00000
     15       9.7023      0.00000
     16      10.8670      0.00000
     17      12.9207      0.00000
     18      13.2846      0.00000

 k-point    25 :       0.4444    0.4444    0.1111
  band No.  band energies     occupation 
      1      -9.6499      2.00000
      2      -4.7934      2.00000
      3      -4.6067      2.00000
      4      -3.1914      2.00000
      5      -1.9423      2.00000
      6       0.4504      2.00000
      7       1.7790      2.00000
      8       1.9353      2.00000
      9       2.6474      2.00000
     10       3.4816      2.00000
     11       3.5038      2.00000
     12       5.7760      0.00000
     13       6.0191      0.00000
     14       6.5174      0.00000
     15      11.1140      0.00000
     16      11.1395      0.00000
     17      12.4089      0.00000
     18      13.4043      0.00000

 k-point    26 :       0.2222    0.2222    0.2222
  band No.  band energies     occupation 
      1     -10.0198      2.00000
      2      -4.9861      2.00000
      3      -3.4739      2.00000
      4      -3.4739      2.00000
      5      -0.7058      2.00000
      6       0.5261      2.00000
      7       1.5305      2.00000
      8       1.5305      2.00000
      9       2.1418      2.00000
     10       2.1418      2.00000
     11       4.1687      2.00000
     12       6.4846      0.00000
     13       7.3461      0.00000
     14       7.3461      0.00000
     15       9.4177      0.00000
     16       9.8416      0.00000
     17       9.8416      0.00000
     18      14.1348      0.00000

 k-point    27 :       0.3333    0.2222    0.2222
  band No.  band energies     occupation 
      1      -9.8740      2.00000
      2      -5.1331      2.00000
      3      -3.7473      2.00000
      4      -3.2163      2.00000
      5      -1.2965      2.00000
      6       0.9203      2.00000
      7       0.9758      2.00000
      8       1.8970      2.00000
      9       1.9102      2.00000
     10       2.7338      2.00000
     11       3.8019      2.00000
     12       6.1364      0.00000
     13       7.2149      0.00000
     14       7.8133      0.00000
     15       9.1637      0.00000
     16      10.3270      0.00000
     17      11.0837      0.00000
     18      13.7767      0.00000

 k-point    28 :       0.4444    0.2222    0.2222
  band No.  band energies     occupation 
      1      -9.7678      2.00000
      2      -5.3649      2.00000
      3      -3.6252      2.00000
      4      -3.0079      2.00000
      5      -1.7885      2.00000
      6       0.4713      2.00000
      7       1.0689      2.00000
      8       1.9259      2.00000
      9       2.3407      2.00000
     10       2.9809      2.00000
     11       3.6060      2.00000
     12       5.9344      0.00000
     13       7.1896      0.00000
     14       7.9703      0.00000
     15       8.9931      0.00000
     16      10.5739      0.00000
     17      12.1685      0.00000
     18      13.4143      0.00000

 k-point    29 :       0.3333    0.3333    0.2222
  band No.  band energies     occupation 
      1      -9.7438      2.00000
      2      -4.9329      2.00000
      3      -4.0935      2.00000
      4      -3.1989      2.00000
      5      -1.8401      2.00000
      6       0.7099      2.00000
      7       1.2284      2.00000
      8       1.4400      2.00000
      9       2.5225      2.00000
     10       2.9468      2.00000
     11       3.3200      2.00000
     12       6.2370      0.00000
     13       7.2721      0.00000
     14       7.9566      0.00000
     15      10.2107      0.00000
     16      10.3416      0.00000
     17      11.7964      0.00000
     18      13.3625      0.00000

 k-point    30 :       0.4444    0.3333    0.2222
  band No.  band energies     occupation 
      1      -9.6503      2.00000
      2      -4.9688      2.00000
      3      -4.0919      2.00000
      4      -3.0244      2.00000
      5      -2.3561      2.00000
      6       0.3864      2.00000
      7       1.1909      2.00000
      8       1.7553      2.00000
      9       2.3727      2.00000
     10       2.9138      2.00000
     11       3.5955      2.00000
     12       6.3163      0.00000
     13       7.2518      0.00000
     14       7.9276      0.00000
     15      10.1913      0.00000
     16      11.0468      0.00000
     17      12.6242      0.00000
     18      13.0648      0.00000

 k-point    31 :       0.4444    0.4444    0.2222
  band No.  band energies     occupation 
      1      -9.5667      2.00000
      2      -4.5791      2.00000
      3      -4.4130      2.00000
      4      -2.9599      2.00000
      5      -2.8798      2.00000
      6       0.6626      2.00000
      7       0.8925      2.00000
      8       1.6208      2.00000
      9       1.8435      2.00000
     10       3.5960      2.00000
     11       3.6275      2.00000
     12       6.7740      0.00000
     13       7.1625      0.00000
     14       7.5628      0.00000
     15      11.3656      0.00000
     16      11.3863      0.00000
     17      12.2602      0.00000
     18      13.2953      0.00000

 k-point    32 :       0.3333    0.3333    0.3333
  band No.  band energies     occupation 
      1      -9.6256      2.00000
      2      -4.6682      2.00000
      3      -3.8297      2.00000
      4      -3.8297      2.00000
      5      -2.0356      2.00000
      6       0.3369      2.00000
      7       0.3369      2.00000
      8       1.8757      2.00000
      9       2.8232      2.00000
     10       3.0293      2.00000
     11       3.0293      2.00000
     12       6.7989      0.00000
     13       8.0091      0.00000
     14       8.0091      0.00000
     15      10.8691      0.00000
     16      11.4426      0.00000
     17      11.4426      0.00000
     18      12.8652      0.00000

 k-point    33 :       0.4444    0.3333    0.3333
  band No.  band energies     occupation 
      1      -9.5415      2.00000
      2      -4.6063      2.00000
      3      -3.9477      2.00000
      4      -3.6143      2.00000
      5      -2.3783      2.00000
      6      -0.2081      2.00000
      7       0.4495      2.00000
      8       1.4256      2.00000
      9       2.7829      2.00000
     10       3.0869      2.00000
     11       3.6616      2.00000
     12       7.1269      0.00000
     13       7.9066      0.00000
     14       8.3033      0.00000
     15      11.0935      0.00000
     16      11.5803      0.00000
     17      12.3133      0.00000
     18      12.8705      0.00000

 k-point    34 :       0.4444    0.4444    0.3333
  band No.  band energies     occupation 
      1      -9.4647      2.00000
      2      -4.2741      2.00000
      3      -4.1451      2.00000
      4      -3.5672      2.00000
      5      -2.6315      2.00000
      6      -0.2031      2.00000
      7      -0.0157      2.00000
      8       0.6563      2.00000
      9       2.9734      2.00000
     10       3.6903      2.00000
     11       3.7257      2.00000
     12       7.7015      0.00000
     13       8.0782      0.00000
     14       8.2727      0.00000
     15      11.8612      0.00000
     16      11.9716      0.00000
     17      12.1084      0.00000
     18      13.2245      0.00000

 k-point    35 :       0.4444    0.4444    0.4444
  band No.  band energies     occupation 
      1      -9.3930      2.00000
      2      -4.0183      2.00000
      3      -3.9252      2.00000
      4      -3.9252      2.00000
      5      -2.3825      2.00000
      6      -0.5693      2.00000
      7      -0.5693      2.00000
      8      -0.1508      2.00000
      9       3.7117      2.00000
     10       3.7867      2.00000
     11       3.7867      2.00000
     12       8.2648      0.00000
     13       8.4823      0.00000
     14       8.4823      0.00000
     15      11.4947      0.00000
     16      12.8082      0.00000
     17      13.1763      0.00000
     18      13.1764      0.00000


--------------------------------------------------------------------------------------------------------


 soft charge-density along one line, spin component           1
         0         1         2         3         4         5         6         7         8         9
 total charge-density along one line
 
 pseudopotential strength for first ion, spin component:           1
  6.164   9.353   0.000   0.000  -0.009   0.000   0.000  -0.016
  9.353  14.185   0.000   0.000  -0.014   0.000   0.000  -0.025
  0.000   0.000  -2.042  -0.000   0.000  -3.431  -0.000   0.000
  0.000   0.000  -0.000  -2.042  -0.000  -0.000  -3.431  -0.000
 -0.009  -0.014   0.000  -0.000  -2.071   0.000  -0.000  -3.485
  0.000   0.000  -3.431  -0.000   0.000  -5.555  -0.000   0.000
  0.000   0.000  -0.000  -3.431  -0.000  -0.000  -5.555  -0.000
 -0.016  -0.025   0.000  -0.000  -3.485   0.000  -0.000  -5.652
 total augmentation occupancy for first ion, spin component:           1
  3.907  -1.090   0.000   0.000  -0.432   0.000   0.000   0.217
 -1.090   0.327   0.000   0.000   0.268   0.000   0.000  -0.108
 -0.000   0.000   2.764   0.000   0.000  -0.752   0.000   0.000
  0.000  -0.000   0.000   2.764  -0.000  -0.000  -0.752   0.000
 -0.432   0.268   0.000  -0.000   4.424   0.000   0.000  -1.260
  0.000   0.000  -0.752   0.000  -0.000   0.209   0.000  -0.000
  0.000  -0.000  -0.000  -0.752   0.000  -0.000   0.209   0.000
  0.217  -0.108   0.000   0.000  -1.260  -0.000   0.000   0.372


------------------------ aborting loop because EDIFF is reached ----------------------------------------




--------------------------------------------------------------------------------------------------------



  FREE ENERGIE OF THE ION-ELECTRON SYSTEM (eV)
  ---------------------------------------------------
  free  energy   TOTEN  =       -49.27322262 eV

  energy  without entropy=      -49.27322257  energy(sigma->0) =      -49.27322260
 


--------------------------------------------------------------------------------------------------------


    POTLOK:  cpu time    0.2486: real time    0.2517


--------------------------------------------------------------------------------------------------------


 writing wavefunctions
     LOOP+:  cpu time   29.0824: real time   29.9695
    4ORBIT:  cpu time    0.0000: real time    0.0000

 total amount of memory used by VASP MPI-rank0    50812. kBytes
=======================================================================

   base      :      30000. kBytes
   nonl-proj :       5537. kBytes
   fftplans  :       5284. kBytes
   grid      :       3721. kBytes
   one-center:         12. kBytes
   wavefun   :       6258. kBytes
 
  
  
 General timing and accounting informations for this job:
 ========================================================
  
                  Total CPU time used (sec):       30.497
                            User time (sec):       29.583
                          System time (sec):        0.914
                         Elapsed time (sec):       32.291
  
                   Maximum memory used (kb):      172508.
                   Average memory used (kb):          N/A
  
                          Minor page faults:        90057
                          Major page faults:           50
                 Voluntary context switches:         1035
