<?xml version="1.0" encoding="ISO-8859-1"?>
<modeling>
 <generator>
  <i name="program" type="string">vasp </i>
  <i name="version" type="string">6.2.0  </i>
  <i name="subversion" type="string">18Jan21 (build Jan 05 2022 15:41:44) complex                          parallel </i>
  <i name="platform" type="string">LinuxIFC </i>
  <i name="date" type="string">2025 05 07 </i>
  <i name="time" type="string">15:56:31 </i>
 </generator>
 <incar>
  <i type="string" name="SYSTEM">routine with relax: pwdword</i>
  <i type="string" name="PREC">Acc</i>
  <i type="int" name="IALGO">    38</i>
  <i type="string" name="ALGO">A</i>
  <i type="logical" name="ADDGRID"> T  </i>
  <i type="int" name="ICHARG">     2</i>
  <i type="int" name="NELM">   100</i>
  <i type="int" name="NELMIN">     6</i>
  <i name="EDIFF">      0.00000000</i>
  <i type="int" name="NSW">     0</i>
  <i type="int" name="ISIF">    -1</i>
  <i name="ENCUT">    600.00000000</i>
  <i type="logical" name="LREAL"> F  </i>
  <i type="int" name="ISMEAR">     0</i>
  <i name="SIGMA">      0.02000000</i>
  <i type="logical" name="LASPH"> T  </i>
  <i type="string" name="METAGGA">R2SCAN</i>
  <i type="logical" name="LMIXTAU"> F  </i>
 </incar>
 <primitive_cell>
  <structure name="primitive_cell" >
   <crystal>
    <varray name="basis" >
     <v>      -3.69724053       2.56083230      -0.00000000 </v>
     <v>       1.77371800       2.56083230       3.24402791 </v>
     <v>       1.77371800       2.56083230      -2.99129209 </v>
    </varray>
    <i name="volume">     87.35812574 </i>
    <varray name="rec_basis" >
     <v>      -0.18278333       0.12660184       0.00000000 </v>
     <v>       0.08768729       0.12659986       0.16037669 </v>
     <v>       0.09509604       0.13729635      -0.16037669 </v>
    </varray>
   </crystal>
   <varray name="positions" >
    <v>       0.00000000       0.50000000       0.50000000 </v>
    <v>       0.50000000       0.00000000       0.50000000 </v>
    <v>       0.50000000       0.50000000       0.50000000 </v>
    <v>       0.00000000       0.00000000       0.50000000 </v>
    <v>       0.50000000       0.50000000       0.00000000 </v>
   </varray>
  </structure>
  <varray name="primitive_index" >
   <v type="int" >        1 </v>
   <v type="int" >        2 </v>
   <v type="int" >        5 </v>
   <v type="int" >        6 </v>
   <v type="int" >        9 </v>
  </varray>
 </primitive_cell>
 <kpoints>
  <generation param="Gamma">
   <v type="int" name="divisions">       7        7        8 </v>
   <v name="usershift">      0.00000000       0.00000000       0.00000000 </v>
   <v name="genvec1">      0.14285714       0.00000000       0.00000000 </v>
   <v name="genvec2">      0.00000000       0.14285714       0.00000000 </v>
   <v name="genvec3">     -0.00000000       0.00000000       0.12500000 </v>
   <v name="shift">      0.00000000       0.00000000       0.00000000 </v>
  </generation>
  <varray name="kpointlist" >
   <v>       0.00000000       0.00000000       0.00000000 </v>
   <v>       0.14285714       0.00000000       0.00000000 </v>
   <v>       0.28571429       0.00000000       0.00000000 </v>
   <v>       0.42857143       0.00000000       0.00000000 </v>
   <v>       0.14285714       0.14285714       0.00000000 </v>
   <v>       0.28571429       0.14285714       0.00000000 </v>
   <v>       0.42857143       0.14285714       0.00000000 </v>
   <v>      -0.42857143       0.14285714       0.00000000 </v>
   <v>      -0.28571429       0.14285714       0.00000000 </v>
   <v>      -0.14285714       0.14285714       0.00000000 </v>
   <v>       0.28571429       0.28571429       0.00000000 </v>
   <v>       0.42857143       0.28571429       0.00000000 </v>
   <v>      -0.42857143       0.28571429       0.00000000 </v>
   <v>      -0.28571429       0.28571429       0.00000000 </v>
   <v>       0.42857143       0.42857143       0.00000000 </v>
   <v>      -0.42857143       0.42857143       0.00000000 </v>
   <v>       0.00000000       0.00000000       0.12500000 </v>
   <v>       0.14285714       0.00000000       0.12500000 </v>
   <v>       0.28571429      -0.00000000       0.12500000 </v>
   <v>       0.42857143      -0.00000000       0.12500000 </v>
   <v>      -0.42857143      -0.00000000       0.12500000 </v>
   <v>      -0.28571429      -0.00000000       0.12500000 </v>
   <v>      -0.14285714       0.00000000       0.12500000 </v>
   <v>       0.14285714       0.14285714       0.12500000 </v>
   <v>       0.28571429       0.14285714       0.12500000 </v>
   <v>       0.42857143       0.14285714       0.12500000 </v>
   <v>      -0.42857143       0.14285714       0.12500000 </v>
   <v>      -0.28571429       0.14285714       0.12500000 </v>
   <v>      -0.14285714       0.14285714       0.12500000 </v>
   <v>       0.28571429       0.28571429       0.12500000 </v>
   <v>       0.42857143       0.28571429       0.12500000 </v>
   <v>      -0.42857143       0.28571429       0.12500000 </v>
   <v>      -0.28571429       0.28571429       0.12500000 </v>
   <v>      -0.14285714       0.28571429       0.12500000 </v>
   <v>       0.42857143       0.42857143       0.12500000 </v>
   <v>      -0.42857143       0.42857143       0.12500000 </v>
   <v>      -0.28571429       0.42857143       0.12500000 </v>
   <v>      -0.14285714       0.42857143       0.12500000 </v>
   <v>      -0.42857143      -0.42857143       0.12500000 </v>
   <v>      -0.28571429      -0.42857143       0.12500000 </v>
   <v>      -0.14285714      -0.42857143       0.12500000 </v>
   <v>      -0.28571429      -0.28571429       0.12500000 </v>
   <v>      -0.14285714      -0.28571429       0.12500000 </v>
   <v>      -0.14285714      -0.14285714       0.12500000 </v>
   <v>       0.00000000       0.00000000       0.25000000 </v>
   <v>       0.14285714       0.00000000       0.25000000 </v>
   <v>       0.28571429      -0.00000000       0.25000000 </v>
   <v>       0.42857143       0.00000000       0.25000000 </v>
   <v>      -0.42857143       0.00000000       0.25000000 </v>
   <v>      -0.28571429       0.00000000       0.25000000 </v>
   <v>      -0.14285714       0.00000000       0.25000000 </v>
   <v>       0.14285714       0.14285714       0.25000000 </v>
   <v>       0.28571429       0.14285714       0.25000000 </v>
   <v>       0.42857143       0.14285714       0.25000000 </v>
   <v>      -0.42857143       0.14285714       0.25000000 </v>
   <v>      -0.28571429       0.14285714       0.25000000 </v>
   <v>      -0.14285714       0.14285714       0.25000000 </v>
   <v>       0.28571429       0.28571429       0.25000000 </v>
   <v>       0.42857143       0.28571429       0.25000000 </v>
   <v>      -0.42857143       0.28571429       0.25000000 </v>
   <v>      -0.28571429       0.28571429       0.25000000 </v>
   <v>      -0.14285714       0.28571429       0.25000000 </v>
   <v>       0.42857143       0.42857143       0.25000000 </v>
   <v>      -0.42857143       0.42857143       0.25000000 </v>
   <v>      -0.28571429       0.42857143       0.25000000 </v>
   <v>      -0.14285714       0.42857143       0.25000000 </v>
   <v>      -0.42857143      -0.42857143       0.25000000 </v>
   <v>      -0.28571429      -0.42857143       0.25000000 </v>
   <v>      -0.14285714      -0.42857143       0.25000000 </v>
   <v>      -0.28571429      -0.28571429       0.25000000 </v>
   <v>      -0.14285714      -0.28571429       0.25000000 </v>
   <v>      -0.14285714      -0.14285714       0.25000000 </v>
   <v>      -0.00000000       0.00000000       0.37500000 </v>
   <v>       0.14285714       0.00000000       0.37500000 </v>
   <v>       0.28571429       0.00000000       0.37500000 </v>
   <v>       0.42857143       0.00000000       0.37500000 </v>
   <v>      -0.42857143       0.00000000       0.37500000 </v>
   <v>      -0.28571429       0.00000000       0.37500000 </v>
   <v>      -0.14285714       0.00000000       0.37500000 </v>
   <v>       0.14285714       0.14285714       0.37500000 </v>
   <v>       0.28571429       0.14285714       0.37500000 </v>
   <v>       0.42857143       0.14285714       0.37500000 </v>
   <v>      -0.42857143       0.14285714       0.37500000 </v>
   <v>      -0.28571429       0.14285714       0.37500000 </v>
   <v>      -0.14285714       0.14285714       0.37500000 </v>
   <v>       0.28571429       0.28571429       0.37500000 </v>
   <v>       0.42857143       0.28571429       0.37500000 </v>
   <v>      -0.42857143       0.28571429       0.37500000 </v>
   <v>      -0.28571429       0.28571429       0.37500000 </v>
   <v>      -0.14285714       0.28571429       0.37500000 </v>
   <v>       0.42857143       0.42857143       0.37500000 </v>
   <v>      -0.42857143       0.42857143       0.37500000 </v>
   <v>      -0.28571429       0.42857143       0.37500000 </v>
   <v>      -0.14285714       0.42857143       0.37500000 </v>
   <v>      -0.42857143      -0.42857143       0.37500000 </v>
   <v>      -0.28571429      -0.42857143       0.37500000 </v>
   <v>      -0.14285714      -0.42857143       0.37500000 </v>
   <v>      -0.28571429      -0.28571429       0.37500000 </v>
   <v>      -0.14285714      -0.28571429       0.37500000 </v>
   <v>      -0.14285714      -0.14285714       0.37500000 </v>
   <v>       0.00000000       0.00000000       0.50000000 </v>
   <v>       0.14285714       0.00000000       0.50000000 </v>
   <v>       0.28571429       0.00000000       0.50000000 </v>
   <v>       0.42857143       0.00000000       0.50000000 </v>
   <v>       0.14285714       0.14285714       0.50000000 </v>
   <v>       0.28571429       0.14285714       0.50000000 </v>
   <v>       0.42857143       0.14285714       0.50000000 </v>
   <v>      -0.42857143       0.14285714       0.50000000 </v>
   <v>      -0.28571429       0.14285714       0.50000000 </v>
   <v>      -0.14285714       0.14285714       0.50000000 </v>
   <v>       0.28571429       0.28571429       0.50000000 </v>
   <v>       0.42857143       0.28571429       0.50000000 </v>
   <v>      -0.42857143       0.28571429       0.50000000 </v>
   <v>      -0.28571429       0.28571429       0.50000000 </v>
   <v>       0.42857143       0.42857143       0.50000000 </v>
   <v>      -0.42857143       0.42857143       0.50000000 </v>
  </varray>
  <varray name="weights" >
   <v>       0.00255102 </v>
   <v>       0.01020408 </v>
   <v>       0.01020408 </v>
   <v>       0.01020408 </v>
   <v>       0.00510204 </v>
   <v>       0.01020408 </v>
   <v>       0.01020408 </v>
   <v>       0.01020408 </v>
   <v>       0.01020408 </v>
   <v>       0.00510204 </v>
   <v>       0.00510204 </v>
   <v>       0.01020408 </v>
   <v>       0.01020408 </v>
   <v>       0.00510204 </v>
   <v>       0.00510204 </v>
   <v>       0.00510204 </v>
   <v>       0.00510204 </v>
   <v>       0.01020408 </v>
   <v>       0.01020408 </v>
   <v>       0.01020408 </v>
   <v>       0.01020408 </v>
   <v>       0.01020408 </v>
   <v>       0.01020408 </v>
   <v>       0.00510204 </v>
   <v>       0.01020408 </v>
   <v>       0.01020408 </v>
   <v>       0.01020408 </v>
   <v>       0.01020408 </v>
   <v>       0.01020408 </v>
   <v>       0.00510204 </v>
   <v>       0.01020408 </v>
   <v>       0.01020408 </v>
   <v>       0.01020408 </v>
   <v>       0.01020408 </v>
   <v>       0.00510204 </v>
   <v>       0.01020408 </v>
   <v>       0.01020408 </v>
   <v>       0.01020408 </v>
   <v>       0.00510204 </v>
   <v>       0.01020408 </v>
   <v>       0.01020408 </v>
   <v>       0.00510204 </v>
   <v>       0.01020408 </v>
   <v>       0.00510204 </v>
   <v>       0.00510204 </v>
   <v>       0.01020408 </v>
   <v>       0.01020408 </v>
   <v>       0.01020408 </v>
   <v>       0.01020408 </v>
   <v>       0.01020408 </v>
   <v>       0.01020408 </v>
   <v>       0.00510204 </v>
   <v>       0.01020408 </v>
   <v>       0.01020408 </v>
   <v>       0.01020408 </v>
   <v>       0.01020408 </v>
   <v>       0.01020408 </v>
   <v>       0.00510204 </v>
   <v>       0.01020408 </v>
   <v>       0.01020408 </v>
   <v>       0.01020408 </v>
   <v>       0.01020408 </v>
   <v>       0.00510204 </v>
   <v>       0.01020408 </v>
   <v>       0.01020408 </v>
   <v>       0.01020408 </v>
   <v>       0.00510204 </v>
   <v>       0.01020408 </v>
   <v>       0.01020408 </v>
   <v>       0.00510204 </v>
   <v>       0.01020408 </v>
   <v>       0.00510204 </v>
   <v>       0.00510204 </v>
   <v>       0.01020408 </v>
   <v>       0.01020408 </v>
   <v>       0.01020408 </v>
   <v>       0.01020408 </v>
   <v>       0.01020408 </v>
   <v>       0.01020408 </v>
   <v>       0.00510204 </v>
   <v>       0.01020408 </v>
   <v>       0.01020408 </v>
   <v>       0.01020408 </v>
   <v>       0.01020408 </v>
   <v>       0.01020408 </v>
   <v>       0.00510204 </v>
   <v>       0.01020408 </v>
   <v>       0.01020408 </v>
   <v>       0.01020408 </v>
   <v>       0.01020408 </v>
   <v>       0.00510204 </v>
   <v>       0.01020408 </v>
   <v>       0.01020408 </v>
   <v>       0.01020408 </v>
   <v>       0.00510204 </v>
   <v>       0.01020408 </v>
   <v>       0.01020408 </v>
   <v>       0.00510204 </v>
   <v>       0.01020408 </v>
   <v>       0.00510204 </v>
   <v>       0.00255102 </v>
   <v>       0.01020408 </v>
   <v>       0.01020408 </v>
   <v>       0.01020408 </v>
   <v>       0.00510204 </v>
   <v>       0.01020408 </v>
   <v>       0.01020408 </v>
   <v>       0.01020408 </v>
   <v>       0.01020408 </v>
   <v>       0.00510204 </v>
   <v>       0.00510204 </v>
   <v>       0.01020408 </v>
   <v>       0.01020408 </v>
   <v>       0.00510204 </v>
   <v>       0.00510204 </v>
   <v>       0.00510204 </v>
  </varray>
 </kpoints>
 <parameters>
  <separator name="general" >
   <i type="string" name="SYSTEM">routine with relax: pwdword</i>
   <i type="logical" name="LCOMPAT"> F  </i>
  </separator>
  <separator name="electronic" >
   <i type="string" name="PREC">acc</i>
   <i name="ENMAX">    600.00000000</i>
   <i name="ENAUG">    535.51400000</i>
   <i name="EDIFF">      0.00000000</i>
   <i type="int" name="IALGO">    58</i>
   <i type="int" name="IWAVPR">    10</i>
   <i type="int" name="NBANDS">    48</i>
   <i type="int" name="NBANDSLOW">    -1</i>
   <i type="int" name="NBANDSHIGH">    -1</i>
   <i name="NELECT">     76.00000000</i>
   <i type="int" name="TURBO">     0</i>
   <i type="int" name="IRESTART">     0</i>
   <i type="int" name="NREBOOT">     0</i>
   <i type="int" name="NMIN">     0</i>
   <i name="EREF">      0.00000000</i>
   <separator name="electronic smearing" >
    <i type="int" name="ISMEAR">     0</i>
    <i name="SIGMA">      0.02000000</i>
    <i name="KSPACING">      0.50000000</i>
    <i type="logical" name="KGAMMA"> T  </i>
    <i type="logical" name="KBLOWUP"> F  </i>
   </separator>
   <separator name="electronic projectors" >
    <i type="logical" name="LREAL"> F  </i>
    <v name="ROPT">      0.00000000      0.00000000      0.00000000</v>
    <i type="int" name="LMAXPAW">  -100</i>
    <i type="int" name="LMAXMIX">     2</i>
    <i type="logical" name="NLSPLINE"> F  </i>
   </separator>
   <separator name="electronic startup" >
    <i type="int" name="ISTART">     0</i>
    <i type="int" name="ICHARG">     2</i>
    <i type="int" name="INIWAV">     1</i>
   </separator>
   <separator name="electronic spin" >
    <i type="int" name="ISPIN">     1</i>
    <i type="logical" name="LNONCOLLINEAR"> F  </i>
    <v name="MAGMOM">      1.00000000      1.00000000      1.00000000      1.00000000      1.00000000      1.00000000      1.00000000      1.00000000      1.00000000      1.00000000</v>
    <i name="NUPDOWN">     -1.00000000</i>
    <i type="logical" name="LSORBIT"> F  </i>
    <v name="SAXIS">      0.00000000      0.00000000      1.00000000</v>
    <i type="logical" name="LSPIRAL"> F  </i>
    <v name="QSPIRAL">      0.00000000      0.00000000      0.00000000</v>
    <i type="logical" name="LZEROZ"> F  </i>
   </separator>
   <separator name="electronic exchange-correlation" >
    <i type="logical" name="LASPH"> T  </i>
    <i type="logical" name="LMETAGGA"> F  </i>
   </separator>
   <separator name="electronic convergence" >
    <i type="int" name="NELM">   100</i>
    <i type="int" name="NELMDL">    -5</i>
    <i type="int" name="NELMIN">     6</i>
    <i name="ENINI">    600.00000000</i>
    <separator name="electronic convergence detail" >
     <i type="logical" name="LDIAG"> T  </i>
     <i type="logical" name="LSUBROT"> F  </i>
     <i name="WEIMIN">      0.00000000</i>
     <i name="EBREAK">      0.00000000</i>
     <i name="DEPER">      0.30000000</i>
     <i type="int" name="NRMM">     4</i>
     <i name="TIME">      0.40000000</i>
    </separator>
   </separator>
   <separator name="electronic mixer" >
    <i name="AMIX">      0.40000000</i>
    <i name="BMIX">      1.00000000</i>
    <i name="AMIN">      0.10000000</i>
    <i name="AMIX_MAG">      1.60000000</i>
    <i name="BMIX_MAG">      1.00000000</i>
    <separator name="electronic mixer details" >
     <i type="int" name="IMIX">     4</i>
     <i type="logical" name="MIXFIRST"> F  </i>
     <i type="int" name="MAXMIX">   -45</i>
     <i name="WC">    100.00000000</i>
     <i type="int" name="INIMIX">     1</i>
     <i type="int" name="MIXPRE">     1</i>
     <i type="int" name="MREMOVE">     5</i>
    </separator>
   </separator>
   <separator name="electronic dipolcorrection" >
    <i type="logical" name="LDIPOL"> F  </i>
    <i type="logical" name="LMONO"> F  </i>
    <i type="int" name="IDIPOL">     0</i>
    <i name="EPSILON">      1.00000000</i>
    <v name="DIPOL">   -100.00000000   -100.00000000   -100.00000000</v>
    <i name="EFIELD">      0.00000000</i>
   </separator>
  </separator>
  <separator name="grids" >
   <i type="int" name="NGX">    50</i>
   <i type="int" name="NGY">    50</i>
   <i type="int" name="NGZ">    50</i>
   <i type="int" name="NGXF">   100</i>
   <i type="int" name="NGYF">   100</i>
   <i type="int" name="NGZF">   100</i>
   <i type="logical" name="ADDGRID"> T  </i>
  </separator>
  <separator name="ionic" >
   <i type="int" name="NSW">     0</i>
   <i type="int" name="IBRION">    -1</i>
   <i type="int" name="MDALGO">     0</i>
   <i type="int" name="ISIF">    -1</i>
   <i name="PSTRESS">      0.00000000</i>
   <i name="EDIFFG">      0.00000001</i>
   <i type="int" name="NFREE">     0</i>
   <i name="POTIM">      0.50000000</i>
   <i name="SMASS">     -3.00000000</i>
   <i name="SCALEE">      1.00000000</i>
  </separator>
  <separator name="ionic md" >
   <i name="TEBEG">      0.00010000</i>
   <i name="TEEND">      0.00010000</i>
   <i type="int" name="NBLOCK">     1</i>
   <i type="int" name="KBLOCK">     1</i>
   <i type="int" name="NPACO">   256</i>
   <i name="APACO">     16.00000000</i>
  </separator>
  <separator name="symmetry" >
   <i type="int" name="ISYM">     2</i>
   <i name="SYMPREC">      0.00001000</i>
  </separator>
  <separator name="dos" >
   <i type="int" name="LORBIT">     0</i>
   <v name="RWIGS">     -1.00000000     -1.00000000     -1.00000000</v>
   <i type="int" name="NEDOS">   301</i>
   <i name="EMIN">     10.00000000</i>
   <i name="EMAX">    -10.00000000</i>
   <i name="EFERMI">      0.00000000</i>
  </separator>
  <separator name="writing" >
   <i type="int" name="NWRITE">     2</i>
   <i type="logical" name="LWAVE"> T  </i>
   <i type="logical" name="LDOWNSAMPLE"> F  </i>
   <i type="logical" name="LCHARG"> T  </i>
   <i type="logical" name="LPARD"> F  </i>
   <i type="logical" name="LVTOT"> F  </i>
   <i type="logical" name="LVHAR"> F  </i>
   <i type="logical" name="LELF"> F  </i>
   <i type="logical" name="LOPTICS"> F  </i>
   <v name="STM">      0.00000000      0.00000000      0.00000000      0.00000000      0.00000000      0.00000000      0.00000000</v>
  </separator>
  <separator name="performance" >
   <i type="int" name="NPAR">     6</i>
   <i type="int" name="NSIM">     4</i>
   <i type="int" name="NBLK">    -1</i>
   <i type="logical" name="LPLANE"> T  </i>
   <i type="logical" name="LSCALAPACK"> T  </i>
   <i type="logical" name="LSCAAWARE"> F  </i>
   <i type="logical" name="LSCALU"> F  </i>
   <i type="logical" name="LASYNC"> F  </i>
   <i type="logical" name="LORBITALREAL"> F  </i>
  </separator>
  <separator name="miscellaneous" >
   <i type="int" name="IDIOT">     3</i>
   <i type="int" name="PHON_NSTRUCT">    -1</i>
   <i type="logical" name="LMUSIC"> F  </i>
   <v name="POMASS">     10.81100000     95.94000000     28.08500000</v>
   <v name="DARWINR">      0.00000000      0.00000000      0.00000000</v>
   <v name="DARWINV">      1.00000000      1.00000000      1.00000000</v>
   <i type="logical" name="LCORR"> T  </i>
  </separator>
  <i type="logical" name="GGA_COMPAT"> T  </i>
  <i type="logical" name="LBERRY"> F  </i>
  <i type="int" name="ICORELEVEL">     0</i>
  <i type="logical" name="LDAU"> F  </i>
  <i type="int" name="I_CONSTRAINED_M">     0</i>
  <separator name="electronic exchange-correlation" >
   <i type="string" name="GGA">--</i>
   <i type="int" name="VOSKOWN">     0</i>
   <i type="logical" name="LHFCALC"> F  </i>
   <i type="string" name="PRECFOCK"></i>
   <i type="logical" name="LSYMGRAD"> F  </i>
   <i type="logical" name="LHFONE"> F  </i>
   <i type="logical" name="LRHFCALC"> F  </i>
   <i type="logical" name="LTHOMAS"> F  </i>
   <i type="logical" name="LMODELHF"> F  </i>
   <i type="logical" name="LFOCKACE"> F  </i>
   <i name="ENCUT4O">     -1.00000000</i>
   <i type="int" name="EXXOEP">     0</i>
   <i type="int" name="FOURORBIT">     0</i>
   <i name="AEXX">      0.00000000</i>
   <i name="HFALPHA">      0.00000000</i>
   <i name="MCALPHA">      0.00000000</i>
   <i name="ALDAX">      1.00000000</i>
   <i name="AGGAX">      1.00000000</i>
   <i name="ALDAC">      1.00000000</i>
   <i name="AGGAC">      1.00000000</i>
   <i type="int" name="NKREDX">     1</i>
   <i type="int" name="NKREDY">     1</i>
   <i type="int" name="NKREDZ">     1</i>
   <i type="logical" name="SHIFTRED"> F  </i>
   <i type="logical" name="ODDONLY"> F  </i>
   <i type="logical" name="EVENONLY"> F  </i>
   <i type="int" name="LMAXFOCK">     0</i>
   <i type="int" name="NMAXFOCKAE">     0</i>
   <i type="logical" name="LFOCKAEDFT"> F  </i>
   <i name="HFSCREEN">      0.00000000</i>
   <i name="HFSCREENC">      0.00000000</i>
   <i type="int" name="NBANDSGWLOW">     0</i>
  </separator>
  <separator name="vdW DFT" >
   <i type="logical" name="LUSE_VDW"> F  </i>
   <i name="Zab_VDW">     -0.84910000</i>
   <i name="PARAM1">      0.12340000</i>
   <i name="PARAM2">      1.00000000</i>
   <i name="PARAM3">      0.00000000</i>
  </separator>
  <separator name="model GW" >
   <i type="int" name="MODEL_GW">     0</i>
   <i name="MODEL_EPS0">     10.48297509</i>
   <i name="MODEL_ALPHA">      1.00000000</i>
  </separator>
  <separator name="linear response parameters" >
   <i type="logical" name="LEPSILON"> F  </i>
   <i type="logical" name="LRPA"> F  </i>
   <i type="logical" name="LNABLA"> F  </i>
   <i type="logical" name="LVEL"> F  </i>
   <i type="int" name="KINTER">     0</i>
   <i name="CSHIFT">      0.10000000</i>
   <i name="OMEGAMAX">     -1.00000000</i>
   <i name="DEG_THRESHOLD">      0.00200000</i>
   <i name="RTIME">     -0.10000000</i>
   <i name="WPLASMAI">      0.00000000</i>
   <v name="DFIELD">      0.00000000      0.00000000      0.00000000</v>
   <v name="WPLASMA">      0.00000000      0.00000000      0.00000000      0.00000000      0.00000000      0.00000000      0.00000000      0.00000000      0.00000000</v>
  </separator>
  <separator name="orbital magnetization" >
   <i type="logical" name="NUCIND"> F  </i>
   <v name="MAGPOS">      0.00000000      0.00000000      0.00000000</v>
   <i type="logical" name="LNICSALL"> T  </i>
   <i type="logical" name="ORBITALMAG"> F  </i>
   <i type="logical" name="LMAGBLOCH"> F  </i>
   <i type="logical" name="LCHIMAG"> F  </i>
   <i type="logical" name="LGAUGE"> T  </i>
   <i type="int" name="MAGATOM">     0</i>
   <v name="MAGDIPOL">      0.00000000      0.00000000      0.00000000</v>
   <v name="AVECCONST">      0.00000000      0.00000000      0.00000000</v>
  </separator>
  <separator name="response functions" >
   <i type="logical" name="LFINITE_TEMPERATURE"> F  </i>
   <i type="logical" name="LADDER"> F  </i>
   <i type="logical" name="LRPAFORCE"> F  </i>
   <i type="logical" name="LFXC"> F  </i>
   <i type="logical" name="LHARTREE"> T  </i>
   <i type="int" name="IBSE">     0</i>
   <v type="int" name="KPOINT">    -1     0     0     0</v>
   <i type="logical" name="LTCTC"> F  </i>
   <i type="logical" name="LTCTE"> F  </i>
   <i type="logical" name="LTETE"> F  </i>
   <i type="logical" name="LTRIPLET"> F  </i>
   <i type="logical" name="LFXCEPS"> F  </i>
   <i type="logical" name="LFXHEG"> F  </i>
   <i type="int" name="NATURALO">     2</i>
   <i type="logical" name="LHOLEGF"> F  </i>
   <i type="logical" name="L2ORDER"> F  </i>
   <i type="logical" name="LDMP1"> F  </i>
   <i type="logical" name="LMP2LT"> F  </i>
   <i type="logical" name="LSMP2LT"> F  </i>
   <i type="logical" name="LGWLF"> F  </i>
   <i name="ENCUTGW">     -2.00000000</i>
   <i name="ENCUTGWSOFT">     -2.00000000</i>
   <i name="ENCUTLF">     -1.00000000</i>
   <i type="logical" name="LESF_SPLINES"> F  </i>
   <i type="int" name="LMAXMP2">    -1</i>
   <i name="SCISSOR">      0.00000000</i>
   <i type="int" name="NOMEGA">     0</i>
   <i type="int" name="NOMEGAR">     0</i>
   <i type="int" name="NBANDSGW">    -1</i>
   <i type="int" name="NBANDSO">    -1</i>
   <i type="int" name="NBANDSV">    -1</i>
   <i type="int" name="NELM">   100</i>
   <i type="int" name="NELMHF">     1</i>
   <i type="int" name="DIM">     3</i>
   <i type="int" name="IESPILON">     4</i>
   <i type="int" name="ANTIRES">     0</i>
   <i name="OMEGAMAX">    -30.00000000</i>
   <i name="OMEGAMIN">    -30.00000000</i>
   <i name="OMEGATL">   -200.00000000</i>
   <i type="int" name="OMEGAGRID">     0</i>
   <i name="CSHIFT">     -0.10000000</i>
   <i type="logical" name="LSELFENERGY"> F  </i>
   <i type="logical" name="LSPECTRAL"> F  </i>
   <i type="logical" name="LSPECTRALGW"> F  </i>
   <i type="logical" name="LSINGLES"> F  </i>
   <i type="logical" name="LFERMIGW"> F  </i>
   <i type="logical" name="ODDONLYGW"> F  </i>
   <i type="logical" name="EVENONLYGW"> F  </i>
   <i type="int" name="NKREDLFX">     1</i>
   <i type="int" name="NKREDLFY">     1</i>
   <i type="int" name="NKREDLFZ">     1</i>
   <i type="int" name="MAXMEM">  2800</i>
   <i type="int" name="TELESCOPE">     0</i>
   <i type="int" name="NTAUPAR">    -1</i>
   <i type="int" name="NOMEGAPAR">    -1</i>
   <i name="DAMP_NEWTON">      0.80000001</i>
   <i name="LAMBDA">      1.00000000</i>
  </separator>
  <separator name="External order field" >
   <i name="OFIELD_KAPPA">      0.00000000</i>
   <v name="OFIELD_K">      0.00000000      0.00000000      0.00000000</v>
   <i name="OFIELD_Q6_NEAR">      0.00000000</i>
   <i name="OFIELD_Q6_FAR">      0.00000000</i>
   <i name="OFIELD_A">      0.00000000</i>
  </separator>
 </parameters>
 <atominfo>
  <atoms>      10 </atoms>
  <types>       3 </types>
  <array name="atoms" >
   <dimension dim="1">ion</dimension>
   <field type="string">element</field>
   <field type="int">atomtype</field>
   <set>
    <rc><c>B </c><c>   1</c></rc>
    <rc><c>B </c><c>   1</c></rc>
    <rc><c>B </c><c>   1</c></rc>
    <rc><c>B </c><c>   1</c></rc>
    <rc><c>Mo</c><c>   2</c></rc>
    <rc><c>Mo</c><c>   2</c></rc>
    <rc><c>Mo</c><c>   2</c></rc>
    <rc><c>Mo</c><c>   2</c></rc>
    <rc><c>Si</c><c>   3</c></rc>
    <rc><c>Si</c><c>   3</c></rc>
   </set>
  </array>
  <array name="atomtypes" >
   <dimension dim="1">type</dimension>
   <field type="int">atomspertype</field>
   <field type="string">element</field>
   <field>mass</field>
   <field>valence</field>
   <field type="string">pseudopotential</field>
   <set>
    <rc><c>   4</c><c>B </c><c>     10.81100000</c><c>      3.00000000</c><c>  PAW_PBE B 06Sep2000                   </c></rc>
    <rc><c>   4</c><c>Mo</c><c>     95.94000000</c><c>     14.00000000</c><c>  PAW_PBE Mo_sv 02Feb2006               </c></rc>
    <rc><c>   2</c><c>Si</c><c>     28.08500000</c><c>      4.00000000</c><c>  PAW_PBE Si 05Jan2001                  </c></rc>
   </set>
  </array>
 </atominfo>
 <structure name="initialpos" >
  <crystal>
   <varray name="basis" >
    <v>       5.47095852       0.00000000      -2.99129209 </v>
    <v>      -1.92352253       5.12166460      -2.99129209 </v>
    <v>       0.00000000       0.00000000       6.23532000 </v>
   </varray>
   <i name="volume">    174.71625147 </i>
   <varray name="rec_basis" >
    <v>       0.18278333       0.06864718       0.00000000 </v>
    <v>       0.00000000       0.19524902       0.00000000 </v>
    <v>       0.08768729       0.12659986       0.16037669 </v>
   </varray>
  </crystal>
  <varray name="positions" >
   <v>       0.00000000       0.00000000       0.50000000 </v>
   <v>       0.00000000       0.50000000       0.00000000 </v>
   <v>       0.50000000       0.50000000       0.50000000 </v>
   <v>       0.50000000       0.00000000       0.00000000 </v>
   <v>       0.25000000       0.75000000       0.50000000 </v>
   <v>       0.25000000       0.25000000       0.00000000 </v>
   <v>       0.75000000       0.25000000       0.50000000 </v>
   <v>       0.75000000       0.75000000       0.00000000 </v>
   <v>       0.50000000       0.00000000       0.50000000 </v>
   <v>       0.00000000       0.50000000       0.50000000 </v>
  </varray>
 </structure>
 <calculation>
  <scstep>
   <time name="total">   17.33   17.48</time>
   <energy>
    <i name="alphaZ">    276.25900270 </i>
    <i name="ewald">  -5277.22081972 </i>
    <i name="hartreedc">  -2387.14914128 </i>
    <i name="XCdc">    325.00670386 </i>
    <i name="pawpsdc">   6278.15209018 </i>
    <i name="pawaedc">  -6244.81064237 </i>
    <i name="eentropy">     -0.00072927 </i>
    <i name="bandstr">   -264.70344300 </i>
    <i name="atom">   7939.94160518 </i>
    <i name="e_fr_energy">    645.47462627 </i>
    <i name="e_wo_entrp">    645.47535554 </i>
    <i name="e_0_energy">    645.47499091 </i>
   </energy>
  </scstep>
  <scstep>
   <time name="total">   17.32   17.46</time>
   <energy>
    <i name="e_fr_energy">   -140.88076376 </i>
    <i name="e_wo_entrp">   -140.87958490 </i>
    <i name="e_0_energy">   -140.88017433 </i>
   </energy>
  </scstep>
  <scstep>
   <time name="total">   18.79   18.94</time>
   <energy>
    <i name="e_fr_energy">   -174.79792843 </i>
    <i name="e_wo_entrp">   -174.79703839 </i>
    <i name="e_0_energy">   -174.79748341 </i>
   </energy>
  </scstep>
  <scstep>
   <time name="total">   18.80   18.96</time>
   <energy>
    <i name="e_fr_energy">   -175.44817076 </i>
    <i name="e_wo_entrp">   -175.44721806 </i>
    <i name="e_0_energy">   -175.44769441 </i>
   </energy>
  </scstep>
  <scstep>
   <time name="total">   20.48   20.73</time>
   <energy>
    <i name="e_fr_energy">   -175.46628253 </i>
    <i name="e_wo_entrp">   -175.46532794 </i>
    <i name="e_0_energy">   -175.46580524 </i>
   </energy>
  </scstep>
  <scstep>
   <time name="total">   19.37   19.53</time>
   <energy>
    <i name="e_fr_energy">   -112.32897486 </i>
    <i name="e_wo_entrp">   -112.32758247 </i>
    <i name="e_0_energy">   -112.32827867 </i>
   </energy>
  </scstep>
  <scstep>
   <time name="total">   20.04   20.20</time>
   <energy>
    <i name="e_fr_energy">   -135.28986314 </i>
    <i name="e_wo_entrp">   -135.28809288 </i>
    <i name="e_0_energy">   -135.28897801 </i>
   </energy>
  </scstep>
  <scstep>
   <time name="total">   19.59   19.76</time>
   <energy>
    <i name="e_fr_energy">   -139.11978996 </i>
    <i name="e_wo_entrp">   -139.11834887 </i>
    <i name="e_0_energy">   -139.11906942 </i>
   </energy>
  </scstep>
  <scstep>
   <time name="total">   19.98   20.14</time>
   <energy>
    <i name="e_fr_energy">   -140.25330360 </i>
    <i name="e_wo_entrp">   -140.25196082 </i>
    <i name="e_0_energy">   -140.25263221 </i>
   </energy>
  </scstep>
  <scstep>
   <time name="total">   19.30   19.46</time>
   <energy>
    <i name="e_fr_energy">   -140.67438090 </i>
    <i name="e_wo_entrp">   -140.67293427 </i>
    <i name="e_0_energy">   -140.67365759 </i>
   </energy>
  </scstep>
  <scstep>
   <time name="total">   19.75   19.91</time>
   <energy>
    <i name="e_fr_energy">   -140.85968952 </i>
    <i name="e_wo_entrp">   -140.85801414 </i>
    <i name="e_0_energy">   -140.85885183 </i>
   </energy>
  </scstep>
  <scstep>
   <time name="total">   19.94   20.10</time>
   <energy>
    <i name="e_fr_energy">   -140.93678729 </i>
    <i name="e_wo_entrp">   -140.93464278 </i>
    <i name="e_0_energy">   -140.93571504 </i>
   </energy>
  </scstep>
  <scstep>
   <time name="total">   19.26   19.42</time>
   <energy>
    <i name="e_fr_energy">   -140.97302873 </i>
    <i name="e_wo_entrp">   -140.97057209 </i>
    <i name="e_0_energy">   -140.97180041 </i>
   </energy>
  </scstep>
  <scstep>
   <time name="total">   19.85   20.01</time>
   <energy>
    <i name="e_fr_energy">   -140.99410425 </i>
    <i name="e_wo_entrp">   -140.99175581 </i>
    <i name="e_0_energy">   -140.99293003 </i>
   </energy>
  </scstep>
  <scstep>
   <time name="total">   19.42   19.58</time>
   <energy>
    <i name="e_fr_energy">   -141.00463293 </i>
    <i name="e_wo_entrp">   -141.00248530 </i>
    <i name="e_0_energy">   -141.00355912 </i>
   </energy>
  </scstep>
  <scstep>
   <time name="total">   19.72   19.91</time>
   <energy>
    <i name="e_fr_energy">   -141.00955872 </i>
    <i name="e_wo_entrp">   -141.00750563 </i>
    <i name="e_0_energy">   -141.00853217 </i>
   </energy>
  </scstep>
  <scstep>
   <time name="total">   19.25   19.41</time>
   <energy>
    <i name="e_fr_energy">   -141.01154790 </i>
    <i name="e_wo_entrp">   -141.00953314 </i>
    <i name="e_0_energy">   -141.01054052 </i>
   </energy>
  </scstep>
  <scstep>
   <time name="total">   20.09   20.26</time>
   <energy>
    <i name="e_fr_energy">   -141.01236351 </i>
    <i name="e_wo_entrp">   -141.01035684 </i>
    <i name="e_0_energy">   -141.01136018 </i>
   </energy>
  </scstep>
  <scstep>
   <time name="total">   19.58   19.74</time>
   <energy>
    <i name="e_fr_energy">   -141.01274332 </i>
    <i name="e_wo_entrp">   -141.01074553 </i>
    <i name="e_0_energy">   -141.01174442 </i>
   </energy>
  </scstep>
  <scstep>
   <time name="total">   20.09   20.25</time>
   <energy>
    <i name="e_fr_energy">   -141.01291864 </i>
    <i name="e_wo_entrp">   -141.01092202 </i>
    <i name="e_0_energy">   -141.01192033 </i>
   </energy>
  </scstep>
  <scstep>
   <time name="total">   19.76   19.92</time>
   <energy>
    <i name="e_fr_energy">   -141.01299583 </i>
    <i name="e_wo_entrp">   -141.01100541 </i>
    <i name="e_0_energy">   -141.01200062 </i>
   </energy>
  </scstep>
  <scstep>
   <time name="total">   19.89   20.05</time>
   <energy>
    <i name="e_fr_energy">   -141.01303565 </i>
    <i name="e_wo_entrp">   -141.01104914 </i>
    <i name="e_0_energy">   -141.01204239 </i>
   </energy>
  </scstep>
  <scstep>
   <time name="total">   19.89   20.06</time>
   <energy>
    <i name="e_fr_energy">   -141.01305405 </i>
    <i name="e_wo_entrp">   -141.01107113 </i>
    <i name="e_0_energy">   -141.01206259 </i>
   </energy>
  </scstep>
  <scstep>
   <time name="total">   19.48   19.64</time>
   <energy>
    <i name="e_fr_energy">   -141.01306111 </i>
    <i name="e_wo_entrp">   -141.01107909 </i>
    <i name="e_0_energy">   -141.01207010 </i>
   </energy>
  </scstep>
  <scstep>
   <time name="total">   20.38   20.55</time>
   <energy>
    <i name="e_fr_energy">   -141.01306391 </i>
    <i name="e_wo_entrp">   -141.01108316 </i>
    <i name="e_0_energy">   -141.01207353 </i>
   </energy>
  </scstep>
  <scstep>
   <time name="total">   19.59   19.75</time>
   <energy>
    <i name="e_fr_energy">   -141.01306533 </i>
    <i name="e_wo_entrp">   -141.01108480 </i>
    <i name="e_0_energy">   -141.01207506 </i>
   </energy>
  </scstep>
  <scstep>
   <time name="total">   19.16   19.32</time>
   <energy>
    <i name="e_fr_energy">   -141.01306597 </i>
    <i name="e_wo_entrp">   -141.01108555 </i>
    <i name="e_0_energy">   -141.01207576 </i>
   </energy>
  </scstep>
  <scstep>
   <time name="total">   20.34   20.52</time>
   <energy>
    <i name="e_fr_energy">   -141.01306629 </i>
    <i name="e_wo_entrp">   -141.01108557 </i>
    <i name="e_0_energy">   -141.01207593 </i>
   </energy>
  </scstep>
  <scstep>
   <time name="total">   19.59   19.76</time>
   <energy>
    <i name="e_fr_energy">   -141.01306646 </i>
    <i name="e_wo_entrp">   -141.01108560 </i>
    <i name="e_0_energy">   -141.01207603 </i>
   </energy>
  </scstep>
  <scstep>
   <time name="total">   20.30   20.47</time>
   <energy>
    <i name="e_fr_energy">   -141.01306647 </i>
    <i name="e_wo_entrp">   -141.01108547 </i>
    <i name="e_0_energy">   -141.01207597 </i>
   </energy>
  </scstep>
  <scstep>
   <time name="total">   19.76   19.93</time>
   <energy>
    <i name="e_fr_energy">   -141.01306650 </i>
    <i name="e_wo_entrp">   -141.01108532 </i>
    <i name="e_0_energy">   -141.01207591 </i>
   </energy>
  </scstep>
  <scstep>
   <time name="total">   19.04   19.20</time>
   <energy>
    <i name="e_fr_energy">   -141.01306652 </i>
    <i name="e_wo_entrp">   -141.01108521 </i>
    <i name="e_0_energy">   -141.01207587 </i>
   </energy>
  </scstep>
  <scstep>
   <time name="total">   34.54   34.82</time>
   <energy>
    <i name="e_fr_energy">   -141.01306654 </i>
    <i name="e_wo_entrp">   -141.01108447 </i>
    <i name="e_0_energy">   -141.01207550 </i>
   </energy>
  </scstep>
  <scstep>
   <time name="total">   19.80   19.97</time>
   <energy>
    <i name="e_fr_energy">   -141.01306641 </i>
    <i name="e_wo_entrp">   -141.01108435 </i>
    <i name="e_0_energy">   -141.01207538 </i>
   </energy>
  </scstep>
  <scstep>
   <time name="total">   18.47   18.62</time>
   <energy>
    <i name="e_fr_energy">   -141.01306650 </i>
    <i name="e_wo_entrp">   -141.01108460 </i>
    <i name="e_0_energy">   -141.01207555 </i>
   </energy>
  </scstep>
  <scstep>
   <time name="total">   20.41   20.57</time>
   <energy>
    <i name="e_fr_energy">   -141.01306653 </i>
    <i name="e_wo_entrp">   -141.01108466 </i>
    <i name="e_0_energy">   -141.01207560 </i>
   </energy>
  </scstep>
  <scstep>
   <time name="total">   21.28   21.44</time>
   <energy>
    <i name="e_fr_energy">   -141.01306654 </i>
    <i name="e_wo_entrp">   -141.01108468 </i>
    <i name="e_0_energy">   -141.01207561 </i>
   </energy>
  </scstep>
  <scstep>
   <time name="total">   21.17   21.33</time>
   <energy>
    <i name="e_fr_energy">   -141.01306654 </i>
    <i name="e_wo_entrp">   -141.01108473 </i>
    <i name="e_0_energy">   -141.01207563 </i>
   </energy>
  </scstep>
  <scstep>
   <time name="total">   20.82   20.98</time>
   <energy>
    <i name="e_fr_energy">   -141.01306654 </i>
    <i name="e_wo_entrp">   -141.01108481 </i>
    <i name="e_0_energy">   -141.01207568 </i>
   </energy>
  </scstep>
  <scstep>
   <time name="total">   21.69   21.85</time>
   <energy>
    <i name="e_fr_energy">   -141.01306655 </i>
    <i name="e_wo_entrp">   -141.01108481 </i>
    <i name="e_0_energy">   -141.01207568 </i>
   </energy>
  </scstep>
  <scstep>
   <time name="total">   20.21   20.37</time>
   <energy>
    <i name="e_fr_energy">   -141.01306655 </i>
    <i name="e_wo_entrp">   -141.01108487 </i>
    <i name="e_0_energy">   -141.01207571 </i>
   </energy>
  </scstep>
  <scstep>
   <time name="total">   21.24   21.40</time>
   <energy>
    <i name="e_fr_energy">   -141.01306655 </i>
    <i name="e_wo_entrp">   -141.01108487 </i>
    <i name="e_0_energy">   -141.01207571 </i>
   </energy>
  </scstep>
  <scstep>
   <time name="total">   24.20   24.39</time>
   <energy>
    <i name="alphaZ">    276.25900270 </i>
    <i name="ewald">  -5277.22081972 </i>
    <i name="hartreedc">  -2329.12498069 </i>
    <i name="XCdc">    332.02369887 </i>
    <i name="pawpsdc">   8391.41121988 </i>
    <i name="pawaedc">  -8371.98082414 </i>
    <i name="eentropy">     -0.00198168 </i>
    <i name="bandstr">  -1102.31998696 </i>
    <i name="atom">   7939.94160518 </i>
    <i name="e_fr_energy">   -141.01306655 </i>
    <i name="e_wo_entrp">   -141.01108487 </i>
    <i name="e_0_energy">   -141.01207571 </i>
   </energy>
  </scstep>
  <structure>
   <crystal>
    <varray name="basis" >
     <v>       5.47095852       0.00000000      -2.99129209 </v>
     <v>      -1.92352253       5.12166460      -2.99129209 </v>
     <v>       0.00000000       0.00000000       6.23532000 </v>
    </varray>
    <i name="volume">    174.71625147 </i>
    <varray name="rec_basis" >
     <v>       0.18278333       0.06864718       0.00000000 </v>
     <v>       0.00000000       0.19524902       0.00000000 </v>
     <v>       0.08768729       0.12659986       0.16037669 </v>
    </varray>
   </crystal>
   <varray name="positions" >
    <v>       0.00000000       0.00000000       0.50000000 </v>
    <v>       0.00000000       0.50000000       0.00000000 </v>
    <v>       0.50000000       0.50000000       0.50000000 </v>
    <v>       0.50000000       0.00000000       0.00000000 </v>
    <v>       0.25000000       0.75000000       0.50000000 </v>
    <v>       0.25000000       0.25000000       0.00000000 </v>
    <v>       0.75000000       0.25000000       0.50000000 </v>
    <v>       0.75000000       0.75000000       0.00000000 </v>
    <v>       0.50000000       0.00000000       0.50000000 </v>
    <v>       0.00000000       0.50000000       0.50000000 </v>
   </varray>
  </structure>
  <varray name="forces" >
   <v>       0.00000000       0.00000000       0.00000000 </v>
   <v>       0.00000000       0.00000000       0.00000000 </v>
   <v>       0.00000000       0.00000000       0.00000000 </v>
   <v>       0.00000000       0.00000000       0.00000000 </v>
   <v>       0.00000000       0.00000000       0.00000000 </v>
   <v>       0.00000000       0.00000000       0.00000000 </v>
   <v>       0.00000000       0.00000000       0.00000000 </v>
   <v>       0.00000000       0.00000000       0.00000000 </v>
   <v>       0.00000000       0.00000000       0.00000000 </v>
   <v>       0.00000000       0.00000000       0.00000000 </v>
  </varray>
  <varray name="stress" >
   <v>       0.00000000       0.00000000       0.00000000 </v>
   <v>       0.00000000       0.00000000       0.00000000 </v>
   <v>       0.00000000       0.00000000       0.00000000 </v>
  </varray>
  <energy>
   <i name="e_fr_energy">   -141.01306655 </i>
   <i name="e_wo_entrp">   -141.01108487 </i>
   <i name="e_0_energy">   -141.01207571 </i>
  </energy>
  <time name="totalsc">  871.98  879.22</time>
  <eigenvalues>
   <array>
    <dimension dim="1">band</dimension>
    <dimension dim="2">kpoint</dimension>
    <dimension dim="3">spin</dimension>
    <field>eigene</field>
    <field>occ</field>
    <set>
     <set comment="spin 1">
      <set comment="kpoint 1">
       <r>  -57.4287    1.0000 </r>
       <r>  -57.4282    1.0000 </r>
       <r>  -56.5099    1.0000 </r>
       <r>  -56.5087    1.0000 </r>
       <r>  -30.8924    1.0000 </r>
       <r>  -30.8895    1.0000 </r>
       <r>  -30.7450    1.0000 </r>
       <r>  -30.7449    1.0000 </r>
       <r>  -30.7344    1.0000 </r>
       <r>  -30.7343    1.0000 </r>
       <r>  -30.4496    1.0000 </r>
       <r>  -30.4170    1.0000 </r>
       <r>  -29.8448    1.0000 </r>
       <r>  -29.8448    1.0000 </r>
       <r>  -29.8338    1.0000 </r>
       <r>  -29.8337    1.0000 </r>
       <r>   -4.4126    1.0000 </r>
       <r>   -1.7632    1.0000 </r>
       <r>   -1.6339    1.0000 </r>
       <r>   -0.6000    1.0000 </r>
       <r>    0.3256    1.0000 </r>
       <r>    0.3257    1.0000 </r>
       <r>    0.5969    1.0000 </r>
       <r>    0.8107    1.0000 </r>
       <r>    0.9476    1.0000 </r>
       <r>    0.9477    1.0000 </r>
       <r>    1.6317    1.0000 </r>
       <r>    2.4986    1.0000 </r>
       <r>    2.8439    1.0000 </r>
       <r>    3.3319    1.0000 </r>
       <r>    3.8208    1.0000 </r>
       <r>    3.8209    1.0000 </r>
       <r>    4.2414    1.0000 </r>
       <r>    4.2414    1.0000 </r>
       <r>    4.3498    1.0000 </r>
       <r>    4.7119    1.0000 </r>
       <r>    6.0978    0.0000 </r>
       <r>    6.0979    0.0000 </r>
       <r>    6.2305    0.0000 </r>
       <r>    6.2306    0.0000 </r>
       <r>    6.4077    0.0000 </r>
       <r>    6.5730    0.0000 </r>
       <r>    7.7188    0.0000 </r>
       <r>    7.7188    0.0000 </r>
       <r>    7.8071    0.0000 </r>
       <r>    8.0534    0.0000 </r>
       <r>    9.2920    0.0000 </r>
       <r>    9.3267    0.0000 </r>
      </set>
      <set comment="kpoint 2">
       <r>  -57.4286    1.0000 </r>
       <r>  -57.4282    1.0000 </r>
       <r>  -56.5099    1.0000 </r>
       <r>  -56.5088    1.0000 </r>
       <r>  -30.8922    1.0000 </r>
       <r>  -30.8896    1.0000 </r>
       <r>  -30.7444    1.0000 </r>
       <r>  -30.7408    1.0000 </r>
       <r>  -30.7348    1.0000 </r>
       <r>  -30.7311    1.0000 </r>
       <r>  -30.4481    1.0000 </r>
       <r>  -30.4186    1.0000 </r>
       <r>  -29.8486    1.0000 </r>
       <r>  -29.8443    1.0000 </r>
       <r>  -29.8385    1.0000 </r>
       <r>  -29.8344    1.0000 </r>
       <r>   -4.2960    1.0000 </r>
       <r>   -1.6991    1.0000 </r>
       <r>   -1.6026    1.0000 </r>
       <r>   -1.0329    1.0000 </r>
       <r>   -0.2230    1.0000 </r>
       <r>    0.0971    1.0000 </r>
       <r>    0.8660    1.0000 </r>
       <r>    1.0948    1.0000 </r>
       <r>    1.1007    1.0000 </r>
       <r>    1.4481    1.0000 </r>
       <r>    1.8751    1.0000 </r>
       <r>    2.6453    1.0000 </r>
       <r>    2.9764    1.0000 </r>
       <r>    3.2720    1.0000 </r>
       <r>    3.5639    1.0000 </r>
       <r>    3.5958    1.0000 </r>
       <r>    3.9973    1.0000 </r>
       <r>    4.2541    1.0000 </r>
       <r>    4.3679    1.0000 </r>
       <r>    4.8165    1.0000 </r>
       <r>    5.9024    0.0000 </r>
       <r>    5.9425    0.0000 </r>
       <r>    6.0913    0.0000 </r>
       <r>    6.2138    0.0000 </r>
       <r>    6.2413    0.0000 </r>
       <r>    6.2951    0.0000 </r>
       <r>    7.6067    0.0000 </r>
       <r>    8.1248    0.0000 </r>
       <r>    8.1561    0.0000 </r>
       <r>    8.1910    0.0000 </r>
       <r>    8.7870    0.0000 </r>
       <r>    9.2863    0.0000 </r>
      </set>
      <set comment="kpoint 3">
       <r>  -57.4285    1.0000 </r>
       <r>  -57.4282    1.0000 </r>
       <r>  -56.5098    1.0000 </r>
       <r>  -56.5090    1.0000 </r>
       <r>  -30.8917    1.0000 </r>
       <r>  -30.8899    1.0000 </r>
       <r>  -30.7428    1.0000 </r>
       <r>  -30.7362    1.0000 </r>
       <r>  -30.7308    1.0000 </r>
       <r>  -30.7239    1.0000 </r>
       <r>  -30.4437    1.0000 </r>
       <r>  -30.4233    1.0000 </r>
       <r>  -29.8569    1.0000 </r>
       <r>  -29.8498    1.0000 </r>
       <r>  -29.8429    1.0000 </r>
       <r>  -29.8361    1.0000 </r>
       <r>   -3.9537    1.0000 </r>
       <r>   -1.8617    1.0000 </r>
       <r>   -1.5098    1.0000 </r>
       <r>   -1.5055    1.0000 </r>
       <r>   -0.7065    1.0000 </r>
       <r>   -0.3450    1.0000 </r>
       <r>    1.1909    1.0000 </r>
       <r>    1.4340    1.0000 </r>
       <r>    1.5315    1.0000 </r>
       <r>    2.1111    1.0000 </r>
       <r>    2.6522    1.0000 </r>
       <r>    2.8400    1.0000 </r>
       <r>    2.9971    1.0000 </r>
       <r>    3.0831    1.0000 </r>
       <r>    3.3248    1.0000 </r>
       <r>    3.3275    1.0000 </r>
       <r>    3.4503    1.0000 </r>
       <r>    4.2005    1.0000 </r>
       <r>    4.3187    1.0000 </r>
       <r>    4.9406    1.0000 </r>
       <r>    5.0279    1.0000 </r>
       <r>    5.5106    0.9998 </r>
       <r>    5.9941    0.0000 </r>
       <r>    6.0798    0.0000 </r>
       <r>    6.1637    0.0000 </r>
       <r>    6.1657    0.0000 </r>
       <r>    7.6147    0.0000 </r>
       <r>    8.2536    0.0000 </r>
       <r>    8.4607    0.0000 </r>
       <r>    8.6104    0.0000 </r>
       <r>    8.6290    0.0000 </r>
       <r>    8.8743    0.0000 </r>
      </set>
      <set comment="kpoint 4">
       <r>  -57.4284    1.0000 </r>
       <r>  -57.4283    1.0000 </r>
       <r>  -56.5096    1.0000 </r>
       <r>  -56.5093    1.0000 </r>
       <r>  -30.8910    1.0000 </r>
       <r>  -30.8903    1.0000 </r>
       <r>  -30.7406    1.0000 </r>
       <r>  -30.7382    1.0000 </r>
       <r>  -30.7216    1.0000 </r>
       <r>  -30.7191    1.0000 </r>
       <r>  -30.4373    1.0000 </r>
       <r>  -30.4300    1.0000 </r>
       <r>  -29.8626    1.0000 </r>
       <r>  -29.8600    1.0000 </r>
       <r>  -29.8409    1.0000 </r>
       <r>  -29.8384    1.0000 </r>
       <r>   -3.4070    1.0000 </r>
       <r>   -2.6915    1.0000 </r>
       <r>   -1.3330    1.0000 </r>
       <r>   -1.2051    1.0000 </r>
       <r>   -1.0711    1.0000 </r>
       <r>   -0.8046    1.0000 </r>
       <r>    1.6489    1.0000 </r>
       <r>    1.9019    1.0000 </r>
       <r>    2.1125    1.0000 </r>
       <r>    2.2214    1.0000 </r>
       <r>    2.4758    1.0000 </r>
       <r>    2.6613    1.0000 </r>
       <r>    2.7810    1.0000 </r>
       <r>    3.0932    1.0000 </r>
       <r>    3.4990    1.0000 </r>
       <r>    3.5102    1.0000 </r>
       <r>    3.7359    1.0000 </r>
       <r>    4.0033    1.0000 </r>
       <r>    4.0529    1.0000 </r>
       <r>    4.2229    1.0000 </r>
       <r>    5.1555    1.0000 </r>
       <r>    5.2732    1.0000 </r>
       <r>    5.7340    0.0000 </r>
       <r>    5.7700    0.0000 </r>
       <r>    6.0823    0.0000 </r>
       <r>    6.1135    0.0000 </r>
       <r>    7.7357    0.0000 </r>
       <r>    7.9287    0.0000 </r>
       <r>    8.6203    0.0000 </r>
       <r>    8.7158    0.0000 </r>
       <r>    8.8348    0.0000 </r>
       <r>    9.1206    0.0000 </r>
      </set>
      <set comment="kpoint 5">
       <r>  -57.4286    1.0000 </r>
       <r>  -57.4282    1.0000 </r>
       <r>  -56.5097    1.0000 </r>
       <r>  -56.5091    1.0000 </r>
       <r>  -30.8915    1.0000 </r>
       <r>  -30.8902    1.0000 </r>
       <r>  -30.7404    1.0000 </r>
       <r>  -30.7401    1.0000 </r>
       <r>  -30.7316    1.0000 </r>
       <r>  -30.7313    1.0000 </r>
       <r>  -30.4437    1.0000 </r>
       <r>  -30.4232    1.0000 </r>
       <r>  -29.8483    1.0000 </r>
       <r>  -29.8480    1.0000 </r>
       <r>  -29.8394    1.0000 </r>
       <r>  -29.8389    1.0000 </r>
       <r>   -4.0867    1.0000 </r>
       <r>   -1.6518    1.0000 </r>
       <r>   -1.6399    1.0000 </r>
       <r>   -1.5268    1.0000 </r>
       <r>   -0.4449    1.0000 </r>
       <r>   -0.1604    1.0000 </r>
       <r>    1.1324    1.0000 </r>
       <r>    1.1877    1.0000 </r>
       <r>    1.4468    1.0000 </r>
       <r>    1.6301    1.0000 </r>
       <r>    2.5814    1.0000 </r>
       <r>    2.8051    1.0000 </r>
       <r>    3.0382    1.0000 </r>
       <r>    3.0841    1.0000 </r>
       <r>    3.2442    1.0000 </r>
       <r>    3.5360    1.0000 </r>
       <r>    3.5688    1.0000 </r>
       <r>    4.1614    1.0000 </r>
       <r>    4.5056    1.0000 </r>
       <r>    4.9853    1.0000 </r>
       <r>    5.4948    1.0000 </r>
       <r>    5.6822    0.0000 </r>
       <r>    5.9839    0.0000 </r>
       <r>    6.0507    0.0000 </r>
       <r>    6.1181    0.0000 </r>
       <r>    6.2570    0.0000 </r>
       <r>    7.8562    0.0000 </r>
       <r>    8.1179    0.0000 </r>
       <r>    8.4195    0.0000 </r>
       <r>    8.5084    0.0000 </r>
       <r>    8.5628    0.0000 </r>
       <r>    8.8456    0.0000 </r>
      </set>
      <set comment="kpoint 6">
       <r>  -57.4284    1.0000 </r>
       <r>  -57.4282    1.0000 </r>
       <r>  -56.5095    1.0000 </r>
       <r>  -56.5094    1.0000 </r>
       <r>  -30.8908    1.0000 </r>
       <r>  -30.8906    1.0000 </r>
       <r>  -30.7389    1.0000 </r>
       <r>  -30.7326    1.0000 </r>
       <r>  -30.7305    1.0000 </r>
       <r>  -30.7242    1.0000 </r>
       <r>  -30.4373    1.0000 </r>
       <r>  -30.4299    1.0000 </r>
       <r>  -29.8565    1.0000 </r>
       <r>  -29.8503    1.0000 </r>
       <r>  -29.8468    1.0000 </r>
       <r>  -29.8407    1.0000 </r>
       <r>   -3.6582    1.0000 </r>
       <r>   -2.3360    1.0000 </r>
       <r>   -1.5337    1.0000 </r>
       <r>   -1.3448    1.0000 </r>
       <r>   -0.9009    1.0000 </r>
       <r>   -0.4433    1.0000 </r>
       <r>    1.4209    1.0000 </r>
       <r>    1.6031    1.0000 </r>
       <r>    1.7720    1.0000 </r>
       <r>    2.1171    1.0000 </r>
       <r>    2.4458    1.0000 </r>
       <r>    2.9306    1.0000 </r>
       <r>    3.1161    1.0000 </r>
       <r>    3.1324    1.0000 </r>
       <r>    3.2951    1.0000 </r>
       <r>    3.4132    1.0000 </r>
       <r>    3.5549    1.0000 </r>
       <r>    3.8138    1.0000 </r>
       <r>    4.4263    1.0000 </r>
       <r>    4.6437    1.0000 </r>
       <r>    5.2488    1.0000 </r>
       <r>    5.3082    1.0000 </r>
       <r>    5.8200    0.0000 </r>
       <r>    5.8785    0.0000 </r>
       <r>    6.0016    0.0000 </r>
       <r>    6.0493    0.0000 </r>
       <r>    8.0165    0.0000 </r>
       <r>    8.2308    0.0000 </r>
       <r>    8.3639    0.0000 </r>
       <r>    8.6766    0.0000 </r>
       <r>    8.7576    0.0000 </r>
       <r>    8.9911    0.0000 </r>
      </set>
      <set comment="kpoint 7">
       <r>  -57.4283    1.0000 </r>
       <r>  -57.4283    1.0000 </r>
       <r>  -56.5097    1.0000 </r>
       <r>  -56.5092    1.0000 </r>
       <r>  -30.8914    1.0000 </r>
       <r>  -30.8898    1.0000 </r>
       <r>  -30.7368    1.0000 </r>
       <r>  -30.7345    1.0000 </r>
       <r>  -30.7215    1.0000 </r>
       <r>  -30.7191    1.0000 </r>
       <r>  -30.4374    1.0000 </r>
       <r>  -30.4301    1.0000 </r>
       <r>  -29.8624    1.0000 </r>
       <r>  -29.8603    1.0000 </r>
       <r>  -29.8449    1.0000 </r>
       <r>  -29.8429    1.0000 </r>
       <r>   -3.0340    1.0000 </r>
       <r>   -3.0184    1.0000 </r>
       <r>   -1.3473    1.0000 </r>
       <r>   -1.2505    1.0000 </r>
       <r>   -1.0658    1.0000 </r>
       <r>   -0.7952    1.0000 </r>
       <r>    1.7886    1.0000 </r>
       <r>    1.8965    1.0000 </r>
       <r>    2.2036    1.0000 </r>
       <r>    2.2844    1.0000 </r>
       <r>    2.3271    1.0000 </r>
       <r>    2.6388    1.0000 </r>
       <r>    2.6699    1.0000 </r>
       <r>    3.0649    1.0000 </r>
       <r>    3.4873    1.0000 </r>
       <r>    3.5013    1.0000 </r>
       <r>    3.6189    1.0000 </r>
       <r>    3.9834    1.0000 </r>
       <r>    4.1412    1.0000 </r>
       <r>    4.2353    1.0000 </r>
       <r>    5.0607    1.0000 </r>
       <r>    5.3438    1.0000 </r>
       <r>    5.5553    0.6498 </r>
       <r>    5.8339    0.0000 </r>
       <r>    5.9091    0.0000 </r>
       <r>    6.0796    0.0000 </r>
       <r>    7.9216    0.0000 </r>
       <r>    8.0978    0.0000 </r>
       <r>    8.6531    0.0000 </r>
       <r>    8.6607    0.0000 </r>
       <r>    8.6734    0.0000 </r>
       <r>    8.8270    0.0000 </r>
      </set>
      <set comment="kpoint 8">
       <r>  -57.4284    1.0000 </r>
       <r>  -57.4282    1.0000 </r>
       <r>  -56.5100    1.0000 </r>
       <r>  -56.5090    1.0000 </r>
       <r>  -30.8920    1.0000 </r>
       <r>  -30.8892    1.0000 </r>
       <r>  -30.7366    1.0000 </r>
       <r>  -30.7347    1.0000 </r>
       <r>  -30.7214    1.0000 </r>
       <r>  -30.7193    1.0000 </r>
       <r>  -30.4439    1.0000 </r>
       <r>  -30.4236    1.0000 </r>
       <r>  -29.8627    1.0000 </r>
       <r>  -29.8601    1.0000 </r>
       <r>  -29.8451    1.0000 </r>
       <r>  -29.8427    1.0000 </r>
       <r>   -3.6067    1.0000 </r>
       <r>   -2.2531    1.0000 </r>
       <r>   -1.4817    1.0000 </r>
       <r>   -1.1314    1.0000 </r>
       <r>   -1.0944    1.0000 </r>
       <r>   -0.7276    1.0000 </r>
       <r>    1.4609    1.0000 </r>
       <r>    1.7523    1.0000 </r>
       <r>    2.0634    1.0000 </r>
       <r>    2.2798    1.0000 </r>
       <r>    2.5318    1.0000 </r>
       <r>    2.8321    1.0000 </r>
       <r>    2.8820    1.0000 </r>
       <r>    2.9240    1.0000 </r>
       <r>    3.1852    1.0000 </r>
       <r>    3.5391    1.0000 </r>
       <r>    3.7806    1.0000 </r>
       <r>    3.8260    1.0000 </r>
       <r>    3.9562    1.0000 </r>
       <r>    4.4571    1.0000 </r>
       <r>    4.8621    1.0000 </r>
       <r>    5.2641    1.0000 </r>
       <r>    5.7637    0.0000 </r>
       <r>    5.9719    0.0000 </r>
       <r>    5.9906    0.0000 </r>
       <r>    6.3755    0.0000 </r>
       <r>    7.6525    0.0000 </r>
       <r>    8.1697    0.0000 </r>
       <r>    8.3426    0.0000 </r>
       <r>    8.5101    0.0000 </r>
       <r>    8.6944    0.0000 </r>
       <r>    9.2719    0.0000 </r>
      </set>
      <set comment="kpoint 9">
       <r>  -57.4285    1.0000 </r>
       <r>  -57.4282    1.0000 </r>
       <r>  -56.5101    1.0000 </r>
       <r>  -56.5088    1.0000 </r>
       <r>  -30.8924    1.0000 </r>
       <r>  -30.8890    1.0000 </r>
       <r>  -30.7387    1.0000 </r>
       <r>  -30.7328    1.0000 </r>
       <r>  -30.7303    1.0000 </r>
       <r>  -30.7243    1.0000 </r>
       <r>  -30.4483    1.0000 </r>
       <r>  -30.4189    1.0000 </r>
       <r>  -29.8567    1.0000 </r>
       <r>  -29.8501    1.0000 </r>
       <r>  -29.8470    1.0000 </r>
       <r>  -29.8406    1.0000 </r>
       <r>   -4.0403    1.0000 </r>
       <r>   -1.6189    1.0000 </r>
       <r>   -1.3971    1.0000 </r>
       <r>   -1.3838    1.0000 </r>
       <r>   -0.7858    1.0000 </r>
       <r>   -0.4328    1.0000 </r>
       <r>    1.1605    1.0000 </r>
       <r>    1.3129    1.0000 </r>
       <r>    1.6464    1.0000 </r>
       <r>    1.9762    1.0000 </r>
       <r>    2.0697    1.0000 </r>
       <r>    2.8481    1.0000 </r>
       <r>    3.1599    1.0000 </r>
       <r>    3.1951    1.0000 </r>
       <r>    3.3984    1.0000 </r>
       <r>    3.5535    1.0000 </r>
       <r>    3.6567    1.0000 </r>
       <r>    3.9538    1.0000 </r>
       <r>    4.4554    1.0000 </r>
       <r>    4.5300    1.0000 </r>
       <r>    4.7748    1.0000 </r>
       <r>    5.5262    0.9928 </r>
       <r>    5.8486    0.0000 </r>
       <r>    6.0580    0.0000 </r>
       <r>    6.2326    0.0000 </r>
       <r>    6.6897    0.0000 </r>
       <r>    7.4864    0.0000 </r>
       <r>    8.1405    0.0000 </r>
       <r>    8.2407    0.0000 </r>
       <r>    8.3515    0.0000 </r>
       <r>    8.7829    0.0000 </r>
       <r>    8.8693    0.0000 </r>
      </set>
      <set comment="kpoint 10">
       <r>  -57.4286    1.0000 </r>
       <r>  -57.4282    1.0000 </r>
       <r>  -56.5100    1.0000 </r>
       <r>  -56.5087    1.0000 </r>
       <r>  -30.8925    1.0000 </r>
       <r>  -30.8891    1.0000 </r>
       <r>  -30.7403    1.0000 </r>
       <r>  -30.7401    1.0000 </r>
       <r>  -30.7317    1.0000 </r>
       <r>  -30.7313    1.0000 </r>
       <r>  -30.4498    1.0000 </r>
       <r>  -30.4171    1.0000 </r>
       <r>  -29.8485    1.0000 </r>
       <r>  -29.8480    1.0000 </r>
       <r>  -29.8392    1.0000 </r>
       <r>  -29.8389    1.0000 </r>
       <r>   -4.2781    1.0000 </r>
       <r>   -1.6857    1.0000 </r>
       <r>   -1.5610    1.0000 </r>
       <r>   -0.7637    1.0000 </r>
       <r>   -0.3507    1.0000 </r>
       <r>   -0.3065    1.0000 </r>
       <r>    0.9898    1.0000 </r>
       <r>    1.2054    1.0000 </r>
       <r>    1.2891    1.0000 </r>
       <r>    1.3816    1.0000 </r>
       <r>    1.6758    1.0000 </r>
       <r>    2.8112    1.0000 </r>
       <r>    3.0938    1.0000 </r>
       <r>    3.2649    1.0000 </r>
       <r>    3.3867    1.0000 </r>
       <r>    3.8184    1.0000 </r>
       <r>    3.9591    1.0000 </r>
       <r>    4.2205    1.0000 </r>
       <r>    4.3058    1.0000 </r>
       <r>    4.6160    1.0000 </r>
       <r>    5.4764    1.0000 </r>
       <r>    5.8758    0.0000 </r>
       <r>    5.9213    0.0000 </r>
       <r>    6.1381    0.0000 </r>
       <r>    6.3803    0.0000 </r>
       <r>    6.5526    0.0000 </r>
       <r>    7.5596    0.0000 </r>
       <r>    7.9965    0.0000 </r>
       <r>    8.0491    0.0000 </r>
       <r>    8.4611    0.0000 </r>
       <r>    8.8459    0.0000 </r>
       <r>    9.1293    0.0000 </r>
      </set>
      <set comment="kpoint 11">
       <r>  -57.4283    1.0000 </r>
       <r>  -57.4282    1.0000 </r>
       <r>  -56.5098    1.0000 </r>
       <r>  -56.5092    1.0000 </r>
       <r>  -30.8916    1.0000 </r>
       <r>  -30.8895    1.0000 </r>
       <r>  -30.7299    1.0000 </r>
       <r>  -30.7290    1.0000 </r>
       <r>  -30.7253    1.0000 </r>
       <r>  -30.7245    1.0000 </r>
       <r>  -30.4374    1.0000 </r>
       <r>  -30.4302    1.0000 </r>
       <r>  -29.8562    1.0000 </r>
       <r>  -29.8551    1.0000 </r>
       <r>  -29.8521    1.0000 </r>
       <r>  -29.8508    1.0000 </r>
       <r>   -3.1647    1.0000 </r>
       <r>   -2.7984    1.0000 </r>
       <r>   -1.4765    1.0000 </r>
       <r>   -1.2479    1.0000 </r>
       <r>   -1.1428    1.0000 </r>
       <r>   -0.5520    1.0000 </r>
       <r>    1.8134    1.0000 </r>
       <r>    1.8325    1.0000 </r>
       <r>    1.9556    1.0000 </r>
       <r>    2.0346    1.0000 </r>
       <r>    2.4000    1.0000 </r>
       <r>    2.5783    1.0000 </r>
       <r>    3.0436    1.0000 </r>
       <r>    3.1406    1.0000 </r>
       <r>    3.3675    1.0000 </r>
       <r>    3.3907    1.0000 </r>
       <r>    3.4962    1.0000 </r>
       <r>    3.9532    1.0000 </r>
       <r>    4.3269    1.0000 </r>
       <r>    4.3589    1.0000 </r>
       <r>    5.0003    1.0000 </r>
       <r>    5.4184    1.0000 </r>
       <r>    5.5689    0.2822 </r>
       <r>    5.6501    0.0000 </r>
       <r>    5.9012    0.0000 </r>
       <r>    6.0039    0.0000 </r>
       <r>    8.0324    0.0000 </r>
       <r>    8.5247    0.0000 </r>
       <r>    8.5836    0.0000 </r>
       <r>    8.6124    0.0000 </r>
       <r>    8.8538    0.0000 </r>
       <r>    9.1462    0.0000 </r>
      </set>
      <set comment="kpoint 12">
       <r>  -57.4283    1.0000 </r>
       <r>  -57.4282    1.0000 </r>
       <r>  -56.5101    1.0000 </r>
       <r>  -56.5089    1.0000 </r>
       <r>  -30.8923    1.0000 </r>
       <r>  -30.8886    1.0000 </r>
       <r>  -30.7281    1.0000 </r>
       <r>  -30.7262    1.0000 </r>
       <r>  -30.7211    1.0000 </r>
       <r>  -30.7192    1.0000 </r>
       <r>  -30.4440    1.0000 </r>
       <r>  -30.4237    1.0000 </r>
       <r>  -29.8622    1.0000 </r>
       <r>  -29.8610    1.0000 </r>
       <r>  -29.8543    1.0000 </r>
       <r>  -29.8530    1.0000 </r>
       <r>   -3.2486    1.0000 </r>
       <r>   -2.5050    1.0000 </r>
       <r>   -1.5121    1.0000 </r>
       <r>   -1.3471    1.0000 </r>
       <r>   -0.9393    1.0000 </r>
       <r>   -0.7400    1.0000 </r>
       <r>    1.5548    1.0000 </r>
       <r>    1.9591    1.0000 </r>
       <r>    2.0603    1.0000 </r>
       <r>    2.3432    1.0000 </r>
       <r>    2.5136    1.0000 </r>
       <r>    2.5757    1.0000 </r>
       <r>    2.9012    1.0000 </r>
       <r>    2.9215    1.0000 </r>
       <r>    3.2196    1.0000 </r>
       <r>    3.4201    1.0000 </r>
       <r>    3.6017    1.0000 </r>
       <r>    3.6109    1.0000 </r>
       <r>    4.1030    1.0000 </r>
       <r>    4.6156    1.0000 </r>
       <r>    4.7586    1.0000 </r>
       <r>    5.0134    1.0000 </r>
       <r>    5.4835    1.0000 </r>
       <r>    5.7929    0.0000 </r>
       <r>    5.8973    0.0000 </r>
       <r>    6.5079    0.0000 </r>
       <r>    7.6695    0.0000 </r>
       <r>    8.2423    0.0000 </r>
       <r>    8.5734    0.0000 </r>
       <r>    8.8405    0.0000 </r>
       <r>    8.9899    0.0000 </r>
       <r>    9.5177    0.0000 </r>
      </set>
      <set comment="kpoint 13">
       <r>  -57.4283    1.0000 </r>
       <r>  -57.4281    1.0000 </r>
       <r>  -56.5103    1.0000 </r>
       <r>  -56.5088    1.0000 </r>
       <r>  -30.8927    1.0000 </r>
       <r>  -30.8882    1.0000 </r>
       <r>  -30.7277    1.0000 </r>
       <r>  -30.7265    1.0000 </r>
       <r>  -30.7208    1.0000 </r>
       <r>  -30.7195    1.0000 </r>
       <r>  -30.4486    1.0000 </r>
       <r>  -30.4192    1.0000 </r>
       <r>  -29.8626    1.0000 </r>
       <r>  -29.8606    1.0000 </r>
       <r>  -29.8546    1.0000 </r>
       <r>  -29.8527    1.0000 </r>
       <r>   -3.6461    1.0000 </r>
       <r>   -1.7390    1.0000 </r>
       <r>   -1.6450    1.0000 </r>
       <r>   -1.1661    1.0000 </r>
       <r>   -0.9785    1.0000 </r>
       <r>   -0.8351    1.0000 </r>
       <r>    1.2597    1.0000 </r>
       <r>    1.6185    1.0000 </r>
       <r>    2.1019    1.0000 </r>
       <r>    2.2310    1.0000 </r>
       <r>    2.4557    1.0000 </r>
       <r>    2.6276    1.0000 </r>
       <r>    2.9250    1.0000 </r>
       <r>    3.1603    1.0000 </r>
       <r>    3.3458    1.0000 </r>
       <r>    3.5867    1.0000 </r>
       <r>    3.5988    1.0000 </r>
       <r>    3.7286    1.0000 </r>
       <r>    3.8100    1.0000 </r>
       <r>    4.4348    1.0000 </r>
       <r>    4.6413    1.0000 </r>
       <r>    5.0404    1.0000 </r>
       <r>    5.4400    1.0000 </r>
       <r>    5.8011    0.0000 </r>
       <r>    6.1917    0.0000 </r>
       <r>    7.1201    0.0000 </r>
       <r>    7.3885    0.0000 </r>
       <r>    7.9986    0.0000 </r>
       <r>    8.3779    0.0000 </r>
       <r>    8.7130    0.0000 </r>
       <r>    9.1808    0.0000 </r>
       <r>    9.4667    0.0000 </r>
      </set>
      <set comment="kpoint 14">
       <r>  -57.4284    1.0000 </r>
       <r>  -57.4281    1.0000 </r>
       <r>  -56.5103    1.0000 </r>
       <r>  -56.5087    1.0000 </r>
       <r>  -30.8927    1.0000 </r>
       <r>  -30.8884    1.0000 </r>
       <r>  -30.7296    1.0000 </r>
       <r>  -30.7288    1.0000 </r>
       <r>  -30.7257    1.0000 </r>
       <r>  -30.7247    1.0000 </r>
       <r>  -30.4501    1.0000 </r>
       <r>  -30.4174    1.0000 </r>
       <r>  -29.8566    1.0000 </r>
       <r>  -29.8553    1.0000 </r>
       <r>  -29.8518    1.0000 </r>
       <r>  -29.8506    1.0000 </r>
       <r>   -3.9275    1.0000 </r>
       <r>   -1.6704    1.0000 </r>
       <r>   -1.2121    1.0000 </r>
       <r>   -1.0191    1.0000 </r>
       <r>   -0.9705    1.0000 </r>
       <r>   -0.9359    1.0000 </r>
       <r>    1.0886    1.0000 </r>
       <r>    1.4913    1.0000 </r>
       <r>    1.8966    1.0000 </r>
       <r>    2.0187    1.0000 </r>
       <r>    2.0509    1.0000 </r>
       <r>    2.5946    1.0000 </r>
       <r>    3.1493    1.0000 </r>
       <r>    3.4757    1.0000 </r>
       <r>    3.5279    1.0000 </r>
       <r>    3.5616    1.0000 </r>
       <r>    3.7743    1.0000 </r>
       <r>    3.8596    1.0000 </r>
       <r>    3.9035    1.0000 </r>
       <r>    4.4350    1.0000 </r>
       <r>    4.4788    1.0000 </r>
       <r>    5.3892    1.0000 </r>
       <r>    5.5054    1.0000 </r>
       <r>    5.9031    0.0000 </r>
       <r>    6.3259    0.0000 </r>
       <r>    7.1806    0.0000 </r>
       <r>    7.3323    0.0000 </r>
       <r>    7.9346    0.0000 </r>
       <r>    8.2327    0.0000 </r>
       <r>    8.5092    0.0000 </r>
       <r>    9.2603    0.0000 </r>
       <r>    9.2881    0.0000 </r>
      </set>
      <set comment="kpoint 15">
       <r>  -57.4283    1.0000 </r>
       <r>  -57.4281    1.0000 </r>
       <r>  -56.5104    1.0000 </r>
       <r>  -56.5088    1.0000 </r>
       <r>  -30.8928    1.0000 </r>
       <r>  -30.8879    1.0000 </r>
       <r>  -30.7213    1.0000 </r>
       <r>  -30.7203    1.0000 </r>
       <r>  -30.7198    1.0000 </r>
       <r>  -30.7189    1.0000 </r>
       <r>  -30.4487    1.0000 </r>
       <r>  -30.4193    1.0000 </r>
       <r>  -29.8627    1.0000 </r>
       <r>  -29.8627    1.0000 </r>
       <r>  -29.8608    1.0000 </r>
       <r>  -29.8606    1.0000 </r>
       <r>   -3.4237    1.0000 </r>
       <r>   -1.8768    1.0000 </r>
       <r>   -1.6961    1.0000 </r>
       <r>   -1.3057    1.0000 </r>
       <r>   -0.9616    1.0000 </r>
       <r>   -0.7422    1.0000 </r>
       <r>    1.3051    1.0000 </r>
       <r>    1.6651    1.0000 </r>
       <r>    2.1420    1.0000 </r>
       <r>    2.3200    1.0000 </r>
       <r>    2.3677    1.0000 </r>
       <r>    2.7876    1.0000 </r>
       <r>    3.0236    1.0000 </r>
       <r>    3.0416    1.0000 </r>
       <r>    3.0990    1.0000 </r>
       <r>    3.4987    1.0000 </r>
       <r>    3.5727    1.0000 </r>
       <r>    3.6534    1.0000 </r>
       <r>    3.9705    1.0000 </r>
       <r>    4.3466    1.0000 </r>
       <r>    4.6074    1.0000 </r>
       <r>    4.7330    1.0000 </r>
       <r>    5.2962    1.0000 </r>
       <r>    5.6569    0.0000 </r>
       <r>    6.1841    0.0000 </r>
       <r>    7.2849    0.0000 </r>
       <r>    7.3523    0.0000 </r>
       <r>    7.9663    0.0000 </r>
       <r>    8.4223    0.0000 </r>
       <r>    9.3921    0.0000 </r>
       <r>    9.5000    0.0000 </r>
       <r>    9.9019    0.0000 </r>
      </set>
      <set comment="kpoint 16">
       <r>  -57.4283    1.0000 </r>
       <r>  -57.4281    1.0000 </r>
       <r>  -56.5105    1.0000 </r>
       <r>  -56.5087    1.0000 </r>
       <r>  -30.8929    1.0000 </r>
       <r>  -30.8877    1.0000 </r>
       <r>  -30.7208    1.0000 </r>
       <r>  -30.7207    1.0000 </r>
       <r>  -30.7195    1.0000 </r>
       <r>  -30.7192    1.0000 </r>
       <r>  -30.4503    1.0000 </r>
       <r>  -30.4177    1.0000 </r>
       <r>  -29.8632    1.0000 </r>
       <r>  -29.8621    1.0000 </r>
       <r>  -29.8612    1.0000 </r>
       <r>  -29.8603    1.0000 </r>
       <r>   -3.5665    1.0000 </r>
       <r>   -1.7355    1.0000 </r>
       <r>   -1.3027    1.0000 </r>
       <r>   -1.2724    1.0000 </r>
       <r>   -1.1707    1.0000 </r>
       <r>   -0.8303    1.0000 </r>
       <r>    1.1722    1.0000 </r>
       <r>    1.5210    1.0000 </r>
       <r>    2.1721    1.0000 </r>
       <r>    2.2232    1.0000 </r>
       <r>    2.4667    1.0000 </r>
       <r>    2.7212    1.0000 </r>
       <r>    2.8764    1.0000 </r>
       <r>    3.0800    1.0000 </r>
       <r>    3.3242    1.0000 </r>
       <r>    3.6120    1.0000 </r>
       <r>    3.6863    1.0000 </r>
       <r>    3.7132    1.0000 </r>
       <r>    3.8576    1.0000 </r>
       <r>    4.1475    1.0000 </r>
       <r>    4.6635    1.0000 </r>
       <r>    4.6713    1.0000 </r>
       <r>    5.2701    1.0000 </r>
       <r>    5.6615    0.0000 </r>
       <r>    6.3135    0.0000 </r>
       <r>    7.2234    0.0000 </r>
       <r>    7.6520    0.0000 </r>
       <r>    7.8765    0.0000 </r>
       <r>    8.3287    0.0000 </r>
       <r>    9.2692    0.0000 </r>
       <r>    9.6880    0.0000 </r>
       <r>    9.7144    0.0000 </r>
      </set>
      <set comment="kpoint 17">
       <r>  -57.4286    1.0000 </r>
       <r>  -57.4282    1.0000 </r>
       <r>  -56.5100    1.0000 </r>
       <r>  -56.5087    1.0000 </r>
       <r>  -30.8925    1.0000 </r>
       <r>  -30.8892    1.0000 </r>
       <r>  -30.7414    1.0000 </r>
       <r>  -30.7411    1.0000 </r>
       <r>  -30.7322    1.0000 </r>
       <r>  -30.7321    1.0000 </r>
       <r>  -30.4497    1.0000 </r>
       <r>  -30.4171    1.0000 </r>
       <r>  -29.8476    1.0000 </r>
       <r>  -29.8473    1.0000 </r>
       <r>  -29.8381    1.0000 </r>
       <r>  -29.8377    1.0000 </r>
       <r>   -4.3089    1.0000 </r>
       <r>   -1.6965    1.0000 </r>
       <r>   -1.5841    1.0000 </r>
       <r>   -0.7315    1.0000 </r>
       <r>   -0.2582    1.0000 </r>
       <r>   -0.2130    1.0000 </r>
       <r>    0.9803    1.0000 </r>
       <r>    1.1312    1.0000 </r>
       <r>    1.2155    1.0000 </r>
       <r>    1.3025    1.0000 </r>
       <r>    1.6620    1.0000 </r>
       <r>    2.7409    1.0000 </r>
       <r>    3.0400    1.0000 </r>
       <r>    3.2787    1.0000 </r>
       <r>    3.4770    1.0000 </r>
       <r>    3.8201    1.0000 </r>
       <r>    4.0106    1.0000 </r>
       <r>    4.2537    1.0000 </r>
       <r>    4.2910    1.0000 </r>
       <r>    4.6434    1.0000 </r>
       <r>    5.6622    0.0000 </r>
       <r>    5.9206    0.0000 </r>
       <r>    5.9629    0.0000 </r>
       <r>    6.1591    0.0000 </r>
       <r>    6.3864    0.0000 </r>
       <r>    6.4846    0.0000 </r>
       <r>    7.5907    0.0000 </r>
       <r>    7.9605    0.0000 </r>
       <r>    8.0406    0.0000 </r>
       <r>    8.3724    0.0000 </r>
       <r>    8.8544    0.0000 </r>
       <r>    9.1672    0.0000 </r>
      </set>
      <set comment="kpoint 18">
       <r>  -57.4285    1.0000 </r>
       <r>  -57.4282    1.0000 </r>
       <r>  -56.5100    1.0000 </r>
       <r>  -56.5088    1.0000 </r>
       <r>  -30.8924    1.0000 </r>
       <r>  -30.8891    1.0000 </r>
       <r>  -30.7398    1.0000 </r>
       <r>  -30.7334    1.0000 </r>
       <r>  -30.7318    1.0000 </r>
       <r>  -30.7251    1.0000 </r>
       <r>  -30.4483    1.0000 </r>
       <r>  -30.4189    1.0000 </r>
       <r>  -29.8557    1.0000 </r>
       <r>  -29.8485    1.0000 </r>
       <r>  -29.8463    1.0000 </r>
       <r>  -29.8393    1.0000 </r>
       <r>   -4.0837    1.0000 </r>
       <r>   -1.6214    1.0000 </r>
       <r>   -1.4416    1.0000 </r>
       <r>   -1.3329    1.0000 </r>
       <r>   -0.7241    1.0000 </r>
       <r>   -0.3639    1.0000 </r>
       <r>    1.1472    1.0000 </r>
       <r>    1.2508    1.0000 </r>
       <r>    1.5758    1.0000 </r>
       <r>    1.9406    1.0000 </r>
       <r>    2.0083    1.0000 </r>
       <r>    2.9324    1.0000 </r>
       <r>    3.0780    1.0000 </r>
       <r>    3.2264    1.0000 </r>
       <r>    3.3378    1.0000 </r>
       <r>    3.5852    1.0000 </r>
       <r>    3.6884    1.0000 </r>
       <r>    3.9930    1.0000 </r>
       <r>    4.4516    1.0000 </r>
       <r>    4.6058    1.0000 </r>
       <r>    4.8928    1.0000 </r>
       <r>    5.5770    0.1258 </r>
       <r>    5.8974    0.0000 </r>
       <r>    6.0867    0.0000 </r>
       <r>    6.2374    0.0000 </r>
       <r>    6.6291    0.0000 </r>
       <r>    7.4974    0.0000 </r>
       <r>    8.1679    0.0000 </r>
       <r>    8.2273    0.0000 </r>
       <r>    8.3461    0.0000 </r>
       <r>    8.7525    0.0000 </r>
       <r>    8.7612    0.0000 </r>
      </set>
      <set comment="kpoint 19">
       <r>  -57.4284    1.0000 </r>
       <r>  -57.4282    1.0000 </r>
       <r>  -56.5100    1.0000 </r>
       <r>  -56.5090    1.0000 </r>
       <r>  -30.8920    1.0000 </r>
       <r>  -30.8893    1.0000 </r>
       <r>  -30.7378    1.0000 </r>
       <r>  -30.7352    1.0000 </r>
       <r>  -30.7223    1.0000 </r>
       <r>  -30.7195    1.0000 </r>
       <r>  -30.4439    1.0000 </r>
       <r>  -30.4235    1.0000 </r>
       <r>  -29.8623    1.0000 </r>
       <r>  -29.8591    1.0000 </r>
       <r>  -29.8445    1.0000 </r>
       <r>  -29.8414    1.0000 </r>
       <r>   -3.6569    1.0000 </r>
       <r>   -2.2077    1.0000 </r>
       <r>   -1.4824    1.0000 </r>
       <r>   -1.1863    1.0000 </r>
       <r>   -1.0498    1.0000 </r>
       <r>   -0.6861    1.0000 </r>
       <r>    1.4413    1.0000 </r>
       <r>    1.6940    1.0000 </r>
       <r>    1.9995    1.0000 </r>
       <r>    2.3505    1.0000 </r>
       <r>    2.4848    1.0000 </r>
       <r>    2.8435    1.0000 </r>
       <r>    2.8620    1.0000 </r>
       <r>    2.9951    1.0000 </r>
       <r>    3.2114    1.0000 </r>
       <r>    3.4792    1.0000 </r>
       <r>    3.7279    1.0000 </r>
       <r>    3.8680    1.0000 </r>
       <r>    4.0834    1.0000 </r>
       <r>    4.4390    1.0000 </r>
       <r>    4.8731    1.0000 </r>
       <r>    5.2935    1.0000 </r>
       <r>    5.8040    0.0000 </r>
       <r>    5.9983    0.0000 </r>
       <r>    6.0052    0.0000 </r>
       <r>    6.3511    0.0000 </r>
       <r>    7.6428    0.0000 </r>
       <r>    8.1387    0.0000 </r>
       <r>    8.3645    0.0000 </r>
       <r>    8.5026    0.0000 </r>
       <r>    8.6753    0.0000 </r>
       <r>    9.2007    0.0000 </r>
      </set>
      <set comment="kpoint 20">
       <r>  -57.4283    1.0000 </r>
       <r>  -57.4283    1.0000 </r>
       <r>  -56.5097    1.0000 </r>
       <r>  -56.5092    1.0000 </r>
       <r>  -30.8914    1.0000 </r>
       <r>  -30.8898    1.0000 </r>
       <r>  -30.7374    1.0000 </r>
       <r>  -30.7356    1.0000 </r>
       <r>  -30.7208    1.0000 </r>
       <r>  -30.7190    1.0000 </r>
       <r>  -30.4373    1.0000 </r>
       <r>  -30.4301    1.0000 </r>
       <r>  -29.8627    1.0000 </r>
       <r>  -29.8611    1.0000 </r>
       <r>  -29.8437    1.0000 </r>
       <r>  -29.8422    1.0000 </r>
       <r>   -3.0662    1.0000 </r>
       <r>   -3.0005    1.0000 </r>
       <r>   -1.3156    1.0000 </r>
       <r>   -1.2549    1.0000 </r>
       <r>   -1.0447    1.0000 </r>
       <r>   -0.8482    1.0000 </r>
       <r>    1.8278    1.0000 </r>
       <r>    1.8799    1.0000 </r>
       <r>    2.2497    1.0000 </r>
       <r>    2.2660    1.0000 </r>
       <r>    2.3281    1.0000 </r>
       <r>    2.5783    1.0000 </r>
       <r>    2.7328    1.0000 </r>
       <r>    3.0205    1.0000 </r>
       <r>    3.4926    1.0000 </r>
       <r>    3.5562    1.0000 </r>
       <r>    3.6684    1.0000 </r>
       <r>    3.9543    1.0000 </r>
       <r>    4.0966    1.0000 </r>
       <r>    4.2148    1.0000 </r>
       <r>    5.0731    1.0000 </r>
       <r>    5.3268    1.0000 </r>
       <r>    5.5753    0.1528 </r>
       <r>    5.8233    0.0000 </r>
       <r>    5.9421    0.0000 </r>
       <r>    6.0901    0.0000 </r>
       <r>    7.8921    0.0000 </r>
       <r>    8.0362    0.0000 </r>
       <r>    8.6456    0.0000 </r>
       <r>    8.6520    0.0000 </r>
       <r>    8.6836    0.0000 </r>
       <r>    8.8656    0.0000 </r>
      </set>
      <set comment="kpoint 21">
       <r>  -57.4284    1.0000 </r>
       <r>  -57.4282    1.0000 </r>
       <r>  -56.5095    1.0000 </r>
       <r>  -56.5094    1.0000 </r>
       <r>  -30.8908    1.0000 </r>
       <r>  -30.8906    1.0000 </r>
       <r>  -30.7395    1.0000 </r>
       <r>  -30.7336    1.0000 </r>
       <r>  -30.7293    1.0000 </r>
       <r>  -30.7232    1.0000 </r>
       <r>  -30.4373    1.0000 </r>
       <r>  -30.4300    1.0000 </r>
       <r>  -29.8576    1.0000 </r>
       <r>  -29.8517    1.0000 </r>
       <r>  -29.8458    1.0000 </r>
       <r>  -29.8399    1.0000 </r>
       <r>   -3.6395    1.0000 </r>
       <r>   -2.3686    1.0000 </r>
       <r>   -1.5148    1.0000 </r>
       <r>   -1.3380    1.0000 </r>
       <r>   -0.9127    1.0000 </r>
       <r>   -0.4776    1.0000 </r>
       <r>    1.4224    1.0000 </r>
       <r>    1.6426    1.0000 </r>
       <r>    1.7928    1.0000 </r>
       <r>    2.1812    1.0000 </r>
       <r>    2.4346    1.0000 </r>
       <r>    2.8736    1.0000 </r>
       <r>    3.0969    1.0000 </r>
       <r>    3.1502    1.0000 </r>
       <r>    3.3305    1.0000 </r>
       <r>    3.3805    1.0000 </r>
       <r>    3.5555    1.0000 </r>
       <r>    3.8443    1.0000 </r>
       <r>    4.3881    1.0000 </r>
       <r>    4.6269    1.0000 </r>
       <r>    5.2371    1.0000 </r>
       <r>    5.3029    1.0000 </r>
[...]
       <r>  -56.5082    1.0000 </r>
       <r>  -30.8946    1.0000 </r>
       <r>  -30.8874    1.0000 </r>
       <r>  -30.7443    1.0000 </r>
       <r>  -30.7441    1.0000 </r>
       <r>  -30.7332    1.0000 </r>
       <r>  -30.7332    1.0000 </r>
       <r>  -30.4479    1.0000 </r>
       <r>  -30.4187    1.0000 </r>
       <r>  -29.8453    1.0000 </r>
       <r>  -29.8453    1.0000 </r>
       <r>  -29.8356    1.0000 </r>
       <r>  -29.8355    1.0000 </r>
       <r>   -3.1534    1.0000 </r>
       <r>   -2.9910    1.0000 </r>
       <r>   -1.6009    1.0000 </r>
       <r>   -1.5424    1.0000 </r>
       <r>   -0.4656    1.0000 </r>
       <r>   -0.3326    1.0000 </r>
       <r>    0.8388    1.0000 </r>
       <r>    1.0483    1.0000 </r>
       <r>    1.6216    1.0000 </r>
       <r>    2.4932    1.0000 </r>
       <r>    2.5632    1.0000 </r>
       <r>    2.6022    1.0000 </r>
       <r>    2.6096    1.0000 </r>
       <r>    2.7166    1.0000 </r>
       <r>    2.8353    1.0000 </r>
       <r>    3.4115    1.0000 </r>
       <r>    4.7621    1.0000 </r>
       <r>    4.7706    1.0000 </r>
       <r>    4.9125    1.0000 </r>
       <r>    5.7292    0.0000 </r>
       <r>    5.8988    0.0000 </r>
       <r>    6.1046    0.0000 </r>
       <r>    6.2211    0.0000 </r>
       <r>    6.2552    0.0000 </r>
       <r>    6.3787    0.0000 </r>
       <r>    6.6905    0.0000 </r>
       <r>    6.7916    0.0000 </r>
       <r>    6.9762    0.0000 </r>
       <r>    7.1449    0.0000 </r>
       <r>    7.1532    0.0000 </r>
       <r>    8.4289    0.0000 </r>
       <r>    8.6766    0.0000 </r>
      </set>
      <set comment="kpoint 116">
       <r>  -57.4285    1.0000 </r>
       <r>  -57.4283    1.0000 </r>
       <r>  -56.5105    1.0000 </r>
       <r>  -56.5081    1.0000 </r>
       <r>  -30.8949    1.0000 </r>
       <r>  -30.8871    1.0000 </r>
       <r>  -30.7442    1.0000 </r>
       <r>  -30.7442    1.0000 </r>
       <r>  -30.7332    1.0000 </r>
       <r>  -30.7331    1.0000 </r>
       <r>  -30.4495    1.0000 </r>
       <r>  -30.4171    1.0000 </r>
       <r>  -29.8454    1.0000 </r>
       <r>  -29.8452    1.0000 </r>
       <r>  -29.8356    1.0000 </r>
       <r>  -29.8356    1.0000 </r>
       <r>   -3.0568    1.0000 </r>
       <r>   -3.0539    1.0000 </r>
       <r>   -1.5933    1.0000 </r>
       <r>   -1.5594    1.0000 </r>
       <r>   -0.4823    1.0000 </r>
       <r>   -0.3492    1.0000 </r>
       <r>    0.8311    1.0000 </r>
       <r>    1.0468    1.0000 </r>
       <r>    1.5018    1.0000 </r>
       <r>    2.5279    1.0000 </r>
       <r>    2.5719    1.0000 </r>
       <r>    2.6585    1.0000 </r>
       <r>    2.6647    1.0000 </r>
       <r>    2.6832    1.0000 </r>
       <r>    2.8191    1.0000 </r>
       <r>    3.4156    1.0000 </r>
       <r>    4.7134    1.0000 </r>
       <r>    4.7823    1.0000 </r>
       <r>    4.9258    1.0000 </r>
       <r>    5.7114    0.0000 </r>
       <r>    5.8870    0.0000 </r>
       <r>    6.1961    0.0000 </r>
       <r>    6.2881    0.0000 </r>
       <r>    6.3492    0.0000 </r>
       <r>    6.4329    0.0000 </r>
       <r>    6.7308    0.0000 </r>
       <r>    6.8313    0.0000 </r>
       <r>    6.9452    0.0000 </r>
       <r>    6.9617    0.0000 </r>
       <r>    7.1426    0.0000 </r>
       <r>    8.4484    0.0000 </r>
       <r>    8.7057    0.0000 </r>
      </set>
     </set>
    </set>
   </array>
  </eigenvalues>
  <separator name="orbital magnetization" >
   <v name="MAGDIPOLOUT">      0.00000000      0.00000000      0.00000000</v>
  </separator>
  <dos>
   <i name="efermi">      5.56076881 </i>
   <total>
    <array>
     <dimension dim="1">gridpoints</dimension>
     <dimension dim="2">spin</dimension>
     <field>energy</field>
     <field>total</field>
     <field>integrated</field>
     <set>
      <set comment="spin 1">
       <r>   -60.7952     0.0000     0.0000 </r>
       <r>   -60.5483     0.0000     0.0000 </r>
       <r>   -60.3014     0.0000     0.0000 </r>
       <r>   -60.0545     0.0000     0.0000 </r>
       <r>   -59.8077     0.0000     0.0000 </r>
       <r>   -59.5608     0.0000     0.0000 </r>
       <r>   -59.3139     0.0000     0.0000 </r>
       <r>   -59.0670     0.0000     0.0000 </r>
       <r>   -58.8202     0.0000     0.0000 </r>
       <r>   -58.5733     0.0000     0.0000 </r>
       <r>   -58.3264     0.0000     0.0000 </r>
       <r>   -58.0795     0.0000     0.0000 </r>
       <r>   -57.8326     0.0000     0.0000 </r>
       <r>   -57.5858     0.0000     0.0000 </r>
       <r>   -57.3389    16.2023     4.0000 </r>
       <r>   -57.0920     0.0000     4.0000 </r>
       <r>   -56.8451     0.0000     4.0000 </r>
       <r>   -56.5982     0.0000     4.0000 </r>
       <r>   -56.3514    16.2023     8.0000 </r>
       <r>   -56.1045     0.0000     8.0000 </r>
       <r>   -55.8576     0.0000     8.0000 </r>
       <r>   -55.6107     0.0000     8.0000 </r>
       <r>   -55.3639     0.0000     8.0000 </r>
       <r>   -55.1170     0.0000     8.0000 </r>
       <r>   -54.8701     0.0000     8.0000 </r>
       <r>   -54.6232     0.0000     8.0000 </r>
       <r>   -54.3763     0.0000     8.0000 </r>
       <r>   -54.1295     0.0000     8.0000 </r>
       <r>   -53.8826     0.0000     8.0000 </r>
       <r>   -53.6357     0.0000     8.0000 </r>
       <r>   -53.3888     0.0000     8.0000 </r>
       <r>   -53.1419     0.0000     8.0000 </r>
       <r>   -52.8951     0.0000     8.0000 </r>
       <r>   -52.6482     0.0000     8.0000 </r>
       <r>   -52.4013     0.0000     8.0000 </r>
       <r>   -52.1544     0.0000     8.0000 </r>
       <r>   -51.9076     0.0000     8.0000 </r>
       <r>   -51.6607     0.0000     8.0000 </r>
       <r>   -51.4138     0.0000     8.0000 </r>
       <r>   -51.1669     0.0000     8.0000 </r>
       <r>   -50.9200     0.0000     8.0000 </r>
       <r>   -50.6732     0.0000     8.0000 </r>
       <r>   -50.4263     0.0000     8.0000 </r>
       <r>   -50.1794     0.0000     8.0000 </r>
       <r>   -49.9325     0.0000     8.0000 </r>
       <r>   -49.6856     0.0000     8.0000 </r>
       <r>   -49.4388     0.0000     8.0000 </r>
       <r>   -49.1919     0.0000     8.0000 </r>
       <r>   -48.9450     0.0000     8.0000 </r>
       <r>   -48.6981     0.0000     8.0000 </r>
       <r>   -48.4513     0.0000     8.0000 </r>
       <r>   -48.2044     0.0000     8.0000 </r>
       <r>   -47.9575     0.0000     8.0000 </r>
       <r>   -47.7106     0.0000     8.0000 </r>
       <r>   -47.4637     0.0000     8.0000 </r>
       <r>   -47.2169     0.0000     8.0000 </r>
       <r>   -46.9700     0.0000     8.0000 </r>
       <r>   -46.7231     0.0000     8.0000 </r>
       <r>   -46.4762     0.0000     8.0000 </r>
       <r>   -46.2294     0.0000     8.0000 </r>
       <r>   -45.9825     0.0000     8.0000 </r>
       <r>   -45.7356     0.0000     8.0000 </r>
       <r>   -45.4887     0.0000     8.0000 </r>
       <r>   -45.2418     0.0000     8.0000 </r>
       <r>   -44.9950     0.0000     8.0000 </r>
       <r>   -44.7481     0.0000     8.0000 </r>
       <r>   -44.5012     0.0000     8.0000 </r>
       <r>   -44.2543     0.0000     8.0000 </r>
       <r>   -44.0074     0.0000     8.0000 </r>
       <r>   -43.7606     0.0000     8.0000 </r>
       <r>   -43.5137     0.0000     8.0000 </r>
       <r>   -43.2668     0.0000     8.0000 </r>
       <r>   -43.0199     0.0000     8.0000 </r>
       <r>   -42.7731     0.0000     8.0000 </r>
       <r>   -42.5262     0.0000     8.0000 </r>
       <r>   -42.2793     0.0000     8.0000 </r>
       <r>   -42.0324     0.0000     8.0000 </r>
       <r>   -41.7855     0.0000     8.0000 </r>
       <r>   -41.5387     0.0000     8.0000 </r>
       <r>   -41.2918     0.0000     8.0000 </r>
       <r>   -41.0449     0.0000     8.0000 </r>
       <r>   -40.7980     0.0000     8.0000 </r>
       <r>   -40.5511     0.0000     8.0000 </r>
       <r>   -40.3043     0.0000     8.0000 </r>
       <r>   -40.0574     0.0000     8.0000 </r>
       <r>   -39.8105     0.0000     8.0000 </r>
       <r>   -39.5636     0.0000     8.0000 </r>
       <r>   -39.3168     0.0000     8.0000 </r>
       <r>   -39.0699     0.0000     8.0000 </r>
       <r>   -38.8230     0.0000     8.0000 </r>
       <r>   -38.5761     0.0000     8.0000 </r>
       <r>   -38.3292     0.0000     8.0000 </r>
       <r>   -38.0824     0.0000     8.0000 </r>
       <r>   -37.8355     0.0000     8.0000 </r>
       <r>   -37.5886     0.0000     8.0000 </r>
       <r>   -37.3417     0.0000     8.0000 </r>
       <r>   -37.0948     0.0000     8.0000 </r>
       <r>   -36.8480     0.0000     8.0000 </r>
       <r>   -36.6011     0.0000     8.0000 </r>
       <r>   -36.3542     0.0000     8.0000 </r>
       <r>   -36.1073     0.0000     8.0000 </r>
       <r>   -35.8605     0.0000     8.0000 </r>
       <r>   -35.6136     0.0000     8.0000 </r>
       <r>   -35.3667     0.0000     8.0000 </r>
       <r>   -35.1198     0.0000     8.0000 </r>
       <r>   -34.8729     0.0000     8.0000 </r>
       <r>   -34.6261     0.0000     8.0000 </r>
       <r>   -34.3792     0.0000     8.0000 </r>
       <r>   -34.1323     0.0000     8.0000 </r>
       <r>   -33.8854     0.0000     8.0000 </r>
       <r>   -33.6385     0.0000     8.0000 </r>
       <r>   -33.3917     0.0000     8.0000 </r>
       <r>   -33.1448     0.0000     8.0000 </r>
       <r>   -32.8979     0.0000     8.0000 </r>
       <r>   -32.6510     0.0000     8.0000 </r>
       <r>   -32.4042     0.0000     8.0000 </r>
       <r>   -32.1573     0.0000     8.0000 </r>
       <r>   -31.9104     0.0000     8.0000 </r>
       <r>   -31.6635     0.0000     8.0000 </r>
       <r>   -31.4166     0.0000     8.0000 </r>
       <r>   -31.1698     0.0000     8.0000 </r>
       <r>   -30.9229     0.1943     8.0480 </r>
       <r>   -30.6760    32.3943    19.9975 </r>
       <r>   -30.4291     9.6270    22.3767 </r>
       <r>   -30.1822     0.0000    24.0000 </r>
       <r>   -29.9354     0.0000    24.0000 </r>
       <r>   -29.6885    13.5984    32.0000 </r>
       <r>   -29.4416     0.0000    32.0000 </r>
       <r>   -29.1947     0.0000    32.0000 </r>
       <r>   -28.9479     0.0000    32.0000 </r>
       <r>   -28.7010     0.0000    32.0000 </r>
       <r>   -28.4541     0.0000    32.0000 </r>
       <r>   -28.2072     0.0000    32.0000 </r>
       <r>   -27.9603     0.0000    32.0000 </r>
       <r>   -27.7135     0.0000    32.0000 </r>
       <r>   -27.4666     0.0000    32.0000 </r>
       <r>   -27.2197     0.0000    32.0000 </r>
       <r>   -26.9728     0.0000    32.0000 </r>
       <r>   -26.7259     0.0000    32.0000 </r>
       <r>   -26.4791     0.0000    32.0000 </r>
       <r>   -26.2322     0.0000    32.0000 </r>
       <r>   -25.9853     0.0000    32.0000 </r>
       <r>   -25.7384     0.0000    32.0000 </r>
       <r>   -25.4916     0.0000    32.0000 </r>
       <r>   -25.2447     0.0000    32.0000 </r>
       <r>   -24.9978     0.0000    32.0000 </r>
       <r>   -24.7509     0.0000    32.0000 </r>
       <r>   -24.5040     0.0000    32.0000 </r>
       <r>   -24.2572     0.0000    32.0000 </r>
       <r>   -24.0103     0.0000    32.0000 </r>
       <r>   -23.7634     0.0000    32.0000 </r>
       <r>   -23.5165     0.0000    32.0000 </r>
       <r>   -23.2696     0.0000    32.0000 </r>
       <r>   -23.0228     0.0000    32.0000 </r>
       <r>   -22.7759     0.0000    32.0000 </r>
       <r>   -22.5290     0.0000    32.0000 </r>
       <r>   -22.2821     0.0000    32.0000 </r>
       <r>   -22.0353     0.0000    32.0000 </r>
       <r>   -21.7884     0.0000    32.0000 </r>
       <r>   -21.5415     0.0000    32.0000 </r>
       <r>   -21.2946     0.0000    32.0000 </r>
       <r>   -21.0477     0.0000    32.0000 </r>
       <r>   -20.8009     0.0000    32.0000 </r>
       <r>   -20.5540     0.0000    32.0000 </r>
       <r>   -20.3071     0.0000    32.0000 </r>
       <r>   -20.0602     0.0000    32.0000 </r>
       <r>   -19.8133     0.0000    32.0000 </r>
       <r>   -19.5665     0.0000    32.0000 </r>
       <r>   -19.3196     0.0000    32.0000 </r>
       <r>   -19.0727     0.0000    32.0000 </r>
       <r>   -18.8258     0.0000    32.0000 </r>
       <r>   -18.5790     0.0000    32.0000 </r>
       <r>   -18.3321     0.0000    32.0000 </r>
       <r>   -18.0852     0.0000    32.0000 </r>
       <r>   -17.8383     0.0000    32.0000 </r>
       <r>   -17.5914     0.0000    32.0000 </r>
       <r>   -17.3446     0.0000    32.0000 </r>
       <r>   -17.0977     0.0000    32.0000 </r>
       <r>   -16.8508     0.0000    32.0000 </r>
       <r>   -16.6039     0.0000    32.0000 </r>
       <r>   -16.3570     0.0000    32.0000 </r>
       <r>   -16.1102     0.0000    32.0000 </r>
       <r>   -15.8633     0.0000    32.0000 </r>
       <r>   -15.6164     0.0000    32.0000 </r>
       <r>   -15.3695     0.0000    32.0000 </r>
       <r>   -15.1227     0.0000    32.0000 </r>
       <r>   -14.8758     0.0000    32.0000 </r>
       <r>   -14.6289     0.0000    32.0000 </r>
       <r>   -14.3820     0.0000    32.0000 </r>
       <r>   -14.1351     0.0000    32.0000 </r>
       <r>   -13.8883     0.0000    32.0000 </r>
       <r>   -13.6414     0.0000    32.0000 </r>
       <r>   -13.3945     0.0000    32.0000 </r>
       <r>   -13.1476     0.0000    32.0000 </r>
       <r>   -12.9007     0.0000    32.0000 </r>
       <r>   -12.6539     0.0000    32.0000 </r>
       <r>   -12.4070     0.0000    32.0000 </r>
       <r>   -12.1601     0.0000    32.0000 </r>
       <r>   -11.9132     0.0000    32.0000 </r>
       <r>   -11.6664     0.0000    32.0000 </r>
       <r>   -11.4195     0.0000    32.0000 </r>
       <r>   -11.1726     0.0000    32.0000 </r>
       <r>   -10.9257     0.0000    32.0000 </r>
       <r>   -10.6788     0.0000    32.0000 </r>
       <r>   -10.4320     0.0000    32.0000 </r>
       <r>   -10.1851     0.0000    32.0000 </r>
       <r>    -9.9382     0.0000    32.0000 </r>
       <r>    -9.6913     0.0000    32.0000 </r>
       <r>    -9.4444     0.0000    32.0000 </r>
       <r>    -9.1976     0.0000    32.0000 </r>
       <r>    -8.9507     0.0000    32.0000 </r>
       <r>    -8.7038     0.0000    32.0000 </r>
       <r>    -8.4569     0.0000    32.0000 </r>
       <r>    -8.2101     0.0000    32.0000 </r>
       <r>    -7.9632     0.0000    32.0000 </r>
       <r>    -7.7163     0.0000    32.0000 </r>
       <r>    -7.4694     0.0000    32.0000 </r>
       <r>    -7.2225     0.0000    32.0000 </r>
       <r>    -6.9757     0.0000    32.0000 </r>
       <r>    -6.7288     0.0000    32.0000 </r>
       <r>    -6.4819     0.0000    32.0000 </r>
       <r>    -6.2350     0.0000    32.0000 </r>
       <r>    -5.9881     0.0000    32.0000 </r>
       <r>    -5.7413     0.0000    32.0000 </r>
       <r>    -5.4944     0.0000    32.0000 </r>
       <r>    -5.2475     0.0000    32.0000 </r>
       <r>    -5.0006     0.0000    32.0000 </r>
       <r>    -4.7538     0.0000    32.0000 </r>
       <r>    -4.5069     0.0000    32.0000 </r>
       <r>    -4.2600     0.2642    32.0652 </r>
       <r>    -4.0131     0.5650    32.2364 </r>
       <r>    -3.7662     0.6648    32.4651 </r>
       <r>    -3.5194     1.2762    32.8814 </r>
       <r>    -3.2725     1.4922    33.4194 </r>
       <r>    -3.0256     1.4520    33.9605 </r>
       <r>    -2.7787     1.0692    34.4374 </r>
       <r>    -2.5318     1.0825    34.7979 </r>
       <r>    -2.2850     0.5203    35.0876 </r>
       <r>    -2.0381     0.6270    35.3793 </r>
       <r>    -1.7912     0.7598    35.5753 </r>
       <r>    -1.5443     4.3566    36.7796 </r>
       <r>    -1.2975     4.9945    38.9422 </r>
       <r>    -1.0506     3.3583    40.4668 </r>
       <r>    -0.8037     3.0533    41.7946 </r>
       <r>    -0.5568     2.7469    43.0506 </r>
       <r>    -0.3099     1.6884    43.6311 </r>
       <r>    -0.0631     0.6809    43.9232 </r>
       <r>     0.1838     0.2480    43.9898 </r>
       <r>     0.4307     0.0413    44.0000 </r>
       <r>     0.6776     0.0207    44.0051 </r>
       <r>     0.9245     0.4560    44.1279 </r>
       <r>     1.1713     2.0967    44.7217 </r>
       <r>     1.4182     2.5791    45.6316 </r>
       <r>     1.6651     3.8433    47.3723 </r>
       <r>     1.9120     3.5052    48.7072 </r>
       <r>     2.1588     5.3203    50.8798 </r>
       <r>     2.4057     4.9294    52.5027 </r>
       <r>     2.6526     6.5153    54.8126 </r>
       <r>     2.8995     5.6996    56.9683 </r>
       <r>     3.1464     7.1366    59.7568 </r>
       <r>     3.3932     6.7243    62.2978 </r>
       <r>     3.6401     6.9534    65.0177 </r>
       <r>     3.8870     3.6630    66.8125 </r>
       <r>     4.1339     2.5913    67.9101 </r>
       <r>     4.3808     3.3697    69.1788 </r>
       <r>     4.6276     4.0241    70.8557 </r>
       <r>     4.8745     3.2451    72.1889 </r>
       <r>     5.1214     3.7697    73.4613 </r>
       <r>     5.3683     4.2809    74.8834 </r>
       <r>     5.6151     4.3398    76.3826 </r>
       <r>     5.8620     5.0408    78.0506 </r>
       <r>     6.1089     5.7691    80.6284 </r>
       <r>     6.3558     4.6543    82.7103 </r>
       <r>     6.6027     1.0003    83.2368 </r>
       <r>     6.8495     0.4375    83.4294 </r>
       <r>     7.0964     0.9283    83.7751 </r>
       <r>     7.3433     2.1957    84.5676 </r>
       <r>     7.5902     1.5663    85.3561 </r>
       <r>     7.8371     2.9480    86.5135 </r>
       <r>     8.0839     4.6865    87.9376 </r>
       <r>     8.3308     5.2631    89.9728 </r>
       <r>     8.5777     3.9272    91.8216 </r>
       <r>     8.8246     4.6166    93.6652 </r>
       <r>     9.0714     1.8154    94.6370 </r>
       <r>     9.3183     1.5847    95.2535 </r>
       <r>     9.5652     1.2140    95.7436 </r>
       <r>     9.8121     0.7084    95.9606 </r>
       <r>    10.0590     0.0413    96.0000 </r>
       <r>    10.3058     0.0000    96.0000 </r>
       <r>    10.5527     0.0000    96.0000 </r>
       <r>    10.7996     0.0000    96.0000 </r>
       <r>    11.0465     0.0000    96.0000 </r>
       <r>    11.2934     0.0000    96.0000 </r>
       <r>    11.5402     0.0000    96.0000 </r>
       <r>    11.7871     0.0000    96.0000 </r>
       <r>    12.0340     0.0000    96.0000 </r>
       <r>    12.2809     0.0000    96.0000 </r>
       <r>    12.5277     0.0000    96.0000 </r>
       <r>    12.7746     0.0000    96.0000 </r>
       <r>    13.0215     0.0000    96.0000 </r>
       <r>    13.2684     0.0000    96.0000 </r>
      </set>
     </set>
    </array>
   </total>
  </dos>
 </calculation>
 <structure name="finalpos" >
  <crystal>
   <varray name="basis" >
    <v>       5.47095852       0.00000000      -2.99129209 </v>
    <v>      -1.92352253       5.12166460      -2.99129209 </v>
    <v>       0.00000000       0.00000000       6.23532000 </v>
   </varray>
   <i name="volume">    174.71625147 </i>
   <varray name="rec_basis" >
    <v>       0.18278333       0.06864718       0.00000000 </v>
    <v>       0.00000000       0.19524902       0.00000000 </v>
    <v>       0.08768729       0.12659986       0.16037669 </v>
   </varray>
  </crystal>
  <varray name="positions" >
   <v>       0.00000000       0.00000000       0.50000000 </v>
   <v>       0.00000000       0.50000000       0.00000000 </v>
   <v>       0.50000000       0.50000000       0.50000000 </v>
   <v>       0.50000000       0.00000000       0.00000000 </v>
   <v>       0.25000000       0.75000000       0.50000000 </v>
   <v>       0.25000000       0.25000000       0.00000000 </v>
   <v>       0.75000000       0.25000000       0.50000000 </v>
   <v>       0.75000000       0.75000000       0.00000000 </v>
   <v>       0.50000000       0.00000000       0.50000000 </v>
   <v>       0.00000000       0.50000000       0.50000000 </v>
  </varray>
 </structure>
</modeling>
