 vasp.6.2.0 18Jan21 (build Jan 05 2022 15:41:44) complex                        
  
 executed on             LinuxIFC date 2025.05.07  15:19:29
 running on   24 total cores
 distrk:  each k-point on   12 cores,    2 groups
 distr:  one band on NCORE=   2 cores,    6 groups


--------------------------------------------------------------------------------------------------------


 INCAR:
   SYSTEM = routine with relax: pwdword
   ICHARG = 2
   NPAR = 6
   KPAR = 2
   NCORE = 2
   ADDGRID = T
   PREC = Acc
   ENCUT = 600
   METAGGA = R2SCAN
   LASPH = .TRUE.
   LMIXTAU = .FALSE.
   ALGO = A
   EDIFF = 1E-9
   NELM = 100
   NELMIN = 6
   IALGO = 38
   LREAL = F
   NSW = 0
   ISIF = -1
   ISMEAR = 0
   SIGMA = 0.02
   SYMPREC = 1E-4

 POTCAR:    PAW_PBE B 06Sep2000                   
 POTCAR:    PAW_PBE Mo_sv 02Feb2006               
 POTCAR:    PAW_PBE Si 05Jan2001                  
 -----------------------------------------------------------------------------
|                                                                             |
|           W    W    AA    RRRRR   N    N  II  N    N   GGGG   !!!           |
|           W    W   A  A   R    R  NN   N  II  NN   N  G    G  !!!           |
|           W    W  A    A  R    R  N N  N  II  N N  N  G       !!!           |
|           W WW W  AAAAAA  RRRRR   N  N N  II  N  N N  G  GGG   !            |
|           WW  WW  A    A  R   R   N   NN  II  N   NN  G    G                |
|           W    W  A    A  R    R  N    N  II  N    N   GGGG   !!!           |
|                                                                             |
|     For optimal performance we recommend to set                             |
|       NCORE = 2 up to number-of-cores-per-socket                            |
|     NCORE specifies how many cores store one orbital (NPAR=cpu/NCORE).      |
|     This setting can greatly improve the performance of VASP for DFT.       |
|     The default, NCORE=1 might be grossly inefficient on modern             |
|     multi-core architectures or massively parallel machines. Do your        |
|     own testing! More info at https://www.vasp.at/wiki/index.php/NCORE      |
|     Unfortunately you need to use the default for GW and RPA                |
|     calculations (for HF NCORE is supported but not extensively tested      |
|     yet).                                                                   |
|                                                                             |
 -----------------------------------------------------------------------------

 POTCAR:    PAW_PBE B 06Sep2000                   
   VRHFIN =B: s2p1                                                                                  
   LEXCH  = PE                                                                                      
   EATOM  =    71.1703 eV,    5.2309 Ry                                                             
                                                                                                    
   TITEL  = PAW_PBE B 06Sep2000                                                                     
   LULTRA =        F    use ultrasoft PP ?                                                          
   IUNSCR =        1    unscreen: 0-lin 1-nonlin 2-no                                               
   RPACOR =    1.200    partial core radius                                                         
   POMASS =   10.811; ZVAL   =    3.000    mass and valenz                                          
   RCORE  =    1.700    outmost cutoff radius                                                       
   RWIGS  =    1.710; RWIGS  =    0.905    wigner-seitz radius (au A)                               
   ENMAX  =  318.614; ENMIN  =  238.960 eV                                                          
   ICORE  =        2    local potential                                                             
   LCOR   =        T    correct aug charges                                                         
   LPAW   =        T    paw PP                                                                      
   EAUG   =  535.514                                                                                
   DEXC   =    0.000                                                                                
   RMAX   =    1.732    core radius for proj-oper                                                   
   RAUG   =    1.300    factor for augmentation sphere                                              
   RDEP   =    1.757    radius for radial grids                                                     
   RDEPT  =    1.436    core radius for aug-charge                                                  
                                                                                                    
   Atomic configuration                                                                             
    4 entries                                                                                       
     n  l   j            E        occ.                                                              
     1  0  0.50      -180.5896   2.0000                                                             
     2  0  0.50        -9.4431   2.0000                                                             
     2  1  0.50        -3.6068   1.0000                                                             
     3  2  1.50        -4.0817   0.0000                                                             
   Description                                                                                      
     l       E           TYP  RCUT    TYP  RCUT                                                     
     0     -9.4430752     23  1.500                                                                 
     0      0.8675899     23  1.500                                                                 
     1     -3.6067955     23  1.700                                                                 
     1      6.1086146     23  1.700                                                                 
     2     -4.0817478      7  1.700                                                                 
  local pseudopotential read in
  partial core-charges read in
  partial kinetic energy density read in
  atomic valenz-charges read in
  non local Contribution for L=           0  read in
    real space projection operators read in
  non local Contribution for L=           0  read in
    real space projection operators read in
  non local Contribution for L=           1  read in
    real space projection operators read in
  non local Contribution for L=           1  read in
    real space projection operators read in
    PAW grid and wavefunctions read in
 
   number of l-projection  operators is LMAX  =           4
   number of lm-projection operators is LMMAX =           8
 
 POTCAR:    PAW_PBE Mo_sv 02Feb2006               
   VRHFIN =Mo: 4p5s4d                                                                               
   LEXCH  = PE                                                                                      
   EATOM  =  1862.2866 eV,  136.8742 Ry                                                             
                                                                                                    
   TITEL  = PAW_PBE Mo_sv 02Feb2006                                                                 
   LULTRA =        F    use ultrasoft PP ?                                                          
   IUNSCR =        1    unscreen: 0-lin 1-nonlin 2-no                                               
   RPACOR =    2.200    partial core radius                                                         
   POMASS =   95.940; ZVAL   =   14.000    mass and valenz                                          
   RCORE  =    2.500    outmost cutoff radius                                                       
   RWIGS  =    2.750; RWIGS  =    1.455    wigner-seitz radius (au A)                               
   ENMAX  =  242.676; ENMIN  =  182.007 eV                                                          
   ICORE  =        3    local potential                                                             
   LCOR   =        T    correct aug charges                                                         
   LPAW   =        T    paw PP                                                                      
   EAUG   =  446.014                                                                                
   DEXC   =    0.000                                                                                
   RMAX   =    2.563    core radius for proj-oper                                                   
   RAUG   =    1.300    factor for augmentation sphere                                              
   RDEP   =    2.641    radius for radial grids                                                     
   RDEPT  =    2.031    core radius for aug-charge                                                  
                                                                                                    
   Atomic configuration                                                                             
   11 entries                                                                                       
     n  l   j            E        occ.                                                              
     1  0  0.50    -19819.0341   2.0000                                                             
     2  0  0.50     -2799.0127   2.0000                                                             
     2  1  1.50     -2502.0276   6.0000                                                             
     3  0  0.50      -476.4449   2.0000                                                             
     3  1  1.50      -379.1496   6.0000                                                             
     3  2  2.50      -220.9367  10.0000                                                             
     4  0  0.50       -64.3378   2.0000                                                             
     5  0  0.50        -4.0862   1.0000                                                             
     4  1  1.50       -38.4773   6.0000                                                             
     4  2  2.50        -3.7535   5.0000                                                             
     4  3  2.50        -1.3606   0.0000                                                             
   Description                                                                                      
     l       E           TYP  RCUT    TYP  RCUT                                                     
     0    -64.3377829     23  2.100                                                                 
     0     -4.0861640     23  2.400                                                                 
     1    -38.4772993     23  2.100                                                                 
     1     13.6058260     23  2.100                                                                 
     2     -3.7534941     23  2.400                                                                 
     2     -5.1140767     23  2.400                                                                 
     3     -4.0817478     23  2.500                                                                 
  local pseudopotential read in
  partial core-charges read in
  partial kinetic energy density read in
  atomic valenz-charges read in
  non local Contribution for L=           0  read in
    real space projection operators read in
  non local Contribution for L=           0  read in
    real space projection operators read in
  non local Contribution for L=           1  read in
    real space projection operators read in
  non local Contribution for L=           1  read in
    real space projection operators read in
  non local Contribution for L=           2  read in
    real space projection operators read in
  non local Contribution for L=           2  read in
    real space projection operators read in
    PAW grid and wavefunctions read in
 
   number of l-projection  operators is LMAX  =           6
   number of lm-projection operators is LMMAX =          18
 
 POTCAR:    PAW_PBE Si 05Jan2001                  
   VRHFIN =Si: s2p2                                                                                 
   LEXCH  = PE                                                                                      
   EATOM  =   103.0669 eV,    7.5752 Ry                                                             
                                                                                                    
   TITEL  = PAW_PBE Si 05Jan2001                                                                    
   LULTRA =        F    use ultrasoft PP ?                                                          
   IUNSCR =        1    unscreen: 0-lin 1-nonlin 2-no                                               
   RPACOR =    1.500    partial core radius                                                         
   POMASS =   28.085; ZVAL   =    4.000    mass and valenz                                          
   RCORE  =    1.900    outmost cutoff radius                                                       
   RWIGS  =    2.480; RWIGS  =    1.312    wigner-seitz radius (au A)                               
   ENMAX  =  245.345; ENMIN  =  184.009 eV                                                          
   ICORE  =        2    local potential                                                             
   LCOR   =        T    correct aug charges                                                         
   LPAW   =        T    paw PP                                                                      
   EAUG   =  322.069                                                                                
   DEXC   =    0.000                                                                                
   RMAX   =    1.950    core radius for proj-oper                                                   
   RAUG   =    1.300    factor for augmentation sphere                                              
   RDEP   =    1.993    radius for radial grids                                                     
   RDEPT  =    1.837    core radius for aug-charge                                                  
                                                                                                    
   Atomic configuration                                                                             
    6 entries                                                                                       
     n  l   j            E        occ.                                                              
     1  0  0.50     -1785.8828   2.0000                                                             
     2  0  0.50      -139.4969   2.0000                                                             
     2  1  1.50       -95.5546   6.0000                                                             
     3  0  0.50       -10.8127   2.0000                                                             
     3  1  0.50        -4.0811   2.0000                                                             
     3  2  1.50        -4.0817   0.0000                                                             
   Description                                                                                      
     l       E           TYP  RCUT    TYP  RCUT                                                     
     0    -10.8127223     23  1.900                                                                 
     0     -7.6451159     23  1.900                                                                 
     1     -4.0811372     23  1.900                                                                 
     1      2.4879257     23  1.900                                                                 
     2     -4.0817478      7  1.900                                                                 
  local pseudopotential read in
  partial core-charges read in
  partial kinetic energy density read in
  atomic valenz-charges read in
  non local Contribution for L=           0  read in
    real space projection operators read in
  non local Contribution for L=           0  read in
    real space projection operators read in
  non local Contribution for L=           1  read in
    real space projection operators read in
  non local Contribution for L=           1  read in
    real space projection operators read in
    PAW grid and wavefunctions read in
 
   number of l-projection  operators is LMAX  =           4
   number of lm-projection operators is LMMAX =           8
 
  PAW_PBE B 06Sep2000                   :
 energy of atom  1       EATOM=  -71.1703
 kinetic energy error for atom=    0.0007 (will be added to EATOM!!)
  PAW_PBE Mo_sv 02Feb2006               :
 energy of atom  2       EATOM=-1862.2866
 kinetic energy error for atom=    0.0041 (will be added to EATOM!!)
  PAW_PBE Si 05Jan2001                  :
 energy of atom  3       EATOM= -103.0669
 kinetic energy error for atom=    0.0003 (will be added to EATOM!!)
 
 
 POSCAR: EA45
  positions in direct lattice
  No initial velocities read in

 METAGGA = R2SCA    LMAXTAU =  6    LMIXTAU =  F

 exchange correlation table for  LEXCH =        8
   RHO(1)=    0.500       N(1)  =     2000
   RHO(2)=  100.500       N(2)  =     4000
 


--------------------------------------------------------------------------------------------------------


 ion  position               nearest neighbor table
   1  0.500  0.000  0.000-   9 1.95  10 1.95  15 1.95  16 1.95   6 2.75   8 2.75   5 2.75   7 2.75

   2  0.000  0.000  0.500-   9 1.95  10 1.95  11 1.95  12 1.95   5 2.75   7 2.75   6 2.75   8 2.75

   3  0.000  0.500  0.000-  11 1.95  12 1.95  13 1.95  14 1.95   6 2.75   8 2.75   7 2.75   5 2.75

   4  0.500  0.500  0.500-  13 1.95  14 1.95  15 1.95  16 1.95   5 2.75   7 2.75   8 2.75   6 2.75

   5  0.750  0.250  0.500-  10 1.94  14 1.94  11 1.94  15 1.94   2 2.75   4 2.75   3 2.75   1 2.75

   6  0.250  0.250  0.000-   9 1.95  11 1.95  13 1.95  15 1.95   1 2.75   3 2.75   4 2.75   2 2.75

   7  0.250  0.750  0.500-   9 1.94  13 1.94  12 1.94  16 1.94   2 2.75   4 2.75   1 2.75   3 2.75

   8  0.750  0.750  0.000-  10 1.95  12 1.95  14 1.95  16 1.95   1 2.75   3 2.75   2 2.75   4 2.75

   9  0.250  1.000  0.750-   7 1.94   2 1.95   1 1.95   6 1.95  16 2.75  12 2.75  11 2.76  15 2.76

  10  0.750  0.000  0.250-   5 1.94   2 1.95   1 1.95   8 1.95  15 2.75  11 2.75  12 2.76  16 2.76

  11  1.000  0.250  0.750-   5 1.94   2 1.95   3 1.95   6 1.95  14 2.75  10 2.75   9 2.76  13 2.76

  12  0.000  0.750  0.250-   7 1.94   2 1.95   3 1.95   8 1.95  13 2.75   9 2.75  10 2.76  14 2.76

  13  0.250  0.500  0.250-   7 1.94   4 1.95   3 1.95   6 1.95  12 2.75  16 2.75  15 2.76  11 2.76

  14  0.750  0.500  0.750-   5 1.94   4 1.95   3 1.95   8 1.95  11 2.75  15 2.75  16 2.76  12 2.76

  15  0.500  0.250  0.250-   5 1.94   4 1.95   1 1.95   6 1.95  10 2.75  14 2.75  13 2.76   9 2.76

  16  0.500  0.750  0.750-   7 1.94   4 1.95   1 1.95   8 1.95   9 2.75  13 2.75  14 2.76  10 2.76

 
  LATTYP: Found a body centered tetragonal cell.
 ALAT       =     7.7839291759
 C/A-ratio  =     0.9068426490
  
  Lattice vectors:
  
 A1 = (   6.2547397200,   0.0000000000,  -1.9051059467)
 A2 = (  -3.4321659937,   5.2289583625,  -1.9051059467)
 A3 = (   0.0000000000,   0.0000000000,   6.5384400000)


Analysis of symmetry for initial positions (statically):
=====================================================================
 Subroutine PRICEL returns following result:
 
  LATTYP: Found a simple tetragonal cell.
 ALAT       =     5.5040473259
 C/A-ratio  =     0.6412371239
  
  Lattice vectors:
  
 A1 = (  -4.8434528569,   2.6144791813,   0.0000000000)
 A2 = (   1.4112868632,   2.6144791813,   4.6333340533)
 A3 = (   1.4112868632,   2.6144791813,  -1.9051059467)
 
   2 primitive cells build up your supercell.
 

 Routine SETGRP: Setting up the symmetry group for a 
 body centered tetragonal supercell.


 Subroutine GETGRP returns: Found 16 space group operations
 (whereof 16 operations were pure point group operations)
 out of a pool of 16 trial point group operations.


The static configuration has the point symmetry D_4h.


Analysis of symmetry for dynamics (positions and initial velocities):
=====================================================================
 Subroutine PRICEL returns following result:
 
  LATTYP: Found a simple tetragonal cell.
 ALAT       =     5.5040473259
 C/A-ratio  =     0.6412371239
  
  Lattice vectors:
  
 A1 = (  -4.8434528569,   2.6144791813,   0.0000000000)
 A2 = (   1.4112868632,   2.6144791813,   4.6333340533)
 A3 = (   1.4112868632,   2.6144791813,  -1.9051059467)
 
   2 primitive cells build up your supercell.
 

 Routine SETGRP: Setting up the symmetry group for a 
 body centered tetragonal supercell.


 Subroutine GETGRP returns: Found 16 space group operations
 (whereof 16 operations were pure point group operations)
 out of a pool of 16 trial point group operations.


The dynamic configuration has the point symmetry D_4h.


 Subroutine INISYM returns: Found 16 space group operations
 (whereof 16 operations are pure point group operations),
 and found     2 'primitive' translations


----------------------------------------------------------------------------------------

                                     Primitive cell                                     

  volume of cell :     106.9224

  direct lattice vectors                    reciprocal lattice vectors
    -4.843452857  2.614479181  0.000000000    -0.159878755  0.086302002  0.000000000
     1.411286863  2.614479181  4.633334053     0.046583890  0.086298975  0.152941680
     1.411286863  2.614479181 -1.905105947     0.113294866  0.209884379 -0.152941680

  length of vectors
     5.504047326  5.504090883  3.529399477     0.181684484  0.181683047  0.283334320

  position of ions in fractional coordinates (direct lattice)
     0.500000000  1.000000000  0.500000000
     0.000000000  0.500000000  0.500000000
     0.500000000  0.500000000  0.500000000
     1.000000000  1.000000000  0.500000000
     0.749670000  0.749670000  0.500000000
     0.250330000  0.250330000  0.500000000
     0.250330000  0.749670000  0.500000000
     0.749670000  0.250330000  0.500000000

  ion indices of the primitive-cell ions
   primitive index   ion index
                 1           1
                 2           2
                 3           5
                 4           6
                 5           9
                 6          10
                 7          16
                 8          15

----------------------------------------------------------------------------------------

 
 
 KPOINTS: EA                                      

Automatic generation of k-mesh.
 Grid dimensions read from file:
 generate k-points for:    7    7    7

 Generating k-lattice:

  Cartesian coordinates                     Fractional coordinates (reciprocal lattice)
     0.022839822  0.014991525  0.000000000     0.142857143 -0.000000000  0.000000000
     0.000000000  0.027320383  0.000000000     0.000000000  0.142857143  0.000000000
     0.006654841  0.012328425  0.021848811     0.000000000  0.000000000  0.142857143

  Length of vectors
     0.027320383  0.027320383  0.025954721

  Shift w.r.t. Gamma in fractional coordinates (k-lattice)
     0.000000000  0.000000000  0.000000000

 
 Subroutine IBZKPT returns following result:
 ===========================================
 
 Found     40 irreducible k-points:
 
 Following reciprocal coordinates:
            Coordinates               Weight
  0.000000  0.000000  0.000000      1.000000
  0.142857  0.000000  0.000000      8.000000
  0.285714 -0.000000  0.000000      8.000000
  0.428571  0.000000  0.000000      8.000000
  0.142857  0.142857  0.000000      8.000000
  0.285714  0.142857  0.000000     16.000000
  0.428571  0.142857  0.000000     16.000000
 -0.428571  0.142857  0.000000     16.000000
 -0.285714  0.142857  0.000000     16.000000
 -0.142857  0.142857  0.000000      4.000000
  0.285714  0.285714  0.000000      8.000000
  0.428571  0.285714  0.000000     16.000000
 -0.428571  0.285714  0.000000     16.000000
 -0.285714  0.285714  0.000000      4.000000
  0.428571  0.428571  0.000000      8.000000
 -0.428571  0.428571  0.000000      4.000000
  0.142857  0.142857  0.142857      8.000000
  0.285714  0.142857  0.142857     16.000000
 -0.142857  0.142857  0.142857      4.000000
  0.285714  0.285714  0.142857      8.000000
  0.428571  0.285714  0.142857      8.000000
 -0.285714  0.285714  0.142857      8.000000
 -0.142857  0.285714  0.142857      8.000000
 -0.428571  0.428571  0.142857      8.000000
 -0.285714  0.428571  0.142857     16.000000
 -0.142857  0.428571  0.142857      8.000000
 -0.428571 -0.428571  0.142857      8.000000
 -0.285714 -0.428571  0.142857     16.000000
 -0.142857 -0.428571  0.142857      8.000000
 -0.285714 -0.285714  0.142857      8.000000
 -0.142857 -0.285714  0.142857      8.000000
 -0.142857 -0.142857  0.142857      2.000000
 -0.285714  0.285714  0.285714      4.000000
 -0.428571  0.428571  0.285714      8.000000
 -0.285714  0.428571  0.285714      8.000000
 -0.428571 -0.428571  0.285714      8.000000
 -0.285714 -0.428571  0.285714      8.000000
 -0.285714 -0.285714  0.285714      2.000000
 -0.428571  0.428571  0.428571      4.000000
 -0.428571 -0.428571  0.428571      2.000000
 
 Following cartesian coordinates:
            Coordinates               Weight
  0.000000  0.000000  0.000000      1.000000
  0.022840  0.014992  0.000000      8.000000
  0.045680  0.029983  0.000000      8.000000
  0.068519  0.044975  0.000000      8.000000
  0.022840  0.042312  0.000000      8.000000
  0.045680  0.057303  0.000000     16.000000
  0.068519  0.072295  0.000000     16.000000
 -0.068519 -0.017654  0.000000     16.000000
 -0.045680 -0.002663  0.000000     16.000000
 -0.022840  0.012329  0.000000      4.000000
  0.045680  0.084624  0.000000      8.000000
  0.068519  0.099615  0.000000     16.000000
 -0.068519  0.009666  0.000000     16.000000
 -0.045680  0.024658  0.000000      4.000000
  0.068519  0.126936  0.000000      8.000000
 -0.068519  0.036987  0.000000      4.000000
  0.029495  0.054640  0.021849      8.000000
  0.052334  0.069632  0.021849     16.000000
 -0.016185  0.024657  0.021849      4.000000
  0.052334  0.096952  0.021849      8.000000
  0.075174  0.111944  0.021849      8.000000
 -0.039025  0.036986  0.021849      8.000000
 -0.016185  0.051978  0.021849      8.000000
 -0.061865  0.049315  0.021849      8.000000
 -0.039025  0.064307  0.021849     16.000000
 -0.016185  0.079298  0.021849      8.000000
 -0.061865 -0.114607  0.021849      8.000000
 -0.039025 -0.099616  0.021849     16.000000
 -0.016185 -0.084624  0.021849      8.000000
 -0.039025 -0.072295  0.021849      8.000000
 -0.016185 -0.057304  0.021849      8.000000
 -0.016185 -0.029983  0.021849      2.000000
 -0.032370  0.049315  0.043698      4.000000
 -0.055210  0.061643  0.043698      8.000000
 -0.032370  0.076635  0.043698      8.000000
 -0.055210 -0.102279  0.043698      8.000000
 -0.032370 -0.087287  0.043698      8.000000
 -0.032370 -0.059967  0.043698      2.000000
 -0.048555  0.073972  0.065546      4.000000
 -0.048555 -0.089950  0.065546      2.000000
 


--------------------------------------------------------------------------------------------------------




 Dimension of arrays:
   k-points           NKPTS =     40   k-points in BZ     NKDIM =     40   number of bands    NBANDS=     60
   number of dos      NEDOS =    301   number of ions     NIONS =     16
   non local maximal  LDIM  =      6   non local SUM 2l+1 LMDIM =     18
   total plane-waves  NPLWV = 157464
   max r-space proj   IRMAX =      1   max aug-charges    IRDMAX= 257783
   dimension x,y,z NGX =    54 NGY =   54 NGZ =   54
   dimension x,y,z NGXF=   108 NGYF=  108 NGZF=  108
   support grid    NGXF=   216 NGYF=  216 NGZF=  216
   ions per type =               4   4   8
   NGX,Y,Z   is equivalent  to a cutoff of  13.73, 13.73, 13.73 a.u.
   NGXF,Y,Z  is equivalent  to a cutoff of  27.46, 27.46, 27.46 a.u.

 SYSTEM =  routine with relax: pwdword             
 POSCAR =  EA45                                    

 Startparameter for this run:
   NWRITE =      2    write-flag & timer
   PREC   = acc       normal or accurate (medium, high low for compatibility)
   ISTART =      0    job   : 0-new  1-cont  2-samecut
   ICHARG =      2    charge: 1-file 2-atom 10-const
   ISPIN  =      1    spin polarized calculation?
   LNONCOLLINEAR =      F non collinear calculations
   LSORBIT =      F    spin-orbit coupling
   INIWAV =      1    electr: 0-lowe 1-rand  2-diag
   LASPH  =      T    aspherical Exc in radial PAW
   METAGGA=      F    non-selfconsistent MetaGGA calc.

 Electronic Relaxation 1
   ENCUT  =  600.0 eV  44.10 Ry    6.64 a.u.  13.06 13.06 13.06*2*pi/ulx,y,z
   ENINI  =  600.0     initial cutoff
   ENAUG  =  535.5 eV  augmentation charge cutoff
   NELM   =    100;   NELMIN=  6; NELMDL= -5     # of ELM steps 
   EDIFF  = 0.1E-08   stopping-criterion for ELM
   LREAL  =      F    real-space projection
   NLSPLINE    = F    spline interpolate recip. space projectors
   LCOMPAT=      F    compatible to vasp.4.4
   GGA_COMPAT  = T    GGA compatible to vasp.4.4-vasp.4.6
   LMAXPAW     = -100 max onsite density
   LMAXMIX     =    2 max onsite mixed and CHGCAR
   VOSKOWN=      0    Vosko Wilk Nusair interpolation
   ROPT   =    0.00000   0.00000   0.00000
 Ionic relaxation
   EDIFFG = 0.1E-07   stopping-criterion for IOM
   NSW    =      0    number of steps for IOM
   NBLOCK =      1;   KBLOCK =      1    inner block; outer block 
   IBRION =     -1    ionic relax: 0-MD 1-quasi-New 2-CG
   NFREE  =      0    steps in history (QN), initial steepest desc. (CG)
   ISIF   =     -1    stress and relaxation
   IWAVPR =     10    prediction:  0-non 1-charg 2-wave 3-comb
   ISYM   =      2    0-nonsym 1-usesym 2-fastsym
   LCORR  =      T    Harris-Foulkes like correction to forces

   POTIM  = 0.5000    time-step for ionic-motion
   TEIN   =    0.0    initial temperature
   TEBEG  =    0.0;   TEEND  =   0.0 temperature during run
   SMASS  =  -3.00    Nose mass-parameter (am)
   estimated Nose-frequenzy (Omega)   =  0.10E-29 period in steps = 0.13E+47 mass=  -0.977E-27a.u.
   SCALEE = 1.0000    scale energy and forces
   NPACO  =    256;   APACO  = 16.0  distance and # of slots for P.C.
   PSTRESS=    0.0 pullay stress

  Mass of Ions in am
   POMASS =  10.81 95.94 28.09
  Ionic Valenz
   ZVAL   =   3.00 14.00  4.00
  Atomic Wigner-Seitz radii
   RWIGS  =  -1.00 -1.00 -1.00
  virtual crystal weights 
   VCA    =   1.00  1.00  1.00
   NELECT =     100.0000    total number of electrons
   NUPDOWN=      -1.0000    fix difference up-down

 DOS related values:
   EMIN   =  10.00;   EMAX   =-10.00  energy-range for DOS
   EFERMI =   0.00
   ISMEAR =     0;   SIGMA  =   0.02  broadening in eV -4-tet -1-fermi 0-gaus

 Electronic relaxation 2 (details)
   IALGO  =     58    algorithm
   LDIAG  =      T    sub-space diagonalisation (order eigenvalues)
   LSUBROT=      F    optimize rotation matrix (better conditioning)
   TURBO    =      0    0=normal 1=particle mesh
   IRESTART =      0    0=no restart 2=restart with 2 vectors
   NREBOOT  =      0    no. of reboots
   NMIN     =      0    reboot dimension
   EREF     =   0.00    reference energy to select bands
   IMIX   =      4    mixing-type and parameters
     AMIX     =   0.40;   BMIX     =  1.00
     AMIX_MAG =   1.60;   BMIX_MAG =  1.00
     AMIN     =   0.10
     WC   =   100.;   INIMIX=   1;  MIXPRE=   1;  MAXMIX= -45

 Intra band minimization:
   WEIMIN = 0.0000     energy-eigenvalue tresh-hold
   EBREAK =  0.42E-11  absolut break condition
   DEPER  =   0.30     relativ break condition  

   TIME   =   0.40     timestep for ELM

  volume/ion in A,a.u.               =      13.37        90.19
  Fermi-wavevector in a.u.,A,eV,Ry     =   1.270697  2.401269 21.968928  1.614671
  Thomas-Fermi vector in A             =   2.403670
 
 Write flags
   LWAVE        =      T    write WAVECAR
   LDOWNSAMPLE  =      F    k-point downsampling of WAVECAR
   LCHARG       =      T    write CHGCAR
   LVTOT        =      F    write LOCPOT, total local potential
   LVHAR        =      F    write LOCPOT, Hartree potential only
   LELF         =      F    write electronic localiz. function (ELF)
   LORBIT       =      0    0 simple, 1 ext, 2 COOP (PROOUT), +10 PAW based schemes


 Dipole corrections
   LMONO  =      F    monopole corrections only (constant potential shift)
   LDIPOL =      F    correct potential (dipole corrections)
   IDIPOL =      0    1-x, 2-y, 3-z, 4-all directions 
   EPSILON=  1.0000000 bulk dielectric constant

 Exchange correlation treatment:
   GGA     =    --    GGA type
   LEXCH   =     8    internal setting for exchange type
   VOSKOWN=      0    Vosko Wilk Nusair interpolation
   LHFCALC =     F    Hartree Fock is set to
   LHFONE  =     F    Hartree Fock one center treatment
   AEXX    =    0.0000 exact exchange contribution

 Linear response parameters
   LEPSILON=     F    determine dielectric tensor
   LRPA    =     F    only Hartree local field effects (RPA)
   LNABLA  =     F    use nabla operator in PAW spheres
   LVEL    =     F    velocity operator in full k-point grid
   LINTERFAST=   F  fast interpolation
   KINTER  =     0    interpolate to denser k-point grid
   CSHIFT  =0.1000    complex shift for real part using Kramers Kronig
   OMEGAMAX=  -1.0    maximum frequency
   DEG_THRESHOLD= 0.2000000E-02 threshold for treating states as degnerate
   RTIME   =   -0.100 relaxation time in fs
  (WPLASMAI=    0.000 imaginary part of plasma frequency in eV, 0.658/RTIME)
   DFIELD  = 0.0000000 0.0000000 0.0000000 field for delta impulse in time
 
 Orbital magnetization related:
   ORBITALMAG=     F  switch on orbital magnetization
   LCHIMAG   =     F  perturbation theory with respect to B field
   DQ        =  0.001000  dq finite difference perturbation B field
   LLRAUG    =     F  two centre corrections for induced B field



--------------------------------------------------------------------------------------------------------


 Static calculation
 charge density and potential will be updated during run
 non-spin polarized calculation
 Conjugate gradient for all bands (Freysoldt, et al. PRB 79, 241103 (2009))
 preconditioned conjugated gradient                                        
 perform sub-space diagonalisation
    before iterative eigenvector-optimisation
 modified Broyden-mixing scheme, WC =      100.0
 initial mixing is a Kerker type mixing with AMIX =  0.4000 and BMIX =      1.0000
 Hartree-type preconditioning will be used
 using additional bands           10
 reciprocal scheme for non local part
 use partial core corrections
 no Harris-corrections to forces 
 use gradient corrections 
 use of overlap-Matrix (Vanderbilt PP)
 Gauss-broadening in eV      SIGMA  =   0.02


--------------------------------------------------------------------------------------------------------


  energy-cutoff  :      600.00
  volume of cell :      213.84
      direct lattice vectors                 reciprocal lattice vectors
     6.254739720  0.000000000 -1.905105947     0.159878755  0.104940676  0.000000000
    -3.432165994  5.228958363 -1.905105947     0.000000000  0.191242678  0.000000000
     0.000000000  0.000000000  6.538440000     0.046583890  0.086298975  0.152941680

  length of vectors
     6.538440000  6.538440000  6.538440000     0.191242678  0.191242678  0.181683047


 
 k-points in units of 2pi/SCALE and weight: EA                                      
   0.00000000  0.00000000  0.00000000       0.003
   0.02283982  0.01499153  0.00000000       0.023
   0.04567964  0.02998305  0.00000000       0.023
   0.06851947  0.04497458  0.00000000       0.023
   0.02283982  0.04231191  0.00000000       0.023
   0.04567964  0.05730343  0.00000000       0.047
   0.06851947  0.07229496  0.00000000       0.047
  -0.06851947 -0.01765419  0.00000000       0.047
  -0.04567964 -0.00266267  0.00000000       0.047
  -0.02283982  0.01232886  0.00000000       0.012
   0.04567964  0.08462382  0.00000000       0.023
   0.06851947  0.09961534  0.00000000       0.047
  -0.06851947  0.00966619  0.00000000       0.047
  -0.04567964  0.02465771  0.00000000       0.012
   0.06851947  0.12693572  0.00000000       0.023
  -0.06851947  0.03698657  0.00000000       0.012
   0.02949466  0.05464033  0.02184881       0.023
   0.05233449  0.06963186  0.02184881       0.047
  -0.01618498  0.02465728  0.02184881       0.012
   0.05233449  0.09695224  0.02184881       0.023
   0.07517431  0.11194377  0.02184881       0.023
  -0.03902480  0.03698614  0.02184881       0.023
  -0.01618498  0.05197766  0.02184881       0.023
  -0.06186463  0.04931500  0.02184881       0.023
  -0.03902480  0.06430652  0.02184881       0.047
  -0.01618498  0.07929805  0.02184881       0.023
  -0.06186463 -0.11460730  0.02184881       0.023
  -0.03902480 -0.09961577  0.02184881       0.047
  -0.01618498 -0.08462425  0.02184881       0.023
  -0.03902480 -0.07229539  0.02184881       0.023
  -0.01618498 -0.05730387  0.02184881       0.023
  -0.01618498 -0.02998348  0.02184881       0.006
  -0.03236996  0.04931456  0.04369762       0.012
  -0.05520978  0.06164342  0.04369762       0.023
  -0.03236996  0.07663495  0.04369762       0.023
  -0.05520978 -0.10227887  0.04369762       0.023
  -0.03236996 -0.08728735  0.04369762       0.023
  -0.03236996 -0.05996697  0.04369762       0.006
  -0.04855494  0.07397185  0.06554643       0.012
  -0.04855494 -0.08995045  0.06554643       0.006
 
 k-points in reciprocal lattice and weights: EA                                      
   0.00000000  0.00000000  0.00000000       0.003
   0.14285714  0.00000000  0.00000000       0.023
   0.28571429 -0.00000000  0.00000000       0.023
   0.42857143  0.00000000  0.00000000       0.023
   0.14285714  0.14285714  0.00000000       0.023
   0.28571429  0.14285714  0.00000000       0.047
   0.42857143  0.14285714  0.00000000       0.047
  -0.42857143  0.14285714  0.00000000       0.047
  -0.28571429  0.14285714  0.00000000       0.047
  -0.14285714  0.14285714  0.00000000       0.012
   0.28571429  0.28571429  0.00000000       0.023
   0.42857143  0.28571429  0.00000000       0.047
  -0.42857143  0.28571429  0.00000000       0.047
  -0.28571429  0.28571429  0.00000000       0.012
   0.42857143  0.42857143  0.00000000       0.023
  -0.42857143  0.42857143  0.00000000       0.012
   0.14285714  0.14285714  0.14285714       0.023
   0.28571429  0.14285714  0.14285714       0.047
  -0.14285714  0.14285714  0.14285714       0.012
   0.28571429  0.28571429  0.14285714       0.023
   0.42857143  0.28571429  0.14285714       0.023
  -0.28571429  0.28571429  0.14285714       0.023
  -0.14285714  0.28571429  0.14285714       0.023
  -0.42857143  0.42857143  0.14285714       0.023
  -0.28571429  0.42857143  0.14285714       0.047
  -0.14285714  0.42857143  0.14285714       0.023
  -0.42857143 -0.42857143  0.14285714       0.023
  -0.28571429 -0.42857143  0.14285714       0.047
  -0.14285714 -0.42857143  0.14285714       0.023
  -0.28571429 -0.28571429  0.14285714       0.023
  -0.14285714 -0.28571429  0.14285714       0.023
  -0.14285714 -0.14285714  0.14285714       0.006
  -0.28571429  0.28571429  0.28571429       0.012
  -0.42857143  0.42857143  0.28571429       0.023
  -0.28571429  0.42857143  0.28571429       0.023
  -0.42857143 -0.42857143  0.28571429       0.023
  -0.28571429 -0.42857143  0.28571429       0.023
  -0.28571429 -0.28571429  0.28571429       0.006
  -0.42857143  0.42857143  0.42857143       0.012
  -0.42857143 -0.42857143  0.42857143       0.006
 
 position of ions in fractional coordinates (direct lattice) 
   0.50000000  0.00000000  0.00000000
   0.00000000  0.00000000  0.50000000
   0.00000000  0.50000000  0.00000000
   0.50000000  0.50000000  0.50000000
   0.75000000  0.25000000  0.50000000
   0.25000000  0.25000000  0.00000000
   0.25000000  0.75000000  0.50000000
   0.75000000  0.75000000  0.00000000
   0.25000000  0.99967000  0.74967000
   0.75000000  0.00033000  0.25033000
   0.99967000  0.25000000  0.74967000
   0.00033000  0.75000000  0.25033000
   0.25000000  0.50033000  0.25033000
   0.75000000  0.49967000  0.74967000
   0.50033000  0.25000000  0.25033000
   0.49967000  0.75000000  0.74967000
 
 position of ions in cartesian coordinates  (Angst):
   3.12736986  0.00000000 -0.95255297
   0.00000000  0.00000000  3.26922000
  -1.71608300  2.61447918 -0.95255297
   1.41128686  2.61447918  1.36411405
   3.83301329  1.30723959  1.36411405
   0.70564343  1.30723959 -0.95255297
  -1.01043957  3.92171877  1.36411405
   2.11693029  3.92171877 -2.85765892
  -1.86734845  5.22723281  2.52091857
   4.68992218  0.00172556  0.20730954
   5.39463416  1.30723959  2.52091857
  -2.57206043  3.92171877  0.20730954
  -0.15353068  2.61620474  0.20730954
   2.97610441  2.61275363  2.52091857
   2.27139243  1.30723959  0.20730954
   0.55118130  3.92171877  2.52091857
 


--------------------------------------------------------------------------------------------------------


 k-point   1 :   0.0000 0.0000 0.0000  plane waves:    7067
 k-point   2 :   0.1429 0.0000 0.0000  plane waves:    7127
 k-point   3 :   0.2857-0.0000 0.0000  plane waves:    7134
 k-point   4 :   0.4286 0.0000 0.0000  plane waves:    7136
 k-point   5 :   0.1429 0.1429 0.0000  plane waves:    7138
 k-point   6 :   0.2857 0.1429 0.0000  plane waves:    7141
 k-point   7 :   0.4286 0.1429 0.0000  plane waves:    7136
 k-point   8 :  -0.4286 0.1429 0.0000  plane waves:    7131
 k-point   9 :  -0.2857 0.1429 0.0000  plane waves:    7118
 k-point  10 :  -0.1429 0.1429 0.0000  plane waves:    7120
 k-point  11 :   0.2857 0.2857 0.0000  plane waves:    7127
 k-point  12 :   0.4286 0.2857 0.0000  plane waves:    7130
 k-point  13 :  -0.4286 0.2857 0.0000  plane waves:    7124
 k-point  14 :  -0.2857 0.2857 0.0000  plane waves:    7128
 k-point  15 :   0.4286 0.4286 0.0000  plane waves:    7113
 k-point  16 :  -0.4286 0.4286 0.0000  plane waves:    7114
 k-point  17 :   0.1429 0.1429 0.1429  plane waves:    7127
 k-point  18 :   0.2857 0.1429 0.1429  plane waves:    7126
 k-point  19 :  -0.1429 0.1429 0.1429  plane waves:    7109
 k-point  20 :   0.2857 0.2857 0.1429  plane waves:    7131
 k-point  21 :   0.4286 0.2857 0.1429  plane waves:    7133
 k-point  22 :  -0.2857 0.2857 0.1429  plane waves:    7131
 k-point  23 :  -0.1429 0.2857 0.1429  plane waves:    7132
 k-point  24 :  -0.4286 0.4286 0.1429  plane waves:    7154
 k-point  25 :  -0.2857 0.4286 0.1429  plane waves:    7150
 k-point  26 :  -0.1429 0.4286 0.1429  plane waves:    7139
 k-point  27 :  -0.4286-0.4286 0.1429  plane waves:    7164
 k-point  28 :  -0.2857-0.4286 0.1429  plane waves:    7143
 k-point  29 :  -0.1429-0.4286 0.1429  plane waves:    7163
 k-point  30 :  -0.2857-0.2857 0.1429  plane waves:    7153
 k-point  31 :  -0.1429-0.2857 0.1429  plane waves:    7133
 k-point  32 :  -0.1429-0.1429 0.1429  plane waves:    7138
 k-point  33 :  -0.2857 0.2857 0.2857  plane waves:    7148
 k-point  34 :  -0.4286 0.4286 0.2857  plane waves:    7152
 k-point  35 :  -0.2857 0.4286 0.2857  plane waves:    7143
 k-point  36 :  -0.4286-0.4286 0.2857  plane waves:    7140
 k-point  37 :  -0.2857-0.4286 0.2857  plane waves:    7155
 k-point  38 :  -0.2857-0.2857 0.2857  plane waves:    7150
 k-point  39 :  -0.4286 0.4286 0.4286  plane waves:    7152
 k-point  40 :  -0.4286-0.4286 0.4286  plane waves:    7118

 maximum and minimum number of plane-waves per node :      3600     3530

 maximum number of plane-waves:      7164
 maximum index in each direction: 
   IXMAX=   13   IYMAX=   13   IZMAX=   13
   IXMIN=  -13   IYMIN=  -13   IZMIN=  -13


 parallel 3D FFT for wavefunctions:
    minimum data exchange during FFTs selected (reduces bandwidth)
 parallel 3D FFT for charge:
    minimum data exchange during FFTs selected (reduces bandwidth)


 total amount of memory used by VASP MPI-rank0   194680. kBytes
=======================================================================

   base      :      30000. kBytes
   nonl-proj :      62919. kBytes
   fftplans  :      17779. kBytes
   grid      :      13358. kBytes
   one-center:        124. kBytes
   wavefun   :      70500. kBytes
 
     INWAV:  cpu time    0.0001: real time    0.0001
 Broyden mixing: mesh for mixing (old mesh)
   NGX = 27   NGY = 27   NGZ = 27
  (NGX  =108   NGY  =108   NGZ  =108)
  gives a total of  19683 points

 initial charge density was supplied:
 charge density of overlapping atoms calculated
 number of electron     100.0000000 magnetization 
 keeping initial charge density in first step


--------------------------------------------------------------------------------------------------------


 Maximum index for augmentation-charges        20874 (set IRDMAX)


--------------------------------------------------------------------------------------------------------


 First call to EWALD:  gamma=   0.296
 Maximum number of real-space cells 3x 3x 3
 Maximum number of reciprocal cells 3x 3x 3

    FEWALD:  cpu time    0.0050: real time    0.0051


--------------------------------------- Iteration      1(   1)  ---------------------------------------


    POTLOK:  cpu time    0.1741: real time    0.1758
    SETDIJ:  cpu time    0.6519: real time    0.6557
    TRIAL :  cpu time   10.7136: real time   10.8088
    CORREC:  cpu time    0.0009: real time    0.0009
    --------------------------------------------
      LOOP:  cpu time   11.5750: real time   11.6785

 eigenvalue-minimisations  :  5280
 total energy-change (2. order) : 0.8389151E+03  (-0.6373963E+04)
 number of electron     100.0000000 magnetization 
 augmentation part      100.0000000 magnetization 

 Free energy of the ion-electron system (eV)
  ---------------------------------------------------
  alpha Z        PSCENC =       320.59988180
  Ewald energy   TEWEN  =     -6108.68925364
  -Hartree energ DENC   =     -2448.35535818
  -exchange      EXHF   =         0.00000000
  -V(xc)+E(xc)   XCENC  =       315.71215698
  PAW double counting   =      6777.72328542    -6678.88786135
  entropy T*S    EENTRO =        -0.00073543
  eigenvalues    EBANDS =       102.47199527
  atomic energy  EATOM  =      8558.34096249
  ---------------------------------------------------
  free energy    TOTEN  =       838.91507337 eV

  energy without entropy =      838.91580881  energy(sigma->0) =      838.91544109


--------------------------------------------------------------------------------------------------------




--------------------------------------- Iteration      1(   2)  ---------------------------------------


    TRIAL :  cpu time   11.1854: real time   11.3662
    CORREC:  cpu time    0.0008: real time    0.0008
    --------------------------------------------
      LOOP:  cpu time   11.1887: real time   11.3699

 eigenvalue-minimisations  :  5448
 total energy-change (2. order) :-0.9716721E+03  (-0.9442703E+03)
 number of electron     100.0000000 magnetization 
 augmentation part      100.0000000 magnetization 

 Free energy of the ion-electron system (eV)
  ---------------------------------------------------
  alpha Z        PSCENC =       320.59988180
  Ewald energy   TEWEN  =     -6108.68925364
  -Hartree energ DENC   =     -2448.35535818
  -exchange      EXHF   =         0.00000000
  -V(xc)+E(xc)   XCENC  =       315.71215698
  PAW double counting   =      6777.72328542    -6678.88786135
  entropy T*S    EENTRO =        -0.00136793
  eigenvalues    EBANDS =      -869.19947434
  atomic energy  EATOM  =      8558.34096249
  ---------------------------------------------------
  free energy    TOTEN  =      -132.75702874 eV

  energy without entropy =     -132.75566081  energy(sigma->0) =     -132.75634477


--------------------------------------------------------------------------------------------------------




--------------------------------------- Iteration      1(   3)  ---------------------------------------


    TRIAL :  cpu time   12.0572: real time   12.2999
    CORREC:  cpu time    0.0008: real time    0.0008
    --------------------------------------------
      LOOP:  cpu time   12.0595: real time   12.3038

 eigenvalue-minimisations  :  6372
 total energy-change (2. order) :-0.4683003E+02  (-0.4503642E+02)
 number of electron     100.0000000 magnetization 
 augmentation part      100.0000000 magnetization 

 Free energy of the ion-electron system (eV)
  ---------------------------------------------------
  alpha Z        PSCENC =       320.59988180
  Ewald energy   TEWEN  =     -6108.68925364
  -Hartree energ DENC   =     -2448.35535818
  -exchange      EXHF   =         0.00000000
  -V(xc)+E(xc)   XCENC  =       315.71215698
  PAW double counting   =      6777.72328542    -6678.88786135
  entropy T*S    EENTRO =        -0.00278678
  eigenvalues    EBANDS =      -916.02808482
  atomic energy  EATOM  =      8558.34096249
  ---------------------------------------------------
  free energy    TOTEN  =      -179.58705806 eV

  energy without entropy =     -179.58427129  energy(sigma->0) =     -179.58566467


--------------------------------------------------------------------------------------------------------




--------------------------------------- Iteration      1(   4)  ---------------------------------------


    TRIAL :  cpu time   11.7036: real time   11.9599
    CORREC:  cpu time    0.0008: real time    0.0008
    --------------------------------------------
      LOOP:  cpu time   11.7052: real time   11.9638

 eigenvalue-minimisations  :  5928
 total energy-change (2. order) :-0.1182605E+01  (-0.1164141E+01)
 number of electron     100.0000000 magnetization 
 augmentation part      100.0000000 magnetization 

 Free energy of the ion-electron system (eV)
  ---------------------------------------------------
  alpha Z        PSCENC =       320.59988180
  Ewald energy   TEWEN  =     -6108.68925364
  -Hartree energ DENC   =     -2448.35535818
  -exchange      EXHF   =         0.00000000
  -V(xc)+E(xc)   XCENC  =       315.71215698
  PAW double counting   =      6777.72328542    -6678.88786135
  entropy T*S    EENTRO =        -0.00326197
  eigenvalues    EBANDS =      -917.21021487
  atomic energy  EATOM  =      8558.34096249
  ---------------------------------------------------
  free energy    TOTEN  =      -180.76966331 eV

  energy without entropy =     -180.76640133  energy(sigma->0) =     -180.76803232


--------------------------------------------------------------------------------------------------------




--------------------------------------- Iteration      1(   5)  ---------------------------------------


    TRIAL :  cpu time   11.6056: real time   11.8577
    CORREC:  cpu time    0.0008: real time    0.0008
    CHARGE:  cpu time    1.0959: real time    1.1053
    --------------------------------------------
      LOOP:  cpu time   12.7031: real time   12.9667

 eigenvalue-minimisations  :  6024
 total energy-change (2. order) :-0.2906899E-01  (-0.2901712E-01)
 number of electron      99.9999989 magnetization 
 augmentation part        8.1798249 magnetization 

 Free energy of the ion-electron system (eV)
  ---------------------------------------------------
  alpha Z        PSCENC =       320.59988180
  Ewald energy   TEWEN  =     -6108.68925364
  -Hartree energ DENC   =     -2448.35535818
  -exchange      EXHF   =         0.00000000
  -V(xc)+E(xc)   XCENC  =       315.71215698
  PAW double counting   =      6777.72328542    -6678.88786135
  entropy T*S    EENTRO =        -0.00319774
  eigenvalues    EBANDS =      -917.23934810
  atomic energy  EATOM  =      8558.34096249
  ---------------------------------------------------
  free energy    TOTEN  =      -180.79873230 eV

  energy without entropy =     -180.79553456  energy(sigma->0) =     -180.79713343


--------------------------------------------------------------------------------------------------------




--------------------------------------- Iteration      1(   6)  ---------------------------------------


    POTLOK:  cpu time    0.1647: real time    0.1659
    SETDIJ:  cpu time    0.6459: real time    0.6500
    TRIAL :  cpu time    8.6068: real time    8.7107
    CORREC:  cpu time    4.3235: real time    4.3567
    CHARGE:  cpu time    1.2505: real time    1.2599
    --------------------------------------------
      LOOP:  cpu time   14.9947: real time   15.1469

 eigenvalue-minimisations  :     0
 total energy-change (2. order) : 0.3704652E+02  (-0.2781576E+01)
 number of electron      99.9999992 magnetization 
 augmentation part        7.9843148 magnetization 

 Free energy of the ion-electron system (eV)
  ---------------------------------------------------
  alpha Z        PSCENC =       320.59988180
  Ewald energy   TEWEN  =     -6108.68925364
  -Hartree energ DENC   =     -2625.27792486
  -exchange      EXHF   =         0.00000000
  -V(xc)+E(xc)   XCENC  =       338.50281634
  PAW double counting   =     22122.54596437   -22027.27938976
  entropy T*S    EENTRO =        -0.00143448
  eigenvalues    EBANDS =      -722.49206691
  atomic energy  EATOM  =      8558.34096249
  ---------------------------------------------------
  free energy    TOTEN  =      -143.75220789 eV

  energy without entropy =     -143.75077341  energy(sigma->0) =     -143.75149065


--------------------------------------------------------------------------------------------------------




--------------------------------------- Iteration      1(   7)  ---------------------------------------


    POTLOK:  cpu time    0.2149: real time    0.2161
    SETDIJ:  cpu time    0.5670: real time    0.5708
    TRIAL :  cpu time    9.7767: real time    9.9268
    CORREC:  cpu time    3.6586: real time    3.6894
    CHARGE:  cpu time    1.1669: real time    1.1746
    --------------------------------------------
      LOOP:  cpu time   15.3852: real time   15.5799

 eigenvalue-minimisations  :     0
 total energy-change (2. order) :-0.2792457E+01  (-0.4995158E+00)
 number of electron      99.9999992 magnetization 
 augmentation part        8.2687548 magnetization 

 Free energy of the ion-electron system (eV)
  ---------------------------------------------------
  alpha Z        PSCENC =       320.59988180
  Ewald energy   TEWEN  =     -6108.68925364
  -Hartree energ DENC   =     -2512.74344281
  -exchange      EXHF   =         0.00000000
  -V(xc)+E(xc)   XCENC  =       333.46983011
  PAW double counting   =     22580.57694527   -22488.80973384
  entropy T*S    EENTRO =        -0.00169927
  eigenvalues    EBANDS =      -829.28841946
  atomic energy  EATOM  =      8558.34096249
  ---------------------------------------------------
  free energy    TOTEN  =      -146.54466457 eV

  energy without entropy =     -146.54296530  energy(sigma->0) =     -146.54381493


--------------------------------------------------------------------------------------------------------




--------------------------------------- Iteration      1(   8)  ---------------------------------------


    POTLOK:  cpu time    0.1470: real time    0.1478
    SETDIJ:  cpu time    0.6651: real time    0.6692
    TRIAL :  cpu time    9.5047: real time    9.5908
    CORREC:  cpu time    3.9743: real time    4.0056
    CHARGE:  cpu time    1.1061: real time    1.1128
    --------------------------------------------
      LOOP:  cpu time   15.4003: real time   15.5301

 eigenvalue-minimisations  :     0
 total energy-change (2. order) :-0.5001484E+00  (-0.2561271E+00)
 number of electron      99.9999993 magnetization 
 augmentation part        8.2709344 magnetization 

 Free energy of the ion-electron system (eV)
  ---------------------------------------------------
  alpha Z        PSCENC =       320.59988180
  Ewald energy   TEWEN  =     -6108.68925364
  -Hartree energ DENC   =     -2529.60446311
  -exchange      EXHF   =         0.00000000
  -V(xc)+E(xc)   XCENC  =       333.98645677
  PAW double counting   =     22484.57559330   -22391.07032599
  entropy T*S    EENTRO =        -0.00232245
  eigenvalues    EBANDS =      -815.18196527
  atomic energy  EATOM  =      8558.34096249
  ---------------------------------------------------
  free energy    TOTEN  =      -147.04481292 eV

  energy without entropy =     -147.04249047  energy(sigma->0) =     -147.04365170


--------------------------------------------------------------------------------------------------------




--------------------------------------- Iteration      1(   9)  ---------------------------------------


    POTLOK:  cpu time    0.1512: real time    0.1521
    SETDIJ:  cpu time    0.6818: real time    0.6861
    TRIAL :  cpu time    9.2112: real time    9.4168
    CORREC:  cpu time    3.9095: real time    3.9413
    CHARGE:  cpu time    1.2112: real time    1.2187
    --------------------------------------------
      LOOP:  cpu time   15.1680: real time   15.4184

 eigenvalue-minimisations  :     0
 total energy-change (2. order) :-0.2485218E+00  (-0.9889144E-01)
 number of electron      99.9999993 magnetization 
 augmentation part        8.2460586 magnetization 

 Free energy of the ion-electron system (eV)
  ---------------------------------------------------
  alpha Z        PSCENC =       320.59988180
  Ewald energy   TEWEN  =     -6108.68925364
  -Hartree energ DENC   =     -2524.15180117
  -exchange      EXHF   =         0.00000000
  -V(xc)+E(xc)   XCENC  =       333.71773330
  PAW double counting   =     22531.58862388   -22438.32946820
  entropy T*S    EENTRO =        -0.00245846
  eigenvalues    EBANDS =      -820.36769069
  atomic energy  EATOM  =      8558.34096249
  ---------------------------------------------------
  free energy    TOTEN  =      -147.29333467 eV

  energy without entropy =     -147.29087621  energy(sigma->0) =     -147.29210544


--------------------------------------------------------------------------------------------------------




--------------------------------------- Iteration      1(  10)  ---------------------------------------


    POTLOK:  cpu time    0.2077: real time    0.2090
    SETDIJ:  cpu time    0.5693: real time    0.5724
    TRIAL :  cpu time    9.4065: real time    9.5884
    CORREC:  cpu time    3.7720: real time    3.8024
    CHARGE:  cpu time    1.1407: real time    1.1481
    --------------------------------------------
      LOOP:  cpu time   15.0983: real time   15.3227

 eigenvalue-minimisations  :     0
 total energy-change (2. order) :-0.9849781E-01  (-0.3902866E-01)
 number of electron      99.9999993 magnetization 
 augmentation part        8.2510504 magnetization 

 Free energy of the ion-electron system (eV)
  ---------------------------------------------------
  alpha Z        PSCENC =       320.59988180
  Ewald energy   TEWEN  =     -6108.68925364
  -Hartree energ DENC   =     -2516.32946189
  -exchange      EXHF   =         0.00000000
  -V(xc)+E(xc)   XCENC  =       333.44437459
  PAW double counting   =     22570.88978689   -22478.00075573
  entropy T*S    EENTRO =        -0.00223264
  eigenvalues    EBANDS =      -827.64490853
  atomic energy  EATOM  =      8558.34096249
  ---------------------------------------------------
  free energy    TOTEN  =      -147.39183249 eV

  energy without entropy =     -147.38959985  energy(sigma->0) =     -147.39071617


--------------------------------------------------------------------------------------------------------




--------------------------------------- Iteration      1(  11)  ---------------------------------------


    POTLOK:  cpu time    0.1517: real time    0.1526
    SETDIJ:  cpu time    0.6413: real time    0.6451
    TRIAL :  cpu time    9.4834: real time    9.6472
    CORREC:  cpu time    3.9079: real time    3.9401
    CHARGE:  cpu time    1.2314: real time    1.2393
    --------------------------------------------
      LOOP:  cpu time   15.4167: real time   15.6265

 eigenvalue-minimisations  :     0
 total energy-change (2. order) :-0.3824749E-01  (-0.1550229E-01)
 number of electron      99.9999994 magnetization 
 augmentation part        8.2433822 magnetization 

 Free energy of the ion-electron system (eV)
  ---------------------------------------------------
  alpha Z        PSCENC =       320.59988180
  Ewald energy   TEWEN  =     -6108.68925364
  -Hartree energ DENC   =     -2516.01435461
  -exchange      EXHF   =         0.00000000
  -V(xc)+E(xc)   XCENC  =       333.46503730
  PAW double counting   =     22535.03993745   -22442.16588477
  entropy T*S    EENTRO =        -0.00193637
  eigenvalues    EBANDS =      -828.00417337
  atomic energy  EATOM  =      8558.34096249
  ---------------------------------------------------
  free energy    TOTEN  =      -147.43007998 eV

  energy without entropy =     -147.42814361  energy(sigma->0) =     -147.42911179


--------------------------------------------------------------------------------------------------------




--------------------------------------- Iteration      1(  12)  ---------------------------------------


    POTLOK:  cpu time    0.1482: real time    0.1491
    SETDIJ:  cpu time    0.6410: real time    0.6450
    TRIAL :  cpu time    9.3677: real time    9.4681
    CORREC:  cpu time    3.6372: real time    3.6661
    CHARGE:  cpu time    1.1071: real time    1.1147
    --------------------------------------------
      LOOP:  cpu time   14.9022: real time   15.0454

 eigenvalue-minimisations  :     0
 total energy-change (2. order) :-0.1551391E-01  (-0.5093518E-02)
 number of electron      99.9999994 magnetization 
 augmentation part        8.2405124 magnetization 

 Free energy of the ion-electron system (eV)
  ---------------------------------------------------
  alpha Z        PSCENC =       320.59988180
  Ewald energy   TEWEN  =     -6108.68925364
  -Hartree energ DENC   =     -2516.73831104
  -exchange      EXHF   =         0.00000000
  -V(xc)+E(xc)   XCENC  =       333.49639492
  PAW double counting   =     22498.42510928   -22405.59911094
  entropy T*S    EENTRO =        -0.00194713
  eigenvalues    EBANDS =      -827.27933039
  atomic energy  EATOM  =      8558.34096249
  ---------------------------------------------------
  free energy    TOTEN  =      -147.44559389 eV

  energy without entropy =     -147.44364675  energy(sigma->0) =     -147.44462032


--------------------------------------------------------------------------------------------------------




--------------------------------------- Iteration      1(  13)  ---------------------------------------


    POTLOK:  cpu time    0.1550: real time    0.1561
    SETDIJ:  cpu time    0.6250: real time    0.6289
    TRIAL :  cpu time    9.4199: real time    9.5434
    CORREC:  cpu time    3.6396: real time    3.6700
    CHARGE:  cpu time    1.2655: real time    1.2740
    --------------------------------------------
      LOOP:  cpu time   15.1062: real time   15.2741

 eigenvalue-minimisations  :     0
 total energy-change (2. order) :-0.5095444E-02  (-0.2084451E-02)
 number of electron      99.9999994 magnetization 
 augmentation part        8.2434483 magnetization 

 Free energy of the ion-electron system (eV)
  ---------------------------------------------------
  alpha Z        PSCENC =       320.59988180
  Ewald energy   TEWEN  =     -6108.68925364
  -Hartree energ DENC   =     -2516.70338367
  -exchange      EXHF   =         0.00000000
  -V(xc)+E(xc)   XCENC  =       333.47599804
  PAW double counting   =     22474.13539852   -22381.33399273
  entropy T*S    EENTRO =        -0.00198823
  eigenvalues    EBANDS =      -827.27435302
  atomic energy  EATOM  =      8558.34096249
  ---------------------------------------------------
  free energy    TOTEN  =      -147.45068933 eV

  energy without entropy =     -147.44870110  energy(sigma->0) =     -147.44969522


--------------------------------------------------------------------------------------------------------




--------------------------------------- Iteration      1(  14)  ---------------------------------------


    POTLOK:  cpu time    0.1438: real time    0.1447
    SETDIJ:  cpu time    0.6411: real time    0.6452
    TRIAL :  cpu time    8.8210: real time    8.9609
    CORREC:  cpu time    3.8090: real time    3.8409
    CHARGE:  cpu time    1.1428: real time    1.1515
    --------------------------------------------
      LOOP:  cpu time   14.5587: real time   14.7451

 eigenvalue-minimisations  :     0
 total energy-change (2. order) :-0.2084511E-02  (-0.6358806E-03)
 number of electron      99.9999994 magnetization 
 augmentation part        8.2448693 magnetization 

 Free energy of the ion-electron system (eV)
  ---------------------------------------------------
  alpha Z        PSCENC =       320.59988180
  Ewald energy   TEWEN  =     -6108.68925364
  -Hartree energ DENC   =     -2516.51157750
  -exchange      EXHF   =         0.00000000
  -V(xc)+E(xc)   XCENC  =       333.45458856
  PAW double counting   =     22455.18319877   -22362.37408202
  entropy T*S    EENTRO =        -0.00200320
  eigenvalues    EBANDS =      -827.45450407
  atomic energy  EATOM  =      8558.34096249
  ---------------------------------------------------
  free energy    TOTEN  =      -147.45277384 eV

  energy without entropy =     -147.45077064  energy(sigma->0) =     -147.45177224


--------------------------------------------------------------------------------------------------------




--------------------------------------- Iteration      1(  15)  ---------------------------------------


    POTLOK:  cpu time    0.1459: real time    0.1468
    SETDIJ:  cpu time    0.6424: real time    0.6461
    TRIAL :  cpu time    8.5539: real time    8.6364
    CORREC:  cpu time    3.4932: real time    3.5256
    CHARGE:  cpu time    1.1406: real time    1.1493
    --------------------------------------------
      LOOP:  cpu time   13.9770: real time   14.1062

 eigenvalue-minimisations  :     0
 total energy-change (2. order) :-0.6349333E-03  (-0.2869931E-03)
 number of electron      99.9999994 magnetization 
 augmentation part        8.2447931 magnetization 

 Free energy of the ion-electron system (eV)
  ---------------------------------------------------
  alpha Z        PSCENC =       320.59988180
  Ewald energy   TEWEN  =     -6108.68925364
  -Hartree energ DENC   =     -2516.38271450
  -exchange      EXHF   =         0.00000000
  -V(xc)+E(xc)   XCENC  =       333.44954464
  PAW double counting   =     22445.83102556   -22353.01658732
  entropy T*S    EENTRO =        -0.00200398
  eigenvalues    EBANDS =      -827.58426461
  atomic energy  EATOM  =      8558.34096249
  ---------------------------------------------------
  free energy    TOTEN  =      -147.45340878 eV

  energy without entropy =     -147.45140480  energy(sigma->0) =     -147.45240679


--------------------------------------------------------------------------------------------------------




--------------------------------------- Iteration      1(  16)  ---------------------------------------


    POTLOK:  cpu time    0.1518: real time    0.1531
    SETDIJ:  cpu time    0.6038: real time    0.6084
    TRIAL :  cpu time    9.6111: real time   10.0416
    CORREC:  cpu time    4.3145: real time    4.5258
    CHARGE:  cpu time    1.1738: real time    1.1825
    --------------------------------------------
      LOOP:  cpu time   15.8576: real time   16.5147

 eigenvalue-minimisations  :     0
 total energy-change (2. order) :-0.2864828E-03  (-0.1160854E-03)
 number of electron      99.9999994 magnetization 
 augmentation part        8.2450522 magnetization 

 Free energy of the ion-electron system (eV)
  ---------------------------------------------------
  alpha Z        PSCENC =       320.59988180
  Ewald energy   TEWEN  =     -6108.68925364
  -Hartree energ DENC   =     -2516.50379558
  -exchange      EXHF   =         0.00000000
  -V(xc)+E(xc)   XCENC  =       333.45882408
  PAW double counting   =     22440.60790258   -22347.78676040
  entropy T*S    EENTRO =        -0.00200321
  eigenvalues    EBANDS =      -827.47945261
  atomic energy  EATOM  =      8558.34096249
  ---------------------------------------------------
  free energy    TOTEN  =      -147.45369526 eV

  energy without entropy =     -147.45169205  energy(sigma->0) =     -147.45269365


--------------------------------------------------------------------------------------------------------




--------------------------------------- Iteration      1(  17)  ---------------------------------------


    POTLOK:  cpu time    0.1907: real time    0.1918
    SETDIJ:  cpu time    0.6375: real time    0.6423
    TRIAL :  cpu time    9.6875: real time    9.8908
    CORREC:  cpu time    3.6408: real time    3.6708
    CHARGE:  cpu time    1.1588: real time    1.1668
    --------------------------------------------
      LOOP:  cpu time   15.3171: real time   15.5646

 eigenvalue-minimisations  :     0
 total energy-change (2. order) :-0.1167740E-03  (-0.4402932E-04)
 number of electron      99.9999994 magnetization 
 augmentation part        8.2450644 magnetization 

 Free energy of the ion-electron system (eV)
  ---------------------------------------------------
  alpha Z        PSCENC =       320.59988180
  Ewald energy   TEWEN  =     -6108.68925364
  -Hartree energ DENC   =     -2516.67498386
  -exchange      EXHF   =         0.00000000
  -V(xc)+E(xc)   XCENC  =       333.46671858
  PAW double counting   =     22439.67185605   -22346.84109732
  entropy T*S    EENTRO =        -0.00200318
  eigenvalues    EBANDS =      -827.32589293
  atomic energy  EATOM  =      8558.34096249
  ---------------------------------------------------
  free energy    TOTEN  =      -147.45381203 eV

  energy without entropy =     -147.45180885  energy(sigma->0) =     -147.45281044


--------------------------------------------------------------------------------------------------------




--------------------------------------- Iteration      1(  18)  ---------------------------------------


    POTLOK:  cpu time    0.1462: real time    0.1470
    SETDIJ:  cpu time    0.6444: real time    0.6485
    TRIAL :  cpu time    9.2335: real time    9.3191
    CORREC:  cpu time    3.6436: real time    3.6744
    CHARGE:  cpu time    1.1404: real time    1.1483
    --------------------------------------------
      LOOP:  cpu time   14.8094: real time   14.9400

 eigenvalue-minimisations  :     0
 total energy-change (2. order) :-0.4450336E-04  (-0.1799968E-04)
 number of electron      99.9999994 magnetization 
 augmentation part        8.2449848 magnetization 

 Free energy of the ion-electron system (eV)
  ---------------------------------------------------
  alpha Z        PSCENC =       320.59988180
  Ewald energy   TEWEN  =     -6108.68925364
  -Hartree energ DENC   =     -2516.64808222
  -exchange      EXHF   =         0.00000000
  -V(xc)+E(xc)   XCENC  =       333.46479545
  PAW double counting   =     22441.20185252   -22348.36978909
  entropy T*S    EENTRO =        -0.00200229
  eigenvalues    EBANDS =      -827.35222067
  atomic energy  EATOM  =      8558.34096249
  ---------------------------------------------------
  free energy    TOTEN  =      -147.45385654 eV

  energy without entropy =     -147.45185424  energy(sigma->0) =     -147.45285539


--------------------------------------------------------------------------------------------------------




--------------------------------------- Iteration      1(  19)  ---------------------------------------


    POTLOK:  cpu time    0.1468: real time    0.1476
    SETDIJ:  cpu time    0.6776: real time    0.6820
    TRIAL :  cpu time    9.2911: real time    9.4272
    CORREC:  cpu time    3.9878: real time    4.0197
    CHARGE:  cpu time    1.1440: real time    1.1518
    --------------------------------------------
      LOOP:  cpu time   15.2479: real time   15.4302

 eigenvalue-minimisations  :     0
 total energy-change (2. order) :-0.1802455E-04  (-0.9255740E-05)
 number of electron      99.9999994 magnetization 
 augmentation part        8.2449686 magnetization 

 Free energy of the ion-electron system (eV)
  ---------------------------------------------------
  alpha Z        PSCENC =       320.59988180
  Ewald energy   TEWEN  =     -6108.68925364
  -Hartree energ DENC   =     -2516.59326873
  -exchange      EXHF   =         0.00000000
  -V(xc)+E(xc)   XCENC  =       333.46209509
  PAW double counting   =     22442.96251834   -22350.13240849
  entropy T*S    EENTRO =        -0.00200093
  eigenvalues    EBANDS =      -827.40239914
  atomic energy  EATOM  =      8558.34096249
  ---------------------------------------------------
  free energy    TOTEN  =      -147.45387456 eV

  energy without entropy =     -147.45187363  energy(sigma->0) =     -147.45287409


--------------------------------------------------------------------------------------------------------




--------------------------------------- Iteration      1(  20)  ---------------------------------------


    POTLOK:  cpu time    0.1572: real time    0.1582
    SETDIJ:  cpu time    0.6947: real time    0.6983
    TRIAL :  cpu time    8.6723: real time    8.7526
    CORREC:  cpu time    3.6839: real time    3.7136
    CHARGE:  cpu time    1.1748: real time    1.1822
    --------------------------------------------
      LOOP:  cpu time   14.3847: real time   14.5070

 eigenvalue-minimisations  :     0
 total energy-change (2. order) :-0.8869509E-05  (-0.3760890E-05)
 number of electron      99.9999994 magnetization 
 augmentation part        8.2449342 magnetization 

 Free energy of the ion-electron system (eV)
  ---------------------------------------------------
  alpha Z        PSCENC =       320.59988180
  Ewald energy   TEWEN  =     -6108.68925364
  -Hartree energ DENC   =     -2516.59139133
  -exchange      EXHF   =         0.00000000
  -V(xc)+E(xc)   XCENC  =       333.46200700
  PAW double counting   =     22444.49557671   -22351.66690837
  entropy T*S    EENTRO =        -0.00199933
  eigenvalues    EBANDS =      -827.40275717
  atomic energy  EATOM  =      8558.34096249
  ---------------------------------------------------
  free energy    TOTEN  =      -147.45388343 eV

  energy without entropy =     -147.45188410  energy(sigma->0) =     -147.45288377


--------------------------------------------------------------------------------------------------------




--------------------------------------- Iteration      1(  21)  ---------------------------------------


    POTLOK:  cpu time    0.1422: real time    0.1431
    SETDIJ:  cpu time    0.6416: real time    0.6451
    TRIAL :  cpu time    9.3615: real time    9.4523
    CORREC:  cpu time    3.9257: real time    3.9581
    CHARGE:  cpu time    1.2172: real time    1.2257
    --------------------------------------------
      LOOP:  cpu time   15.2889: real time   15.4260

 eigenvalue-minimisations  :     0
 total energy-change (2. order) :-0.3501624E-05  (-0.1360147E-05)
 number of electron      99.9999994 magnetization 
 augmentation part        8.2448765 magnetization 

 Free energy of the ion-electron system (eV)
  ---------------------------------------------------
  alpha Z        PSCENC =       320.59988180
  Ewald energy   TEWEN  =     -6108.68925364
  -Hartree energ DENC   =     -2516.61005189
  -exchange      EXHF   =         0.00000000
  -V(xc)+E(xc)   XCENC  =       333.46284123
  PAW double counting   =     22445.31026644   -22352.48221635
  entropy T*S    EENTRO =        -0.00199854
  eigenvalues    EBANDS =      -827.38431769
  atomic energy  EATOM  =      8558.34096249
  ---------------------------------------------------
  free energy    TOTEN  =      -147.45388693 eV

  energy without entropy =     -147.45188839  energy(sigma->0) =     -147.45288766


--------------------------------------------------------------------------------------------------------




--------------------------------------- Iteration      1(  22)  ---------------------------------------


    POTLOK:  cpu time    0.1491: real time    0.1500
    SETDIJ:  cpu time    0.6342: real time    0.6378
    TRIAL :  cpu time    9.6075: real time    9.7309
    CORREC:  cpu time    3.7407: real time    3.7707
    CHARGE:  cpu time    1.1922: real time    1.2000
    --------------------------------------------
      LOOP:  cpu time   15.3256: real time   15.4915

 eigenvalue-minimisations  :     0
 total energy-change (2. order) :-0.1359382E-05  (-0.6337160E-06)
 number of electron      99.9999994 magnetization 
 augmentation part        8.2448635 magnetization 

 Free energy of the ion-electron system (eV)
  ---------------------------------------------------
  alpha Z        PSCENC =       320.59988180
  Ewald energy   TEWEN  =     -6108.68925364
  -Hartree energ DENC   =     -2516.60701003
  -exchange      EXHF   =         0.00000000
  -V(xc)+E(xc)   XCENC  =       333.46269416
  PAW double counting   =     22445.50846138   -22352.68086293
  entropy T*S    EENTRO =        -0.00199811
  eigenvalues    EBANDS =      -827.38676299
  atomic energy  EATOM  =      8558.34096249
  ---------------------------------------------------
  free energy    TOTEN  =      -147.45388829 eV

  energy without entropy =     -147.45189018  energy(sigma->0) =     -147.45288924


--------------------------------------------------------------------------------------------------------




--------------------------------------- Iteration      1(  23)  ---------------------------------------


    POTLOK:  cpu time    0.1484: real time    0.1493
    SETDIJ:  cpu time    0.6221: real time    0.6257
    TRIAL :  cpu time    9.4193: real time    9.5110
    CORREC:  cpu time    3.7065: real time    3.7358
    CHARGE:  cpu time    1.0981: real time    1.1059
    --------------------------------------------
      LOOP:  cpu time   14.9951: real time   15.1296

 eigenvalue-minimisations  :     0
 total energy-change (2. order) :-0.6085374E-06  (-0.2951312E-06)
 number of electron      99.9999994 magnetization 
 augmentation part        8.2448865 magnetization 

 Free energy of the ion-electron system (eV)
  ---------------------------------------------------
  alpha Z        PSCENC =       320.59988180
  Ewald energy   TEWEN  =     -6108.68925364
  -Hartree energ DENC   =     -2516.59988995
  -exchange      EXHF   =         0.00000000
  -V(xc)+E(xc)   XCENC  =       333.46236905
  PAW double counting   =     22445.40144352   -22352.57384916
  entropy T*S    EENTRO =        -0.00199786
  eigenvalues    EBANDS =      -827.39355490
  atomic energy  EATOM  =      8558.34096249
  ---------------------------------------------------
  free energy    TOTEN  =      -147.45388890 eV

  energy without entropy =     -147.45189104  energy(sigma->0) =     -147.45288997


--------------------------------------------------------------------------------------------------------




--------------------------------------- Iteration      1(  24)  ---------------------------------------


    POTLOK:  cpu time    0.2280: real time    0.2297
    SETDIJ:  cpu time    0.5847: real time    0.5885
    TRIAL :  cpu time    9.1162: real time    9.1971
    CORREC:  cpu time    3.6603: real time    3.6955
    CHARGE:  cpu time    1.1036: real time    1.1115
    --------------------------------------------
      LOOP:  cpu time   14.6973: real time   14.8280

 eigenvalue-minimisations  :     0
[...]
     10     -27.4662      2.00000
     11     -27.4254      2.00000
     12     -27.4185      2.00000
     13     -25.8577      2.00000
     14     -25.8491      2.00000
     15     -25.7736      2.00000
     16     -25.7653      2.00000
     17      -4.3874      2.00000
     18      -4.1244      2.00000
     19      -3.0462      2.00000
     20      -2.5203      2.00000
     21      -1.6620      2.00000
     22      -0.7462      2.00000
     23      -0.5513      2.00000
     24       0.2496      2.00000
     25       0.6033      2.00000
     26       0.9408      2.00000
     27       1.5642      2.00000
     28       2.1881      2.00000
     29       2.8013      2.00000
     30       2.9420      2.00000
     31       3.0836      2.00000
     32       3.3395      2.00000
     33       3.8052      2.00000
     34       3.9978      2.00000
     35       4.5206      2.00000
     36       5.5471      2.00000
     37       5.6198      2.00000
     38       6.3136      2.00000
     39       6.5407      2.00000
     40       6.8537      2.00000
     41       6.8748      2.00000
     42       7.0586      2.00000
     43       7.1059      2.00000
     44       7.2501      2.00000
     45       7.7484      2.00000
     46       7.7973      2.00000
     47       7.9773      2.00000
     48       8.0209      2.00000
     49       8.3999      2.00000
     50       9.0257      2.00000
     51       9.2809      0.00000
     52       9.5266      0.00000
     53       9.5846      0.00000
     54       9.7336      0.00000
     55      10.4785      0.00000
     56      10.7915      0.00000
     57      10.9690      0.00000
     58      11.1599      0.00000
     59      11.3193      0.00000
     60      12.2792      0.00000

 k-point    34 :      -0.4286    0.4286    0.2857
  band No.  band energies     occupation 
      1     -52.9274      2.00000
      2     -52.9256      2.00000
      3     -52.9219      2.00000
      4     -52.9109      2.00000
      5     -27.5465      2.00000
      6     -27.5345      2.00000
      7     -27.5301      2.00000
      8     -27.5174      2.00000
      9     -27.4475      2.00000
     10     -27.4427      2.00000
     11     -27.4309      2.00000
     12     -27.4253      2.00000
     13     -25.8579      2.00000
     14     -25.8490      2.00000
     15     -25.7736      2.00000
     16     -25.7653      2.00000
     17      -4.3508      2.00000
     18      -3.8836      2.00000
     19      -3.3193      2.00000
     20      -2.5815      2.00000
     21      -1.7372      2.00000
     22      -1.3083      2.00000
     23       0.0232      2.00000
     24       0.5519      2.00000
     25       0.7466      2.00000
     26       0.8262      2.00000
     27       1.1473      2.00000
     28       2.1940      2.00000
     29       2.8283      2.00000
     30       3.3706      2.00000
     31       3.5368      2.00000
     32       3.6009      2.00000
     33       3.7086      2.00000
     34       4.1738      2.00000
     35       4.2696      2.00000
     36       5.4206      2.00000
     37       5.4446      2.00000
     38       5.5656      2.00000
     39       6.2191      2.00000
     40       6.2642      2.00000
     41       7.0178      2.00000
     42       7.0437      2.00000
     43       7.1714      2.00000
     44       7.2482      2.00000
     45       7.4982      2.00000
     46       7.8548      2.00000
     47       7.9612      2.00000
     48       8.1882      2.00000
     49       8.7103      2.00000
     50       8.8913      2.00000
     51       9.2246      0.00114
     52       9.7460      0.00000
     53       9.9931      0.00000
     54      10.3420      0.00000
     55      10.7008      0.00000
     56      10.7690      0.00000
     57      11.2839      0.00000
     58      11.4801      0.00000
     59      11.9673      0.00000
     60      11.9814      0.00000

 k-point    35 :      -0.2857    0.4286    0.2857
  band No.  band energies     occupation 
      1     -52.9282      2.00000
      2     -52.9258      2.00000
      3     -52.9212      2.00000
      4     -52.9106      2.00000
      5     -27.5520      2.00000
      6     -27.5409      2.00000
      7     -27.5299      2.00000
      8     -27.5176      2.00000
      9     -27.4469      2.00000
     10     -27.4433      2.00000
     11     -27.4243      2.00000
     12     -27.4196      2.00000
     13     -25.8538      2.00000
     14     -25.8449      2.00000
     15     -25.7778      2.00000
     16     -25.7695      2.00000
     17      -4.4450      2.00000
     18      -3.8984      2.00000
     19      -3.0365      2.00000
     20      -2.5751      2.00000
     21      -2.0061      2.00000
     22      -1.3259      2.00000
     23      -0.0261      2.00000
     24       0.5141      2.00000
     25       0.7993      2.00000
     26       0.8426      2.00000
     27       1.3011      2.00000
     28       2.6361      2.00000
     29       2.9333      2.00000
     30       3.1207      2.00000
     31       3.2534      2.00000
     32       3.7510      2.00000
     33       3.7549      2.00000
     34       4.0491      2.00000
     35       4.3480      2.00000
     36       5.2144      2.00000
     37       5.2159      2.00000
     38       5.4988      2.00000
     39       6.2952      2.00000
     40       6.5445      2.00000
     41       6.8505      2.00000
     42       7.0454      2.00000
     43       7.0781      2.00000
     44       7.1819      2.00000
     45       7.6057      2.00000
     46       7.9536      2.00000
     47       7.9838      2.00000
     48       8.3267      2.00000
     49       8.8342      2.00000
     50       8.9943      2.00000
     51       9.0395      2.00000
     52       9.6980      0.00000
     53       9.7382      0.00000
     54      10.2170      0.00000
     55      10.7051      0.00000
     56      10.7955      0.00000
     57      11.2231      0.00000
     58      11.2820      0.00000
     59      11.3814      0.00000
     60      11.5652      0.00000

 k-point    36 :      -0.4286   -0.4286    0.2857
  band No.  band energies     occupation 
      1     -52.9291      2.00000
      2     -52.9245      2.00000
      3     -52.9225      2.00000
      4     -52.9097      2.00000
      5     -27.5466      2.00000
      6     -27.5466      2.00000
      7     -27.5344      2.00000
      8     -27.5344      2.00000
      9     -27.4300      2.00000
     10     -27.4300      2.00000
     11     -27.4262      2.00000
     12     -27.4261      2.00000
     13     -25.8539      2.00000
     14     -25.8448      2.00000
     15     -25.7777      2.00000
     16     -25.7695      2.00000
     17      -4.5613      2.00000
     18      -3.3665      2.00000
     19      -3.3633      2.00000
     20      -2.5966      2.00000
     21      -1.8856      2.00000
     22      -1.8773      2.00000
     23       0.3835      2.00000
     24       0.6230      2.00000
     25       0.6657      2.00000
     26       1.0330      2.00000
     27       1.0682      2.00000
     28       2.6766      2.00000
     29       2.9444      2.00000
     30       3.5102      2.00000
     31       3.5953      2.00000
     32       3.6133      2.00000
     33       3.9397      2.00000
     34       4.1316      2.00000
     35       4.2492      2.00000
     36       4.9064      2.00000
     37       5.1405      2.00000
     38       5.1417      2.00000
     39       5.7165      2.00000
     40       6.5210      2.00000
     41       6.8701      2.00000
     42       6.9484      2.00000
     43       7.1158      2.00000
     44       7.1304      2.00000
     45       7.7692      2.00000
     46       7.7717      2.00000
     47       7.8997      2.00000
     48       7.9040      2.00000
     49       8.7568      2.00000
     50       9.5870      0.00000
     51       9.6028      0.00000
     52       9.7456      0.00000
     53      10.4233      0.00000
     54      10.4347      0.00000
     55      10.4401      0.00000
     56      10.4916      0.00000
     57      11.3566      0.00000
     58      11.5035      0.00000
     59      11.5315      0.00000
     60      11.6473      0.00000

 k-point    37 :      -0.2857   -0.4286    0.2857
  band No.  band energies     occupation 
      1     -52.9303      2.00000
      2     -52.9240      2.00000
      3     -52.9217      2.00000
      4     -52.9098      2.00000
      5     -27.5513      2.00000
      6     -27.5455      2.00000
      7     -27.5416      2.00000
      8     -27.5355      2.00000
      9     -27.4288      2.00000
     10     -27.4274      2.00000
     11     -27.4228      2.00000
     12     -27.4211      2.00000
     13     -25.8423      2.00000
     14     -25.8332      2.00000
     15     -25.7894      2.00000
     16     -25.7812      2.00000
     17      -4.7203      2.00000
     18      -3.3154      2.00000
     19      -2.9713      2.00000
     20      -2.6582      2.00000
     21      -2.1639      2.00000
     22      -1.8641      2.00000
     23       0.3611      2.00000
     24       0.5787      2.00000
     25       0.6067      2.00000
     26       1.0423      2.00000
     27       1.1656      2.00000
     28       3.0600      2.00000
     29       3.2179      2.00000
     30       3.2766      2.00000
     31       3.5800      2.00000
     32       3.7288      2.00000
     33       4.0621      2.00000
     34       4.3300      2.00000
     35       4.4335      2.00000
     36       4.6618      2.00000
     37       4.6746      2.00000
     38       4.7221      2.00000
     39       5.5183      2.00000
     40       6.8691      2.00000
     41       6.9532      2.00000
     42       6.9690      2.00000
     43       7.0312      2.00000
     44       7.1124      2.00000
     45       7.8038      2.00000
     46       7.8154      2.00000
     47       7.8386      2.00000
     48       7.9091      2.00000
     49       8.5267      2.00000
     50       9.7269      0.00000
     51       9.8795      0.00000
     52      10.0084      0.00000
     53      10.0571      0.00000
     54      10.1561      0.00000
     55      10.4780      0.00000
     56      10.5248      0.00000
     57      10.8285      0.00000
     58      10.8445      0.00000
     59      11.2511      0.00000
     60      11.2912      0.00000

 k-point    38 :      -0.2857   -0.2857    0.2857
  band No.  band energies     occupation 
      1     -52.9317      2.00000
      2     -52.9230      2.00000
      3     -52.9209      2.00000
      4     -52.9101      2.00000
      5     -27.5496      2.00000
      6     -27.5496      2.00000
      7     -27.5433      2.00000
      8     -27.5433      2.00000
      9     -27.4229      2.00000
     10     -27.4228      2.00000
     11     -27.4211      2.00000
     12     -27.4211      2.00000
     13     -25.8255      2.00000
     14     -25.8165      2.00000
     15     -25.8063      2.00000
     16     -25.7981      2.00000
     17      -4.9162      2.00000
     18      -2.8578      2.00000
     19      -2.8578      2.00000
     20      -2.7501      2.00000
     21      -2.1375      2.00000
     22      -2.1265      2.00000
     23       0.4164      2.00000
     24       0.4165      2.00000
     25       0.5261      2.00000
     26       1.1316      2.00000
     27       1.1694      2.00000
     28       3.2283      2.00000
     29       3.2284      2.00000
     30       3.7302      2.00000
     31       3.7503      2.00000
     32       3.7870      2.00000
     33       4.0338      2.00000
     34       4.0930      2.00000
     35       4.0930      2.00000
     36       4.3033      2.00000
     37       4.8704      2.00000
     38       4.8704      2.00000
     39       5.1591      2.00000
     40       6.9752      2.00000
     41       6.9902      2.00000
     42       7.1606      2.00000
     43       7.1606      2.00000
     44       7.2220      2.00000
     45       7.6258      2.00000
     46       7.6258      2.00000
     47       7.9446      2.00000
     48       7.9446      2.00000
     49       8.2868      2.00000
     50       9.2126      0.01609
     51       9.6006      0.00000
     52       9.7121      0.00000
     53      10.1737      0.00000
     54      10.1870      0.00000
     55      10.6616      0.00000
     56      10.6629      0.00000
     57      11.1462      0.00000
     58      11.2793      0.00000
     59      11.2967      0.00000
     60      11.3206      0.00000

 k-point    39 :      -0.4286    0.4286    0.4286
  band No.  band energies     occupation 
      1     -52.9294      2.00000
      2     -52.9249      2.00000
      3     -52.9226      2.00000
      4     -52.9089      2.00000
      5     -27.5531      2.00000
      6     -27.5473      2.00000
      7     -27.5399      2.00000
      8     -27.5338      2.00000
      9     -27.4302      2.00000
     10     -27.4259      2.00000
     11     -27.4242      2.00000
     12     -27.4197      2.00000
     13     -25.8581      2.00000
     14     -25.8488      2.00000
     15     -25.7736      2.00000
     16     -25.7653      2.00000
     17      -4.5829      2.00000
     18      -3.4186      2.00000
     19      -3.0716      2.00000
     20      -2.5697      2.00000
     21      -2.2641      2.00000
     22      -1.9616      2.00000
     23       0.5309      2.00000
     24       0.6642      2.00000
     25       0.7832      2.00000
     26       0.9977      2.00000
     27       1.1244      2.00000
     28       2.8301      2.00000
     29       3.1260      2.00000
     30       3.2944      2.00000
     31       3.5503      2.00000
     32       3.7039      2.00000
     33       3.9205      2.00000
     34       4.0820      2.00000
     35       4.0974      2.00000
     36       4.7193      2.00000
     37       5.2770      2.00000
     38       5.2852      2.00000
     39       5.5531      2.00000
     40       6.5923      2.00000
     41       6.6542      2.00000
     42       6.7465      2.00000
     43       7.0968      2.00000
     44       7.1918      2.00000
     45       7.4898      2.00000
     46       7.6412      2.00000
     47       7.9148      2.00000
     48       8.0890      2.00000
     49       8.5918      2.00000
     50       9.7515      0.00000
     51      10.0305      0.00000
     52      10.0315      0.00000
     53      10.1723      0.00000
     54      10.3176      0.00000
     55      10.9861      0.00000
     56      11.0715      0.00000
     57      11.2464      0.00000
     58      11.2501      0.00000
     59      11.8619      0.00000
     60      11.9704      0.00000

 k-point    40 :      -0.4286   -0.4286    0.4286
  band No.  band energies     occupation 
      1     -52.9302      2.00000
      2     -52.9245      2.00000
      3     -52.9225      2.00000
      4     -52.9086      2.00000
      5     -27.5529      2.00000
      6     -27.5529      2.00000
      7     -27.5402      2.00000
      8     -27.5401      2.00000
      9     -27.4237      2.00000
     10     -27.4237      2.00000
     11     -27.4202      2.00000
     12     -27.4202      2.00000
     13     -25.8540      2.00000
     14     -25.8447      2.00000
     15     -25.7777      2.00000
     16     -25.7695      2.00000
     17      -4.6791      2.00000
     18      -3.0491      2.00000
     19      -3.0491      2.00000
     20      -2.5999      2.00000
     21      -2.3224      2.00000
     22      -2.3113      2.00000
     23       0.6722      2.00000
     24       0.7109      2.00000
     25       0.7110      2.00000
     26       1.0572      2.00000
     27       1.0947      2.00000
     28       2.9477      2.00000
     29       3.3568      2.00000
     30       3.3569      2.00000
     31       3.6853      2.00000
     32       3.7054      2.00000
     33       4.0613      2.00000
     34       4.1517      2.00000
     35       4.1517      2.00000
     36       4.4099      2.00000
     37       5.0646      2.00000
     38       5.0646      2.00000
     39       5.1997      2.00000
     40       6.4929      2.00000
     41       6.7851      2.00000
     42       6.7851      2.00000
     43       7.1645      2.00000
     44       7.1782      2.00000
     45       7.4509      2.00000
     46       7.4509      2.00000
     47       8.0303      2.00000
     48       8.0303      2.00000
     49       8.4090      2.00000
     50       9.7560      0.00000
     51      10.0821      0.00000
     52      10.5548      0.00000
     53      10.5695      0.00000
     54      10.7742      0.00000
     55      10.9104      0.00000
     56      10.9165      0.00000
     57      11.2434      0.00000
     58      11.2658      0.00000
     59      11.2697      0.00000
     60      11.2972      0.00000


--------------------------------------------------------------------------------------------------------


 soft charge-density along one line, spin component           1
         0         1         2         3         4         5         6         7         8         9
 total charge-density along one line
 
 pseudopotential strength for first ion, spin component:           1
  6.054   9.178   0.000  -0.000   0.000   0.000  -0.000   0.000
  9.178  13.907   0.000  -0.000   0.000   0.000  -0.000   0.000
  0.000   0.000  -2.003  -0.005   0.004  -3.352  -0.010   0.007
 -0.000  -0.000  -0.005  -2.006  -0.003  -0.010  -3.359  -0.005
  0.000   0.000   0.004  -0.003  -2.008   0.007  -0.005  -3.362
  0.000   0.000  -3.352  -0.010   0.007  -5.398  -0.019   0.014
 -0.000  -0.000  -0.010  -3.359  -0.005  -0.019  -5.411  -0.010
  0.000   0.000   0.007  -0.005  -3.362   0.014  -0.010  -5.417
 total augmentation occupancy for first ion, spin component:           1
  3.530  -0.893   0.000  -0.000   0.000   0.000   0.000  -0.000
 -0.893   0.271  -0.000  -0.000  -0.000   0.000   0.000  -0.000
 -0.000   0.000   2.374   0.631  -0.466  -0.603  -0.223   0.164
 -0.000   0.000   0.631   2.782   0.341  -0.223  -0.747  -0.120
  0.000  -0.000  -0.466   0.341   2.985   0.164  -0.120  -0.819
 -0.000   0.000  -0.603  -0.223   0.164   0.160   0.073  -0.054
  0.000  -0.000  -0.223  -0.747  -0.120   0.073   0.207   0.039
 -0.000  -0.000   0.164  -0.120  -0.819  -0.054   0.039   0.231


------------------------ aborting loop because EDIFF is reached ----------------------------------------




--------------------------------------------------------------------------------------------------------



  FREE ENERGIE OF THE ION-ELECTRON SYSTEM (eV)
  ---------------------------------------------------
  free  energy   TOTEN  =      -147.45388955 eV

  energy  without entropy=     -147.45189175  energy(sigma->0) =     -147.45289065
 


--------------------------------------------------------------------------------------------------------


    POTLOK:  cpu time    0.9089: real time    0.9147


--------------------------------------------------------------------------------------------------------


 writing wavefunctions
     LOOP+:  cpu time  513.4588: real time  519.8944
    4ORBIT:  cpu time    0.0000: real time    0.0000

 total amount of memory used by VASP MPI-rank0   194680. kBytes
=======================================================================

   base      :      30000. kBytes
   nonl-proj :      62919. kBytes
   fftplans  :      17779. kBytes
   grid      :      13358. kBytes
   one-center:        124. kBytes
   wavefun   :      70500. kBytes
 
  
  
 General timing and accounting informations for this job:
 ========================================================
  
                  Total CPU time used (sec):      518.476
                            User time (sec):      507.501
                          System time (sec):       10.975
                         Elapsed time (sec):      527.599
  
                   Maximum memory used (kb):      399376.
                   Average memory used (kb):          N/A
  
                          Minor page faults:      2849535
                          Major page faults:           18
                 Voluntary context switches:         6552
