<?xml version="1.0" encoding="ISO-8859-1"?>
<modeling>
 <generator>
  <i name="program" type="string">vasp </i>
  <i name="version" type="string">6.2.0  </i>
  <i name="subversion" type="string">18Jan21 (build Jan 05 2022 15:41:44) complex                          parallel </i>
  <i name="platform" type="string">LinuxIFC </i>
  <i name="date" type="string">2025 05 07 </i>
  <i name="time" type="string">14:20:51 </i>
 </generator>
 <incar>
  <i type="string" name="SYSTEM">routine with relax: pwdword</i>
  <i type="string" name="PREC">Acc</i>
  <i type="int" name="IALGO">    38</i>
  <i type="string" name="ALGO">A</i>
  <i type="logical" name="ADDGRID"> T  </i>
  <i type="int" name="ICHARG">     2</i>
  <i type="int" name="NELM">   100</i>
  <i type="int" name="NELMIN">     6</i>
  <i name="EDIFF">      0.00000000</i>
  <i type="int" name="NSW">     0</i>
  <i type="int" name="ISIF">    -1</i>
  <i name="ENCUT">    600.00000000</i>
  <i type="logical" name="LREAL"> F  </i>
  <i type="int" name="ISMEAR">     0</i>
  <i name="SIGMA">      0.02000000</i>
  <i type="logical" name="LASPH"> T  </i>
  <i type="string" name="METAGGA">R2SCAN</i>
  <i type="logical" name="LMIXTAU"> F  </i>
 </incar>
 <primitive_cell>
  <structure name="primitive_cell" >
   <crystal>
    <varray name="basis" >
     <v>       5.48846730       0.00000000      -2.86198702 </v>
     <v>      -2.01780536       5.10409001      -2.86198702 </v>
     <v>       0.00000000       0.00000000       6.18985000 </v>
    </varray>
    <i name="volume">    173.40017454 </i>
    <varray name="rec_basis" >
     <v>       0.18220023       0.07202941       0.00000000 </v>
     <v>       0.00000000       0.19592131       0.00000000 </v>
     <v>       0.08424351       0.12389177       0.16155480 </v>
    </varray>
   </crystal>
   <varray name="positions" >
    <v>       0.00000000       0.00000000       0.00000000 </v>
    <v>       0.50000000       0.50000000       0.00000000 </v>
    <v>       0.50000000       0.00000000       0.50000000 </v>
    <v>       0.25000000       0.25000000       0.00000000 </v>
    <v>       0.75000000       0.75000000       0.00000000 </v>
    <v>       1.00000000       0.50000000       0.50000000 </v>
    <v>       0.74915000       0.24915000       0.99831000 </v>
    <v>       0.25085000       0.75085000       0.00169000 </v>
    <v>       0.24915000       0.25085000       0.50000000 </v>
    <v>       0.75085000       0.74915000       0.50000000 </v>
   </varray>
  </structure>
  <varray name="primitive_index" >
   <v type="int" >        1 </v>
   <v type="int" >        2 </v>
   <v type="int" >        3 </v>
   <v type="int" >        4 </v>
   <v type="int" >        5 </v>
   <v type="int" >        6 </v>
   <v type="int" >        7 </v>
   <v type="int" >        8 </v>
   <v type="int" >        9 </v>
   <v type="int" >       10 </v>
  </varray>
 </primitive_cell>
 <kpoints>
  <generation param="Gamma">
   <v type="int" name="divisions">       7        7        8 </v>
   <v name="usershift">      0.00000000       0.00000000       0.00000000 </v>
   <v name="genvec1">      0.14285714       0.00000000       0.00000000 </v>
   <v name="genvec2">      0.00000000       0.14285714       0.00000000 </v>
   <v name="genvec3">      0.00000000       0.00000000       0.12500000 </v>
   <v name="shift">      0.00000000       0.00000000       0.00000000 </v>
  </generation>
  <varray name="kpointlist" >
   <v>       0.00000000       0.00000000       0.00000000 </v>
   <v>       0.14285714       0.00000000       0.00000000 </v>
   <v>       0.28571429       0.00000000       0.00000000 </v>
   <v>       0.42857143       0.00000000       0.00000000 </v>
   <v>       0.14285714       0.14285714       0.00000000 </v>
   <v>       0.28571429       0.14285714       0.00000000 </v>
   <v>       0.42857143       0.14285714       0.00000000 </v>
   <v>      -0.42857143       0.14285714       0.00000000 </v>
   <v>      -0.28571429       0.14285714       0.00000000 </v>
   <v>      -0.14285714       0.14285714       0.00000000 </v>
   <v>       0.28571429       0.28571429       0.00000000 </v>
   <v>       0.42857143       0.28571429       0.00000000 </v>
   <v>      -0.42857143       0.28571429       0.00000000 </v>
   <v>      -0.28571429       0.28571429       0.00000000 </v>
   <v>       0.42857143       0.42857143       0.00000000 </v>
   <v>      -0.42857143       0.42857143       0.00000000 </v>
   <v>       0.00000000      -0.00000000       0.12500000 </v>
   <v>       0.14285714      -0.00000000       0.12500000 </v>
   <v>       0.28571429       0.00000000       0.12500000 </v>
   <v>       0.42857143      -0.00000000       0.12500000 </v>
   <v>      -0.42857143       0.00000000       0.12500000 </v>
   <v>      -0.28571429      -0.00000000       0.12500000 </v>
   <v>      -0.14285714       0.00000000       0.12500000 </v>
   <v>       0.14285714       0.14285714       0.12500000 </v>
   <v>       0.28571429       0.14285714       0.12500000 </v>
   <v>       0.42857143       0.14285714       0.12500000 </v>
   <v>      -0.42857143       0.14285714       0.12500000 </v>
   <v>      -0.28571429       0.14285714       0.12500000 </v>
   <v>      -0.14285714       0.14285714       0.12500000 </v>
   <v>       0.28571429       0.28571429       0.12500000 </v>
   <v>       0.42857143       0.28571429       0.12500000 </v>
   <v>      -0.42857143       0.28571429       0.12500000 </v>
   <v>      -0.28571429       0.28571429       0.12500000 </v>
   <v>      -0.14285714       0.28571429       0.12500000 </v>
   <v>       0.42857143       0.42857143       0.12500000 </v>
   <v>      -0.42857143       0.42857143       0.12500000 </v>
   <v>      -0.28571429       0.42857143       0.12500000 </v>
   <v>      -0.14285714       0.42857143       0.12500000 </v>
   <v>      -0.42857143      -0.42857143       0.12500000 </v>
   <v>      -0.28571429      -0.42857143       0.12500000 </v>
   <v>      -0.14285714      -0.42857143       0.12500000 </v>
   <v>      -0.28571429      -0.28571429       0.12500000 </v>
   <v>      -0.14285714      -0.28571429       0.12500000 </v>
   <v>      -0.14285714      -0.14285714       0.12500000 </v>
   <v>       0.00000000      -0.00000000       0.25000000 </v>
   <v>       0.14285714       0.00000000       0.25000000 </v>
   <v>       0.28571429      -0.00000000       0.25000000 </v>
   <v>       0.42857143       0.00000000       0.25000000 </v>
   <v>      -0.42857143       0.00000000       0.25000000 </v>
   <v>      -0.28571429      -0.00000000       0.25000000 </v>
   <v>      -0.14285714      -0.00000000       0.25000000 </v>
   <v>       0.14285714       0.14285714       0.25000000 </v>
   <v>       0.28571429       0.14285714       0.25000000 </v>
   <v>       0.42857143       0.14285714       0.25000000 </v>
   <v>      -0.42857143       0.14285714       0.25000000 </v>
   <v>      -0.28571429       0.14285714       0.25000000 </v>
   <v>      -0.14285714       0.14285714       0.25000000 </v>
   <v>       0.28571429       0.28571429       0.25000000 </v>
   <v>       0.42857143       0.28571429       0.25000000 </v>
   <v>      -0.42857143       0.28571429       0.25000000 </v>
   <v>      -0.28571429       0.28571429       0.25000000 </v>
   <v>      -0.14285714       0.28571429       0.25000000 </v>
   <v>       0.42857143       0.42857143       0.25000000 </v>
   <v>      -0.42857143       0.42857143       0.25000000 </v>
   <v>      -0.28571429       0.42857143       0.25000000 </v>
   <v>      -0.14285714       0.42857143       0.25000000 </v>
   <v>      -0.42857143      -0.42857143       0.25000000 </v>
   <v>      -0.28571429      -0.42857143       0.25000000 </v>
   <v>      -0.14285714      -0.42857143       0.25000000 </v>
   <v>      -0.28571429      -0.28571429       0.25000000 </v>
   <v>      -0.14285714      -0.28571429       0.25000000 </v>
   <v>      -0.14285714      -0.14285714       0.25000000 </v>
   <v>       0.00000000       0.00000000       0.37500000 </v>
   <v>       0.14285714       0.00000000       0.37500000 </v>
   <v>       0.28571429       0.00000000       0.37500000 </v>
   <v>       0.42857143      -0.00000000       0.37500000 </v>
   <v>      -0.42857143      -0.00000000       0.37500000 </v>
   <v>      -0.28571429      -0.00000000       0.37500000 </v>
   <v>      -0.14285714      -0.00000000       0.37500000 </v>
   <v>       0.14285714       0.14285714       0.37500000 </v>
   <v>       0.28571429       0.14285714       0.37500000 </v>
   <v>       0.42857143       0.14285714       0.37500000 </v>
   <v>      -0.42857143       0.14285714       0.37500000 </v>
   <v>      -0.28571429       0.14285714       0.37500000 </v>
   <v>      -0.14285714       0.14285714       0.37500000 </v>
   <v>       0.28571429       0.28571429       0.37500000 </v>
   <v>       0.42857143       0.28571429       0.37500000 </v>
   <v>      -0.42857143       0.28571429       0.37500000 </v>
   <v>      -0.28571429       0.28571429       0.37500000 </v>
   <v>      -0.14285714       0.28571429       0.37500000 </v>
   <v>       0.42857143       0.42857143       0.37500000 </v>
   <v>      -0.42857143       0.42857143       0.37500000 </v>
   <v>      -0.28571429       0.42857143       0.37500000 </v>
   <v>      -0.14285714       0.42857143       0.37500000 </v>
   <v>      -0.42857143      -0.42857143       0.37500000 </v>
   <v>      -0.28571429      -0.42857143       0.37500000 </v>
   <v>      -0.14285714      -0.42857143       0.37500000 </v>
   <v>      -0.28571429      -0.28571429       0.37500000 </v>
   <v>      -0.14285714      -0.28571429       0.37500000 </v>
   <v>      -0.14285714      -0.14285714       0.37500000 </v>
   <v>       0.00000000      -0.00000000       0.50000000 </v>
   <v>       0.14285714      -0.00000000       0.50000000 </v>
   <v>       0.28571429       0.00000000       0.50000000 </v>
   <v>       0.42857143       0.00000000       0.50000000 </v>
   <v>       0.14285714       0.14285714       0.50000000 </v>
   <v>       0.28571429       0.14285714       0.50000000 </v>
   <v>       0.42857143       0.14285714       0.50000000 </v>
   <v>      -0.42857143       0.14285714       0.50000000 </v>
   <v>      -0.28571429       0.14285714       0.50000000 </v>
   <v>      -0.14285714       0.14285714       0.50000000 </v>
   <v>       0.28571429       0.28571429       0.50000000 </v>
   <v>       0.42857143       0.28571429       0.50000000 </v>
   <v>      -0.42857143       0.28571429       0.50000000 </v>
   <v>      -0.28571429       0.28571429       0.50000000 </v>
   <v>       0.42857143       0.42857143       0.50000000 </v>
   <v>      -0.42857143       0.42857143       0.50000000 </v>
  </varray>
  <varray name="weights" >
   <v>       0.00255102 </v>
   <v>       0.01020408 </v>
   <v>       0.01020408 </v>
   <v>       0.01020408 </v>
   <v>       0.00510204 </v>
   <v>       0.01020408 </v>
   <v>       0.01020408 </v>
   <v>       0.01020408 </v>
   <v>       0.01020408 </v>
   <v>       0.00510204 </v>
   <v>       0.00510204 </v>
   <v>       0.01020408 </v>
   <v>       0.01020408 </v>
   <v>       0.00510204 </v>
   <v>       0.00510204 </v>
   <v>       0.00510204 </v>
   <v>       0.00510204 </v>
   <v>       0.01020408 </v>
   <v>       0.01020408 </v>
   <v>       0.01020408 </v>
   <v>       0.01020408 </v>
   <v>       0.01020408 </v>
   <v>       0.01020408 </v>
   <v>       0.00510204 </v>
   <v>       0.01020408 </v>
   <v>       0.01020408 </v>
   <v>       0.01020408 </v>
   <v>       0.01020408 </v>
   <v>       0.01020408 </v>
   <v>       0.00510204 </v>
   <v>       0.01020408 </v>
   <v>       0.01020408 </v>
   <v>       0.01020408 </v>
   <v>       0.01020408 </v>
   <v>       0.00510204 </v>
   <v>       0.01020408 </v>
   <v>       0.01020408 </v>
   <v>       0.01020408 </v>
   <v>       0.00510204 </v>
   <v>       0.01020408 </v>
   <v>       0.01020408 </v>
   <v>       0.00510204 </v>
   <v>       0.01020408 </v>
   <v>       0.00510204 </v>
   <v>       0.00510204 </v>
   <v>       0.01020408 </v>
   <v>       0.01020408 </v>
   <v>       0.01020408 </v>
   <v>       0.01020408 </v>
   <v>       0.01020408 </v>
   <v>       0.01020408 </v>
   <v>       0.00510204 </v>
   <v>       0.01020408 </v>
   <v>       0.01020408 </v>
   <v>       0.01020408 </v>
   <v>       0.01020408 </v>
   <v>       0.01020408 </v>
   <v>       0.00510204 </v>
   <v>       0.01020408 </v>
   <v>       0.01020408 </v>
   <v>       0.01020408 </v>
   <v>       0.01020408 </v>
   <v>       0.00510204 </v>
   <v>       0.01020408 </v>
   <v>       0.01020408 </v>
   <v>       0.01020408 </v>
   <v>       0.00510204 </v>
   <v>       0.01020408 </v>
   <v>       0.01020408 </v>
   <v>       0.00510204 </v>
   <v>       0.01020408 </v>
   <v>       0.00510204 </v>
   <v>       0.00510204 </v>
   <v>       0.01020408 </v>
   <v>       0.01020408 </v>
   <v>       0.01020408 </v>
   <v>       0.01020408 </v>
   <v>       0.01020408 </v>
   <v>       0.01020408 </v>
   <v>       0.00510204 </v>
   <v>       0.01020408 </v>
   <v>       0.01020408 </v>
   <v>       0.01020408 </v>
   <v>       0.01020408 </v>
   <v>       0.01020408 </v>
   <v>       0.00510204 </v>
   <v>       0.01020408 </v>
   <v>       0.01020408 </v>
   <v>       0.01020408 </v>
   <v>       0.01020408 </v>
   <v>       0.00510204 </v>
   <v>       0.01020408 </v>
   <v>       0.01020408 </v>
   <v>       0.01020408 </v>
   <v>       0.00510204 </v>
   <v>       0.01020408 </v>
   <v>       0.01020408 </v>
   <v>       0.00510204 </v>
   <v>       0.01020408 </v>
   <v>       0.00510204 </v>
   <v>       0.00255102 </v>
   <v>       0.01020408 </v>
   <v>       0.01020408 </v>
   <v>       0.01020408 </v>
   <v>       0.00510204 </v>
   <v>       0.01020408 </v>
   <v>       0.01020408 </v>
   <v>       0.01020408 </v>
   <v>       0.01020408 </v>
   <v>       0.00510204 </v>
   <v>       0.00510204 </v>
   <v>       0.01020408 </v>
   <v>       0.01020408 </v>
   <v>       0.00510204 </v>
   <v>       0.00510204 </v>
   <v>       0.00510204 </v>
  </varray>
 </kpoints>
 <parameters>
  <separator name="general" >
   <i type="string" name="SYSTEM">routine with relax: pwdword</i>
   <i type="logical" name="LCOMPAT"> F  </i>
  </separator>
  <separator name="electronic" >
   <i type="string" name="PREC">acc</i>
   <i name="ENMAX">    600.00000000</i>
   <i name="ENAUG">    535.51400000</i>
   <i name="EDIFF">      0.00000000</i>
   <i type="int" name="IALGO">    58</i>
   <i type="int" name="IWAVPR">    10</i>
   <i type="int" name="NBANDS">    48</i>
   <i type="int" name="NBANDSLOW">    -1</i>
   <i type="int" name="NBANDSHIGH">    -1</i>
   <i name="NELECT">     78.00000000</i>
   <i type="int" name="TURBO">     0</i>
   <i type="int" name="IRESTART">     0</i>
   <i type="int" name="NREBOOT">     0</i>
   <i type="int" name="NMIN">     0</i>
   <i name="EREF">      0.00000000</i>
   <separator name="electronic smearing" >
    <i type="int" name="ISMEAR">     0</i>
    <i name="SIGMA">      0.02000000</i>
    <i name="KSPACING">      0.50000000</i>
    <i type="logical" name="KGAMMA"> T  </i>
    <i type="logical" name="KBLOWUP"> F  </i>
   </separator>
   <separator name="electronic projectors" >
    <i type="logical" name="LREAL"> F  </i>
    <v name="ROPT">      0.00000000      0.00000000      0.00000000</v>
    <i type="int" name="LMAXPAW">  -100</i>
    <i type="int" name="LMAXMIX">     2</i>
    <i type="logical" name="NLSPLINE"> F  </i>
   </separator>
   <separator name="electronic startup" >
    <i type="int" name="ISTART">     0</i>
    <i type="int" name="ICHARG">     2</i>
    <i type="int" name="INIWAV">     1</i>
   </separator>
   <separator name="electronic spin" >
    <i type="int" name="ISPIN">     1</i>
    <i type="logical" name="LNONCOLLINEAR"> F  </i>
    <v name="MAGMOM">      1.00000000      1.00000000      1.00000000      1.00000000      1.00000000      1.00000000      1.00000000      1.00000000      1.00000000      1.00000000</v>
    <i name="NUPDOWN">     -1.00000000</i>
    <i type="logical" name="LSORBIT"> F  </i>
    <v name="SAXIS">      0.00000000      0.00000000      1.00000000</v>
    <i type="logical" name="LSPIRAL"> F  </i>
    <v name="QSPIRAL">      0.00000000      0.00000000      0.00000000</v>
    <i type="logical" name="LZEROZ"> F  </i>
   </separator>
   <separator name="electronic exchange-correlation" >
    <i type="logical" name="LASPH"> T  </i>
    <i type="logical" name="LMETAGGA"> F  </i>
   </separator>
   <separator name="electronic convergence" >
    <i type="int" name="NELM">   100</i>
    <i type="int" name="NELMDL">    -5</i>
    <i type="int" name="NELMIN">     6</i>
    <i name="ENINI">    600.00000000</i>
    <separator name="electronic convergence detail" >
     <i type="logical" name="LDIAG"> T  </i>
     <i type="logical" name="LSUBROT"> F  </i>
     <i name="WEIMIN">      0.00000000</i>
     <i name="EBREAK">      0.00000000</i>
     <i name="DEPER">      0.30000000</i>
     <i type="int" name="NRMM">     4</i>
     <i name="TIME">      0.40000000</i>
    </separator>
   </separator>
   <separator name="electronic mixer" >
    <i name="AMIX">      0.40000000</i>
    <i name="BMIX">      1.00000000</i>
    <i name="AMIN">      0.10000000</i>
    <i name="AMIX_MAG">      1.60000000</i>
    <i name="BMIX_MAG">      1.00000000</i>
    <separator name="electronic mixer details" >
     <i type="int" name="IMIX">     4</i>
     <i type="logical" name="MIXFIRST"> F  </i>
     <i type="int" name="MAXMIX">   -45</i>
     <i name="WC">    100.00000000</i>
     <i type="int" name="INIMIX">     1</i>
     <i type="int" name="MIXPRE">     1</i>
     <i type="int" name="MREMOVE">     5</i>
    </separator>
   </separator>
   <separator name="electronic dipolcorrection" >
    <i type="logical" name="LDIPOL"> F  </i>
    <i type="logical" name="LMONO"> F  </i>
    <i type="int" name="IDIPOL">     0</i>
    <i name="EPSILON">      1.00000000</i>
    <v name="DIPOL">   -100.00000000   -100.00000000   -100.00000000</v>
    <i name="EFIELD">      0.00000000</i>
   </separator>
  </separator>
  <separator name="grids" >
   <i type="int" name="NGX">    50</i>
   <i type="int" name="NGY">    50</i>
   <i type="int" name="NGZ">    50</i>
   <i type="int" name="NGXF">   100</i>
   <i type="int" name="NGYF">   100</i>
   <i type="int" name="NGZF">   100</i>
   <i type="logical" name="ADDGRID"> T  </i>
  </separator>
  <separator name="ionic" >
   <i type="int" name="NSW">     0</i>
   <i type="int" name="IBRION">    -1</i>
   <i type="int" name="MDALGO">     0</i>
   <i type="int" name="ISIF">    -1</i>
   <i name="PSTRESS">      0.00000000</i>
   <i name="EDIFFG">      0.00000001</i>
   <i type="int" name="NFREE">     0</i>
   <i name="POTIM">      0.50000000</i>
   <i name="SMASS">     -3.00000000</i>
   <i name="SCALEE">      1.00000000</i>
  </separator>
  <separator name="ionic md" >
   <i name="TEBEG">      0.00010000</i>
   <i name="TEEND">      0.00010000</i>
   <i type="int" name="NBLOCK">     1</i>
   <i type="int" name="KBLOCK">     1</i>
   <i type="int" name="NPACO">   256</i>
   <i name="APACO">     16.00000000</i>
  </separator>
  <separator name="symmetry" >
   <i type="int" name="ISYM">     2</i>
   <i name="SYMPREC">      0.00001000</i>
  </separator>
  <separator name="dos" >
   <i type="int" name="LORBIT">     0</i>
   <v name="RWIGS">     -1.00000000     -1.00000000     -1.00000000</v>
   <i type="int" name="NEDOS">   301</i>
   <i name="EMIN">     10.00000000</i>
   <i name="EMAX">    -10.00000000</i>
   <i name="EFERMI">      0.00000000</i>
  </separator>
  <separator name="writing" >
   <i type="int" name="NWRITE">     2</i>
   <i type="logical" name="LWAVE"> T  </i>
   <i type="logical" name="LDOWNSAMPLE"> F  </i>
   <i type="logical" name="LCHARG"> T  </i>
   <i type="logical" name="LPARD"> F  </i>
   <i type="logical" name="LVTOT"> F  </i>
   <i type="logical" name="LVHAR"> F  </i>
   <i type="logical" name="LELF"> F  </i>
   <i type="logical" name="LOPTICS"> F  </i>
   <v name="STM">      0.00000000      0.00000000      0.00000000      0.00000000      0.00000000      0.00000000      0.00000000</v>
  </separator>
  <separator name="performance" >
   <i type="int" name="NPAR">     6</i>
   <i type="int" name="NSIM">     4</i>
   <i type="int" name="NBLK">    -1</i>
   <i type="logical" name="LPLANE"> T  </i>
   <i type="logical" name="LSCALAPACK"> T  </i>
   <i type="logical" name="LSCAAWARE"> F  </i>
   <i type="logical" name="LSCALU"> F  </i>
   <i type="logical" name="LASYNC"> F  </i>
   <i type="logical" name="LORBITALREAL"> F  </i>
  </separator>
  <separator name="miscellaneous" >
   <i type="int" name="IDIOT">     3</i>
   <i type="int" name="PHON_NSTRUCT">    -1</i>
   <i type="logical" name="LMUSIC"> F  </i>
   <v name="POMASS">     10.81100000     95.94000000     28.08500000</v>
   <v name="DARWINR">      0.00000000      0.00000000      0.00000000</v>
   <v name="DARWINV">      1.00000000      1.00000000      1.00000000</v>
   <i type="logical" name="LCORR"> T  </i>
  </separator>
  <i type="logical" name="GGA_COMPAT"> T  </i>
  <i type="logical" name="LBERRY"> F  </i>
  <i type="int" name="ICORELEVEL">     0</i>
  <i type="logical" name="LDAU"> F  </i>
  <i type="int" name="I_CONSTRAINED_M">     0</i>
  <separator name="electronic exchange-correlation" >
   <i type="string" name="GGA">--</i>
   <i type="int" name="VOSKOWN">     0</i>
   <i type="logical" name="LHFCALC"> F  </i>
   <i type="string" name="PRECFOCK"></i>
   <i type="logical" name="LSYMGRAD"> F  </i>
   <i type="logical" name="LHFONE"> F  </i>
   <i type="logical" name="LRHFCALC"> F  </i>
   <i type="logical" name="LTHOMAS"> F  </i>
   <i type="logical" name="LMODELHF"> F  </i>
   <i type="logical" name="LFOCKACE"> F  </i>
   <i name="ENCUT4O">     -1.00000000</i>
   <i type="int" name="EXXOEP">     0</i>
   <i type="int" name="FOURORBIT">     0</i>
   <i name="AEXX">      0.00000000</i>
   <i name="HFALPHA">      0.00000000</i>
   <i name="MCALPHA">      0.00000000</i>
   <i name="ALDAX">      1.00000000</i>
   <i name="AGGAX">      1.00000000</i>
   <i name="ALDAC">      1.00000000</i>
   <i name="AGGAC">      1.00000000</i>
   <i type="int" name="NKREDX">     1</i>
   <i type="int" name="NKREDY">     1</i>
   <i type="int" name="NKREDZ">     1</i>
   <i type="logical" name="SHIFTRED"> F  </i>
   <i type="logical" name="ODDONLY"> F  </i>
   <i type="logical" name="EVENONLY"> F  </i>
   <i type="int" name="LMAXFOCK">     0</i>
   <i type="int" name="NMAXFOCKAE">     0</i>
   <i type="logical" name="LFOCKAEDFT"> F  </i>
   <i name="HFSCREEN">      0.00000000</i>
   <i name="HFSCREENC">      0.00000000</i>
   <i type="int" name="NBANDSGWLOW">     0</i>
  </separator>
  <separator name="vdW DFT" >
   <i type="logical" name="LUSE_VDW"> F  </i>
   <i name="Zab_VDW">     -0.84910000</i>
   <i name="PARAM1">      0.12340000</i>
   <i name="PARAM2">      1.00000000</i>
   <i name="PARAM3">      0.00000000</i>
  </separator>
  <separator name="model GW" >
   <i type="int" name="MODEL_GW">     0</i>
   <i name="MODEL_EPS0">     10.40401047</i>
   <i name="MODEL_ALPHA">      1.00000000</i>
  </separator>
  <separator name="linear response parameters" >
   <i type="logical" name="LEPSILON"> F  </i>
   <i type="logical" name="LRPA"> F  </i>
   <i type="logical" name="LNABLA"> F  </i>
   <i type="logical" name="LVEL"> F  </i>
   <i type="int" name="KINTER">     0</i>
   <i name="CSHIFT">      0.10000000</i>
   <i name="OMEGAMAX">     -1.00000000</i>
   <i name="DEG_THRESHOLD">      0.00200000</i>
   <i name="RTIME">     -0.10000000</i>
   <i name="WPLASMAI">      0.00000000</i>
   <v name="DFIELD">      0.00000000      0.00000000      0.00000000</v>
   <v name="WPLASMA">      0.00000000      0.00000000      0.00000000      0.00000000      0.00000000      0.00000000      0.00000000      0.00000000      0.00000000</v>
  </separator>
  <separator name="orbital magnetization" >
   <i type="logical" name="NUCIND"> F  </i>
   <v name="MAGPOS">      0.00000000      0.00000000      0.00000000</v>
   <i type="logical" name="LNICSALL"> T  </i>
   <i type="logical" name="ORBITALMAG"> F  </i>
   <i type="logical" name="LMAGBLOCH"> F  </i>
   <i type="logical" name="LCHIMAG"> F  </i>
   <i type="logical" name="LGAUGE"> T  </i>
   <i type="int" name="MAGATOM">     0</i>
   <v name="MAGDIPOL">      0.00000000      0.00000000      0.00000000</v>
   <v name="AVECCONST">      0.00000000      0.00000000      0.00000000</v>
  </separator>
  <separator name="response functions" >
   <i type="logical" name="LFINITE_TEMPERATURE"> F  </i>
   <i type="logical" name="LADDER"> F  </i>
   <i type="logical" name="LRPAFORCE"> F  </i>
   <i type="logical" name="LFXC"> F  </i>
   <i type="logical" name="LHARTREE"> T  </i>
   <i type="int" name="IBSE">     0</i>
   <v type="int" name="KPOINT">    -1     0     0     0</v>
   <i type="logical" name="LTCTC"> F  </i>
   <i type="logical" name="LTCTE"> F  </i>
   <i type="logical" name="LTETE"> F  </i>
   <i type="logical" name="LTRIPLET"> F  </i>
   <i type="logical" name="LFXCEPS"> F  </i>
   <i type="logical" name="LFXHEG"> F  </i>
   <i type="int" name="NATURALO">     2</i>
   <i type="logical" name="LHOLEGF"> F  </i>
   <i type="logical" name="L2ORDER"> F  </i>
   <i type="logical" name="LDMP1"> F  </i>
   <i type="logical" name="LMP2LT"> F  </i>
   <i type="logical" name="LSMP2LT"> F  </i>
   <i type="logical" name="LGWLF"> F  </i>
   <i name="ENCUTGW">     -2.00000000</i>
   <i name="ENCUTGWSOFT">     -2.00000000</i>
   <i name="ENCUTLF">     -1.00000000</i>
   <i type="logical" name="LESF_SPLINES"> F  </i>
   <i type="int" name="LMAXMP2">    -1</i>
   <i name="SCISSOR">      0.00000000</i>
   <i type="int" name="NOMEGA">     0</i>
   <i type="int" name="NOMEGAR">     0</i>
   <i type="int" name="NBANDSGW">    -1</i>
   <i type="int" name="NBANDSO">    -1</i>
   <i type="int" name="NBANDSV">    -1</i>
   <i type="int" name="NELM">   100</i>
   <i type="int" name="NELMHF">     1</i>
   <i type="int" name="DIM">     3</i>
   <i type="int" name="IESPILON">     4</i>
   <i type="int" name="ANTIRES">     0</i>
   <i name="OMEGAMAX">    -30.00000000</i>
   <i name="OMEGAMIN">    -30.00000000</i>
   <i name="OMEGATL">   -200.00000000</i>
   <i type="int" name="OMEGAGRID">     0</i>
   <i name="CSHIFT">     -0.10000000</i>
   <i type="logical" name="LSELFENERGY"> F  </i>
   <i type="logical" name="LSPECTRAL"> F  </i>
   <i type="logical" name="LSPECTRALGW"> F  </i>
   <i type="logical" name="LSINGLES"> F  </i>
   <i type="logical" name="LFERMIGW"> F  </i>
   <i type="logical" name="ODDONLYGW"> F  </i>
   <i type="logical" name="EVENONLYGW"> F  </i>
   <i type="int" name="NKREDLFX">     1</i>
   <i type="int" name="NKREDLFY">     1</i>
   <i type="int" name="NKREDLFZ">     1</i>
   <i type="int" name="MAXMEM">  2800</i>
   <i type="int" name="TELESCOPE">     0</i>
   <i type="int" name="NTAUPAR">    -1</i>
   <i type="int" name="NOMEGAPAR">    -1</i>
   <i name="DAMP_NEWTON">      0.80000001</i>
   <i name="LAMBDA">      1.00000000</i>
  </separator>
  <separator name="External order field" >
   <i name="OFIELD_KAPPA">      0.00000000</i>
   <v name="OFIELD_K">      0.00000000      0.00000000      0.00000000</v>
   <i name="OFIELD_Q6_NEAR">      0.00000000</i>
   <i name="OFIELD_Q6_FAR">      0.00000000</i>
   <i name="OFIELD_A">      0.00000000</i>
  </separator>
 </parameters>
 <atominfo>
  <atoms>      10 </atoms>
  <types>       3 </types>
  <array name="atoms" >
   <dimension dim="1">ion</dimension>
   <field type="string">element</field>
   <field type="int">atomtype</field>
   <set>
    <rc><c>B </c><c>   1</c></rc>
    <rc><c>B </c><c>   1</c></rc>
    <rc><c>Mo</c><c>   2</c></rc>
    <rc><c>Mo</c><c>   2</c></rc>
    <rc><c>Mo</c><c>   2</c></rc>
    <rc><c>Mo</c><c>   2</c></rc>
    <rc><c>Si</c><c>   3</c></rc>
    <rc><c>Si</c><c>   3</c></rc>
    <rc><c>Si</c><c>   3</c></rc>
    <rc><c>Si</c><c>   3</c></rc>
   </set>
  </array>
  <array name="atomtypes" >
   <dimension dim="1">type</dimension>
   <field type="int">atomspertype</field>
   <field type="string">element</field>
   <field>mass</field>
   <field>valence</field>
   <field type="string">pseudopotential</field>
   <set>
    <rc><c>   2</c><c>B </c><c>     10.81100000</c><c>      3.00000000</c><c>  PAW_PBE B 06Sep2000                   </c></rc>
    <rc><c>   4</c><c>Mo</c><c>     95.94000000</c><c>     14.00000000</c><c>  PAW_PBE Mo_sv 02Feb2006               </c></rc>
    <rc><c>   4</c><c>Si</c><c>     28.08500000</c><c>      4.00000000</c><c>  PAW_PBE Si 05Jan2001                  </c></rc>
   </set>
  </array>
 </atominfo>
 <structure name="initialpos" >
  <crystal>
   <varray name="basis" >
    <v>       5.48846730       0.00000000      -2.86198702 </v>
    <v>      -2.01780536       5.10409001      -2.86198702 </v>
    <v>       0.00000000       0.00000000       6.18985000 </v>
   </varray>
   <i name="volume">    173.40017454 </i>
   <varray name="rec_basis" >
    <v>       0.18220023       0.07202941       0.00000000 </v>
    <v>       0.00000000       0.19592131       0.00000000 </v>
    <v>       0.08424351       0.12389177       0.16155480 </v>
   </varray>
  </crystal>
  <varray name="positions" >
   <v>       0.00000000       0.00000000       0.00000000 </v>
   <v>       0.50000000       0.50000000       0.00000000 </v>
   <v>       0.50000000       0.00000000       0.50000000 </v>
   <v>       0.25000000       0.25000000       0.00000000 </v>
   <v>       0.75000000       0.75000000       0.00000000 </v>
   <v>       0.00000000       0.50000000       0.50000000 </v>
   <v>       0.74915000       0.24915000       0.99831000 </v>
   <v>       0.25085000       0.75085000       0.00169000 </v>
   <v>       0.24915000       0.25085000       0.50000000 </v>
   <v>       0.75085000       0.74915000       0.50000000 </v>
  </varray>
 </structure>
 <calculation>
  <scstep>
   <time name="total">   16.65   16.87</time>
   <energy>
    <i name="alphaZ">    272.62162297 </i>
    <i name="ewald">  -5796.93200018 </i>
    <i name="hartreedc">  -2058.62176244 </i>
    <i name="XCdc">    301.03523705 </i>
    <i name="pawpsdc">   6361.18088108 </i>
    <i name="pawaedc">  -6305.13563559 </i>
    <i name="eentropy">     -0.00098491 </i>
    <i name="bandstr">   -112.66706014 </i>
    <i name="atom">   8003.73552278 </i>
    <i name="e_fr_energy">    665.21582062 </i>
    <i name="e_wo_entrp">    665.21680553 </i>
    <i name="e_0_energy">    665.21631308 </i>
   </energy>
  </scstep>
  <scstep>
   <time name="total">   16.61   16.79</time>
   <energy>
    <i name="e_fr_energy">   -135.94993254 </i>
    <i name="e_wo_entrp">   -135.94849227 </i>
    <i name="e_0_energy">   -135.94921241 </i>
   </energy>
  </scstep>
  <scstep>
   <time name="total">   19.72   19.93</time>
   <energy>
    <i name="e_fr_energy">   -171.75971672 </i>
    <i name="e_wo_entrp">   -171.75834143 </i>
    <i name="e_0_energy">   -171.75902908 </i>
   </energy>
  </scstep>
  <scstep>
   <time name="total">   18.44   18.63</time>
   <energy>
    <i name="e_fr_energy">   -172.62580677 </i>
    <i name="e_wo_entrp">   -172.62409648 </i>
    <i name="e_0_energy">   -172.62495163 </i>
   </energy>
  </scstep>
  <scstep>
   <time name="total">   20.98   21.19</time>
   <energy>
    <i name="e_fr_energy">   -172.65337058 </i>
    <i name="e_wo_entrp">   -172.65167487 </i>
    <i name="e_0_energy">   -172.65252272 </i>
   </energy>
  </scstep>
  <scstep>
   <time name="total">   19.68   19.87</time>
   <energy>
    <i name="e_fr_energy">   -102.99320929 </i>
    <i name="e_wo_entrp">   -102.99195328 </i>
    <i name="e_0_energy">   -102.99258129 </i>
   </energy>
  </scstep>
  <scstep>
   <time name="total">   19.62   19.82</time>
   <energy>
    <i name="e_fr_energy">   -130.93169524 </i>
    <i name="e_wo_entrp">   -130.92976294 </i>
    <i name="e_0_energy">   -130.93072909 </i>
   </energy>
  </scstep>
  <scstep>
   <time name="total">   19.50   19.70</time>
   <energy>
    <i name="e_fr_energy">   -135.91422118 </i>
    <i name="e_wo_entrp">   -135.91255108 </i>
    <i name="e_0_energy">   -135.91338613 </i>
   </energy>
  </scstep>
  <scstep>
   <time name="total">   19.47   19.67</time>
   <energy>
    <i name="e_fr_energy">   -137.49499321 </i>
    <i name="e_wo_entrp">   -137.49303058 </i>
    <i name="e_0_energy">   -137.49401190 </i>
   </energy>
  </scstep>
  <scstep>
   <time name="total">   18.78   18.97</time>
   <energy>
    <i name="e_fr_energy">   -138.05384034 </i>
    <i name="e_wo_entrp">   -138.05216926 </i>
    <i name="e_0_energy">   -138.05300480 </i>
   </energy>
  </scstep>
  <scstep>
   <time name="total">   19.47   19.67</time>
   <energy>
    <i name="e_fr_energy">   -138.48993112 </i>
    <i name="e_wo_entrp">   -138.48812006 </i>
    <i name="e_0_energy">   -138.48902559 </i>
   </energy>
  </scstep>
  <scstep>
   <time name="total">   19.42   19.62</time>
   <energy>
    <i name="e_fr_energy">   -138.66958304 </i>
    <i name="e_wo_entrp">   -138.66770308 </i>
    <i name="e_0_energy">   -138.66864306 </i>
   </energy>
  </scstep>
  <scstep>
   <time name="total">   19.45   19.65</time>
   <energy>
    <i name="e_fr_energy">   -138.77462563 </i>
    <i name="e_wo_entrp">   -138.77284704 </i>
    <i name="e_0_energy">   -138.77373633 </i>
   </energy>
  </scstep>
  <scstep>
   <time name="total">   18.71   18.91</time>
   <energy>
    <i name="e_fr_energy">   -138.83725114 </i>
    <i name="e_wo_entrp">   -138.83574368 </i>
    <i name="e_0_energy">   -138.83649741 </i>
   </energy>
  </scstep>
  <scstep>
   <time name="total">   19.47   19.67</time>
   <energy>
    <i name="e_fr_energy">   -138.87863140 </i>
    <i name="e_wo_entrp">   -138.87718212 </i>
    <i name="e_0_energy">   -138.87790676 </i>
   </energy>
  </scstep>
  <scstep>
   <time name="total">   19.46   19.66</time>
   <energy>
    <i name="e_fr_energy">   -138.91396445 </i>
    <i name="e_wo_entrp">   -138.91250417 </i>
    <i name="e_0_energy">   -138.91323431 </i>
   </energy>
  </scstep>
  <scstep>
   <time name="total">   19.40   19.59</time>
   <energy>
    <i name="e_fr_energy">   -138.93483062 </i>
    <i name="e_wo_entrp">   -138.93350145 </i>
    <i name="e_0_energy">   -138.93416603 </i>
   </energy>
  </scstep>
  <scstep>
   <time name="total">   18.74   18.94</time>
   <energy>
    <i name="e_fr_energy">   -138.95355812 </i>
    <i name="e_wo_entrp">   -138.95238015 </i>
    <i name="e_0_energy">   -138.95296914 </i>
   </energy>
  </scstep>
  <scstep>
   <time name="total">   19.14   19.33</time>
   <energy>
    <i name="e_fr_energy">   -138.96355107 </i>
    <i name="e_wo_entrp">   -138.96248081 </i>
    <i name="e_0_energy">   -138.96301594 </i>
   </energy>
  </scstep>
  <scstep>
   <time name="total">   19.50   19.70</time>
   <energy>
    <i name="e_fr_energy">   -138.97216442 </i>
    <i name="e_wo_entrp">   -138.97114279 </i>
    <i name="e_0_energy">   -138.97165360 </i>
   </energy>
  </scstep>
  <scstep>
   <time name="total">   19.54   19.73</time>
   <energy>
    <i name="e_fr_energy">   -138.97559674 </i>
    <i name="e_wo_entrp">   -138.97464252 </i>
    <i name="e_0_energy">   -138.97511963 </i>
   </energy>
  </scstep>
  <scstep>
   <time name="total">   19.07   19.26</time>
   <energy>
    <i name="e_fr_energy">   -138.97842619 </i>
    <i name="e_wo_entrp">   -138.97750128 </i>
    <i name="e_0_energy">   -138.97796373 </i>
   </energy>
  </scstep>
  <scstep>
   <time name="total">   18.75   18.94</time>
   <energy>
    <i name="e_fr_energy">   -138.97953690 </i>
    <i name="e_wo_entrp">   -138.97862206 </i>
    <i name="e_0_energy">   -138.97907948 </i>
   </energy>
  </scstep>
  <scstep>
   <time name="total">   19.51   19.70</time>
   <energy>
    <i name="e_fr_energy">   -138.98064603 </i>
    <i name="e_wo_entrp">   -138.97973157 </i>
    <i name="e_0_energy">   -138.98018880 </i>
   </energy>
  </scstep>
  <scstep>
   <time name="total">   19.34   19.54</time>
   <energy>
    <i name="e_fr_energy">   -138.98111314 </i>
    <i name="e_wo_entrp">   -138.98019592 </i>
    <i name="e_0_energy">   -138.98065453 </i>
   </energy>
  </scstep>
  <scstep>
   <time name="total">   19.09   19.29</time>
   <energy>
    <i name="e_fr_energy">   -138.98163475 </i>
    <i name="e_wo_entrp">   -138.98071190 </i>
    <i name="e_0_energy">   -138.98117333 </i>
   </energy>
  </scstep>
  <scstep>
   <time name="total">   18.82   19.01</time>
   <energy>
    <i name="e_fr_energy">   -138.98183142 </i>
    <i name="e_wo_entrp">   -138.98090235 </i>
    <i name="e_0_energy">   -138.98136688 </i>
   </energy>
  </scstep>
  <scstep>
   <time name="total">   18.89   19.08</time>
   <energy>
    <i name="e_fr_energy">   -138.98203230 </i>
    <i name="e_wo_entrp">   -138.98109978 </i>
    <i name="e_0_energy">   -138.98156604 </i>
   </energy>
  </scstep>
  <scstep>
   <time name="total">   19.53   19.72</time>
   <energy>
    <i name="e_fr_energy">   -138.98210852 </i>
    <i name="e_wo_entrp">   -138.98117036 </i>
    <i name="e_0_energy">   -138.98163944 </i>
   </energy>
  </scstep>
  <scstep>
   <time name="total">   19.74   19.94</time>
   <energy>
    <i name="e_fr_energy">   -138.98217434 </i>
    <i name="e_wo_entrp">   -138.98123494 </i>
    <i name="e_0_energy">   -138.98170464 </i>
   </energy>
  </scstep>
  <scstep>
   <time name="total">   18.86   19.06</time>
   <energy>
    <i name="e_fr_energy">   -138.98220181 </i>
    <i name="e_wo_entrp">   -138.98126402 </i>
    <i name="e_0_energy">   -138.98173292 </i>
   </energy>
  </scstep>
  <scstep>
   <time name="total">   18.80   19.00</time>
   <energy>
    <i name="e_fr_energy">   -138.98222624 </i>
    <i name="e_wo_entrp">   -138.98129021 </i>
    <i name="e_0_energy">   -138.98175822 </i>
   </energy>
  </scstep>
  <scstep>
   <time name="total">   18.96   19.15</time>
   <energy>
    <i name="e_fr_energy">   -138.98223827 </i>
    <i name="e_wo_entrp">   -138.98130319 </i>
    <i name="e_0_energy">   -138.98177073 </i>
   </energy>
  </scstep>
  <scstep>
   <time name="total">   18.94   19.14</time>
   <energy>
    <i name="e_fr_energy">   -138.98224929 </i>
    <i name="e_wo_entrp">   -138.98131464 </i>
    <i name="e_0_energy">   -138.98178196 </i>
   </energy>
  </scstep>
  <scstep>
   <time name="total">   18.99   19.19</time>
   <energy>
    <i name="e_fr_energy">   -138.98225368 </i>
    <i name="e_wo_entrp">   -138.98132018 </i>
    <i name="e_0_energy">   -138.98178693 </i>
   </energy>
  </scstep>
  <scstep>
   <time name="total">   18.84   19.03</time>
   <energy>
    <i name="e_fr_energy">   -138.98225822 </i>
    <i name="e_wo_entrp">   -138.98132550 </i>
    <i name="e_0_energy">   -138.98179186 </i>
   </energy>
  </scstep>
  <scstep>
   <time name="total">   18.76   18.96</time>
   <energy>
    <i name="e_fr_energy">   -138.98225978 </i>
    <i name="e_wo_entrp">   -138.98132707 </i>
    <i name="e_0_energy">   -138.98179342 </i>
   </energy>
  </scstep>
  <scstep>
   <time name="total">   19.39   19.59</time>
   <energy>
    <i name="e_fr_energy">   -138.98226127 </i>
    <i name="e_wo_entrp">   -138.98132894 </i>
    <i name="e_0_energy">   -138.98179510 </i>
   </energy>
  </scstep>
  <scstep>
   <time name="total">   19.19   19.38</time>
   <energy>
    <i name="e_fr_energy">   -138.98226280 </i>
    <i name="e_wo_entrp">   -138.98133041 </i>
    <i name="e_0_energy">   -138.98179661 </i>
   </energy>
  </scstep>
  <scstep>
   <time name="total">   19.02   19.22</time>
   <energy>
    <i name="e_fr_energy">   -138.98226341 </i>
    <i name="e_wo_entrp">   -138.98133108 </i>
    <i name="e_0_energy">   -138.98179725 </i>
   </energy>
  </scstep>
  <scstep>
   <time name="total">   18.84   19.03</time>
   <energy>
    <i name="e_fr_energy">   -138.98226360 </i>
    <i name="e_wo_entrp">   -138.98133144 </i>
    <i name="e_0_energy">   -138.98179752 </i>
   </energy>
  </scstep>
  <scstep>
   <time name="total">   18.64   18.83</time>
   <energy>
    <i name="e_fr_energy">   -138.98226375 </i>
    <i name="e_wo_entrp">   -138.98133159 </i>
    <i name="e_0_energy">   -138.98179767 </i>
   </energy>
  </scstep>
  <scstep>
   <time name="total">   18.78   18.96</time>
   <energy>
    <i name="e_fr_energy">   -138.98226385 </i>
    <i name="e_wo_entrp">   -138.98133166 </i>
    <i name="e_0_energy">   -138.98179775 </i>
   </energy>
  </scstep>
  <scstep>
   <time name="total">   18.32   18.52</time>
   <energy>
    <i name="e_fr_energy">   -138.98226388 </i>
    <i name="e_wo_entrp">   -138.98133168 </i>
    <i name="e_0_energy">   -138.98179778 </i>
   </energy>
  </scstep>
  <scstep>
   <time name="total">   18.51   18.70</time>
   <energy>
    <i name="e_fr_energy">   -138.98226392 </i>
    <i name="e_wo_entrp">   -138.98133173 </i>
    <i name="e_0_energy">   -138.98179783 </i>
   </energy>
  </scstep>
  <scstep>
   <time name="total">   33.82   34.15</time>
   <energy>
    <i name="e_fr_energy">   -138.98226392 </i>
    <i name="e_wo_entrp">   -138.98133177 </i>
    <i name="e_0_energy">   -138.98179784 </i>
   </energy>
  </scstep>
  <scstep>
   <time name="total">   35.30   35.64</time>
   <energy>
    <i name="e_fr_energy">   -138.98226394 </i>
    <i name="e_wo_entrp">   -138.98133153 </i>
    <i name="e_0_energy">   -138.98179773 </i>
   </energy>
  </scstep>
  <scstep>
   <time name="total">   19.35   19.55</time>
   <energy>
    <i name="e_fr_energy">   -138.98226250 </i>
    <i name="e_wo_entrp">   -138.98133023 </i>
    <i name="e_0_energy">   -138.98179636 </i>
   </energy>
  </scstep>
  <scstep>
   <time name="total">   19.29   19.48</time>
   <energy>
    <i name="e_fr_energy">   -138.98226347 </i>
    <i name="e_wo_entrp">   -138.98133132 </i>
    <i name="e_0_energy">   -138.98179739 </i>
   </energy>
  </scstep>
  <scstep>
   <time name="total">   19.40   19.60</time>
   <energy>
    <i name="e_fr_energy">   -138.98226355 </i>
    <i name="e_wo_entrp">   -138.98133144 </i>
    <i name="e_0_energy">   -138.98179749 </i>
   </energy>
  </scstep>
  <scstep>
   <time name="total">   19.75   19.93</time>
   <energy>
    <i name="e_fr_energy">   -138.98226376 </i>
    <i name="e_wo_entrp">   -138.98133161 </i>
    <i name="e_0_energy">   -138.98179768 </i>
   </energy>
  </scstep>
  <scstep>
   <time name="total">   19.35   19.55</time>
   <energy>
    <i name="e_fr_energy">   -138.98226391 </i>
    <i name="e_wo_entrp">   -138.98133174 </i>
    <i name="e_0_energy">   -138.98179782 </i>
   </energy>
  </scstep>
  <scstep>
   <time name="total">   19.10   19.30</time>
   <energy>
    <i name="e_fr_energy">   -138.98226394 </i>
    <i name="e_wo_entrp">   -138.98133178 </i>
    <i name="e_0_energy">   -138.98179786 </i>
   </energy>
  </scstep>
  <scstep>
   <time name="total">   19.33   19.52</time>
   <energy>
    <i name="e_fr_energy">   -138.98226395 </i>
    <i name="e_wo_entrp">   -138.98133179 </i>
    <i name="e_0_energy">   -138.98179787 </i>
   </energy>
  </scstep>
  <scstep>
   <time name="total">   19.06   19.25</time>
   <energy>
    <i name="e_fr_energy">   -138.98226396 </i>
    <i name="e_wo_entrp">   -138.98133176 </i>
    <i name="e_0_energy">   -138.98179786 </i>
   </energy>
  </scstep>
  <scstep>
   <time name="total">   19.16   19.36</time>
   <energy>
    <i name="e_fr_energy">   -138.98226393 </i>
    <i name="e_wo_entrp">   -138.98133171 </i>
    <i name="e_0_energy">   -138.98179782 </i>
   </energy>
  </scstep>
  <scstep>
   <time name="total">   18.92   19.11</time>
   <energy>
    <i name="e_fr_energy">   -138.98226398 </i>
    <i name="e_wo_entrp">   -138.98133178 </i>
    <i name="e_0_energy">   -138.98179788 </i>
   </energy>
  </scstep>
  <scstep>
   <time name="total">   18.83   19.02</time>
   <energy>
    <i name="e_fr_energy">   -138.98226397 </i>
    <i name="e_wo_entrp">   -138.98133178 </i>
    <i name="e_0_energy">   -138.98179788 </i>
   </energy>
  </scstep>
  <scstep>
   <time name="total">   19.17   19.37</time>
   <energy>
    <i name="e_fr_energy">   -138.98226398 </i>
    <i name="e_wo_entrp">   -138.98133178 </i>
    <i name="e_0_energy">   -138.98179788 </i>
   </energy>
  </scstep>
  <scstep>
   <time name="total">   22.01   22.24</time>
   <energy>
    <i name="alphaZ">    272.62162297 </i>
    <i name="ewald">  -5796.93200018 </i>
    <i name="hartreedc">  -1993.94016029 </i>
    <i name="XCdc">    309.27724181 </i>
    <i name="pawpsdc">   9640.33929531 </i>
    <i name="pawaedc">  -9592.51039397 </i>
    <i name="eentropy">     -0.00093220 </i>
    <i name="bandstr">   -981.57246021 </i>
    <i name="atom">   8003.73552278 </i>
    <i name="e_fr_energy">   -138.98226398 </i>
    <i name="e_wo_entrp">   -138.98133178 </i>
    <i name="e_0_energy">   -138.98179788 </i>
   </energy>
  </scstep>
  <structure>
   <crystal>
    <varray name="basis" >
     <v>       5.48846730       0.00000000      -2.86198702 </v>
     <v>      -2.01780536       5.10409001      -2.86198702 </v>
     <v>       0.00000000       0.00000000       6.18985000 </v>
    </varray>
    <i name="volume">    173.40017454 </i>
    <varray name="rec_basis" >
     <v>       0.18220023       0.07202941       0.00000000 </v>
     <v>       0.00000000       0.19592131       0.00000000 </v>
     <v>       0.08424351       0.12389177       0.16155480 </v>
    </varray>
   </crystal>
   <varray name="positions" >
    <v>       0.00000000       0.00000000       0.00000000 </v>
    <v>       0.50000000       0.50000000       0.00000000 </v>
    <v>       0.50000000       0.00000000       0.50000000 </v>
    <v>       0.25000000       0.25000000       0.00000000 </v>
    <v>       0.75000000       0.75000000       0.00000000 </v>
    <v>       0.00000000       0.50000000       0.50000000 </v>
    <v>       0.74915000       0.24915000       0.99831000 </v>
    <v>       0.25085000       0.75085000       0.00169000 </v>
    <v>       0.24915000       0.25085000       0.50000000 </v>
    <v>       0.75085000       0.74915000       0.50000000 </v>
   </varray>
  </structure>
  <varray name="forces" >
   <v>       0.00000000       0.00000000       0.00000000 </v>
   <v>       0.00000000       0.00000000       0.00000000 </v>
   <v>       0.00000000       0.00000000       0.00000000 </v>
   <v>       0.00000000       0.00000000       0.00000000 </v>
   <v>       0.00000000       0.00000000       0.00000000 </v>
   <v>       0.00000000       0.00000000       0.00000000 </v>
   <v>       0.00000000       0.00000000       0.00000000 </v>
   <v>       0.00000000       0.00000000       0.00000000 </v>
   <v>       0.00000000       0.00000000       0.00000000 </v>
   <v>       0.00000000       0.00000000       0.00000000 </v>
  </varray>
  <varray name="stress" >
   <v>       0.00000000       0.00000000       0.00000000 </v>
   <v>       0.00000000       0.00000000       0.00000000 </v>
   <v>       0.00000000       0.00000000       0.00000000 </v>
  </varray>
  <energy>
   <i name="e_fr_energy">   -138.98226398 </i>
   <i name="e_wo_entrp">   -138.98133178 </i>
   <i name="e_0_energy">   -138.98179788 </i>
  </energy>
  <time name="totalsc"> 1182.16 1194.21</time>
  <eigenvalues>
   <array>
    <dimension dim="1">band</dimension>
    <dimension dim="2">kpoint</dimension>
    <dimension dim="3">spin</dimension>
    <field>eigene</field>
    <field>occ</field>
    <set>
     <set comment="spin 1">
      <set comment="kpoint 1">
       <r>  -55.6581    1.0000 </r>
       <r>  -55.6580    1.0000 </r>
       <r>  -54.9712    1.0000 </r>
       <r>  -54.9695    1.0000 </r>
       <r>  -29.2022    1.0000 </r>
       <r>  -29.1990    1.0000 </r>
       <r>  -28.9741    1.0000 </r>
       <r>  -28.9739    1.0000 </r>
       <r>  -28.9725    1.0000 </r>
       <r>  -28.9723    1.0000 </r>
       <r>  -28.6394    1.0000 </r>
       <r>  -28.6343    1.0000 </r>
       <r>  -28.6135    1.0000 </r>
       <r>  -28.6081    1.0000 </r>
       <r>  -28.3365    1.0000 </r>
       <r>  -28.3283    1.0000 </r>
       <r>   -5.0411    1.0000 </r>
       <r>   -1.7820    1.0000 </r>
       <r>   -1.2105    1.0000 </r>
       <r>   -1.2094    1.0000 </r>
       <r>   -0.4781    1.0000 </r>
       <r>    2.2157    1.0000 </r>
       <r>    2.4591    1.0000 </r>
       <r>    2.4595    1.0000 </r>
       <r>    2.6187    1.0000 </r>
       <r>    2.6676    1.0000 </r>
       <r>    3.6058    1.0000 </r>
       <r>    3.8042    1.0000 </r>
       <r>    3.8044    1.0000 </r>
       <r>    4.9788    1.0000 </r>
       <r>    5.1084    1.0000 </r>
       <r>    5.6221    1.0000 </r>
       <r>    5.8148    1.0000 </r>
       <r>    5.8153    1.0000 </r>
       <r>    6.1789    1.0000 </r>
       <r>    6.6103    1.0000 </r>
       <r>    7.2962    1.0000 </r>
       <r>    7.2987    1.0000 </r>
       <r>    7.6565    0.0000 </r>
       <r>    7.6570    0.0000 </r>
       <r>    7.7522    0.0000 </r>
       <r>    7.7530    0.0000 </r>
       <r>    7.9149    0.0000 </r>
       <r>    8.1120    0.0000 </r>
       <r>    8.8393    0.0000 </r>
       <r>    9.3602    0.0000 </r>
       <r>    9.3630    0.0000 </r>
       <r>    9.4415    0.0000 </r>
      </set>
      <set comment="kpoint 2">
       <r>  -55.6581    1.0000 </r>
       <r>  -55.6580    1.0000 </r>
       <r>  -54.9712    1.0000 </r>
       <r>  -54.9696    1.0000 </r>
       <r>  -29.2022    1.0000 </r>
       <r>  -29.1992    1.0000 </r>
       <r>  -28.9740    1.0000 </r>
       <r>  -28.9740    1.0000 </r>
       <r>  -28.9724    1.0000 </r>
       <r>  -28.9723    1.0000 </r>
       <r>  -28.6388    1.0000 </r>
       <r>  -28.6336    1.0000 </r>
       <r>  -28.6141    1.0000 </r>
       <r>  -28.6088    1.0000 </r>
       <r>  -28.3361    1.0000 </r>
       <r>  -28.3287    1.0000 </r>
       <r>   -4.9308    1.0000 </r>
       <r>   -2.1171    1.0000 </r>
       <r>   -1.1813    1.0000 </r>
       <r>   -1.0632    1.0000 </r>
       <r>   -0.5233    1.0000 </r>
       <r>    1.4893    1.0000 </r>
       <r>    2.5450    1.0000 </r>
       <r>    2.7192    1.0000 </r>
       <r>    2.8667    1.0000 </r>
       <r>    3.0659    1.0000 </r>
       <r>    3.6145    1.0000 </r>
       <r>    3.8535    1.0000 </r>
       <r>    3.8937    1.0000 </r>
       <r>    4.5877    1.0000 </r>
       <r>    5.2199    1.0000 </r>
       <r>    5.7023    1.0000 </r>
       <r>    5.9164    1.0000 </r>
       <r>    5.9453    1.0000 </r>
       <r>    6.1802    1.0000 </r>
       <r>    6.4798    1.0000 </r>
       <r>    7.1478    1.0000 </r>
       <r>    7.2513    1.0000 </r>
       <r>    7.6297    0.0000 </r>
       <r>    7.7008    0.0000 </r>
       <r>    7.7182    0.0000 </r>
       <r>    7.7209    0.0000 </r>
       <r>    8.0773    0.0000 </r>
       <r>    8.1390    0.0000 </r>
       <r>    8.8288    0.0000 </r>
       <r>    9.0666    0.0000 </r>
       <r>    9.1101    0.0000 </r>
       <r>    9.8196    0.0000 </r>
      </set>
      <set comment="kpoint 3">
       <r>  -55.6581    1.0000 </r>
       <r>  -55.6580    1.0000 </r>
       <r>  -54.9709    1.0000 </r>
       <r>  -54.9699    1.0000 </r>
       <r>  -29.2020    1.0000 </r>
       <r>  -29.1997    1.0000 </r>
       <r>  -28.9742    1.0000 </r>
       <r>  -28.9739    1.0000 </r>
       <r>  -28.9726    1.0000 </r>
       <r>  -28.9721    1.0000 </r>
       <r>  -28.6373    1.0000 </r>
       <r>  -28.6321    1.0000 </r>
       <r>  -28.6156    1.0000 </r>
       <r>  -28.6102    1.0000 </r>
       <r>  -28.3348    1.0000 </r>
       <r>  -28.3299    1.0000 </r>
       <r>   -4.6091    1.0000 </r>
       <r>   -2.7618    1.0000 </r>
       <r>   -1.0972    1.0000 </r>
       <r>   -0.8307    1.0000 </r>
       <r>   -0.6437    1.0000 </r>
       <r>    0.6819    1.0000 </r>
       <r>    2.7837    1.0000 </r>
       <r>    2.8729    1.0000 </r>
       <r>    3.4778    1.0000 </r>
       <r>    3.5693    1.0000 </r>
       <r>    3.5902    1.0000 </r>
       <r>    4.0125    1.0000 </r>
       <r>    4.0293    1.0000 </r>
       <r>    4.0928    1.0000 </r>
       <r>    5.2812    1.0000 </r>
       <r>    5.3519    1.0000 </r>
       <r>    6.1842    1.0000 </r>
       <r>    6.2001    1.0000 </r>
       <r>    6.2553    1.0000 </r>
       <r>    6.4402    1.0000 </r>
       <r>    6.9823    1.0000 </r>
       <r>    6.9878    1.0000 </r>
       <r>    7.5448    0.0000 </r>
       <r>    7.5653    0.0000 </r>
       <r>    7.7942    0.0000 </r>
       <r>    7.8041    0.0000 </r>
       <r>    8.1186    0.0000 </r>
       <r>    8.5252    0.0000 </r>
       <r>    8.6594    0.0000 </r>
       <r>    8.7245    0.0000 </r>
       <r>    8.7779    0.0000 </r>
       <r>    9.3116    0.0000 </r>
      </set>
      <set comment="kpoint 4">
       <r>  -55.6581    1.0000 </r>
       <r>  -55.6580    1.0000 </r>
       <r>  -54.9706    1.0000 </r>
       <r>  -54.9702    1.0000 </r>
       <r>  -29.2015    1.0000 </r>
       <r>  -29.2006    1.0000 </r>
       <r>  -28.9741    1.0000 </r>
       <r>  -28.9740    1.0000 </r>
       <r>  -28.9725    1.0000 </r>
       <r>  -28.9722    1.0000 </r>
       <r>  -28.6361    1.0000 </r>
       <r>  -28.6310    1.0000 </r>
       <r>  -28.6167    1.0000 </r>
       <r>  -28.6113    1.0000 </r>
       <r>  -28.3332    1.0000 </r>
       <r>  -28.3315    1.0000 </r>
       <r>   -4.1041    1.0000 </r>
       <r>   -3.4637    1.0000 </r>
       <r>   -0.9657    1.0000 </r>
       <r>   -0.8048    1.0000 </r>
       <r>   -0.4969    1.0000 </r>
       <r>    0.0036    1.0000 </r>
       <r>    3.1121    1.0000 </r>
       <r>    3.1356    1.0000 </r>
       <r>    3.4163    1.0000 </r>
       <r>    3.5164    1.0000 </r>
       <r>    3.9180    1.0000 </r>
       <r>    4.0049    1.0000 </r>
       <r>    4.3218    1.0000 </r>
       <r>    4.4248    1.0000 </r>
       <r>    4.7591    1.0000 </r>
       <r>    5.0615    1.0000 </r>
       <r>    6.2653    1.0000 </r>
       <r>    6.3227    1.0000 </r>
       <r>    6.5412    1.0000 </r>
       <r>    6.5631    1.0000 </r>
       <r>    6.7062    1.0000 </r>
       <r>    6.9019    1.0000 </r>
       <r>    7.3438    1.0000 </r>
       <r>    7.5647    0.0000 </r>
       <r>    7.6360    0.0000 </r>
       <r>    7.7704    0.0000 </r>
       <r>    8.4748    0.0000 </r>
       <r>    8.6109    0.0000 </r>
       <r>    8.7026    0.0000 </r>
       <r>    8.7211    0.0000 </r>
       <r>    8.8054    0.0000 </r>
       <r>    9.1148    0.0000 </r>
      </set>
      <set comment="kpoint 5">
       <r>  -55.6581    1.0000 </r>
       <r>  -55.6581    1.0000 </r>
       <r>  -54.9711    1.0000 </r>
       <r>  -54.9697    1.0000 </r>
       <r>  -29.2018    1.0000 </r>
       <r>  -29.1998    1.0000 </r>
       <r>  -28.9741    1.0000 </r>
       <r>  -28.9740    1.0000 </r>
       <r>  -28.9733    1.0000 </r>
       <r>  -28.9716    1.0000 </r>
       <r>  -28.6374    1.0000 </r>
       <r>  -28.6339    1.0000 </r>
       <r>  -28.6155    1.0000 </r>
       <r>  -28.6083    1.0000 </r>
       <r>  -28.3349    1.0000 </r>
       <r>  -28.3299    1.0000 </r>
       <r>   -4.7573    1.0000 </r>
       <r>   -2.3841    1.0000 </r>
       <r>   -1.5117    1.0000 </r>
       <r>   -0.7118    1.0000 </r>
       <r>   -0.6118    1.0000 </r>
       <r>    1.4693    1.0000 </r>
       <r>    2.1306    1.0000 </r>
       <r>    2.9660    1.0000 </r>
       <r>    3.0300    1.0000 </r>
       <r>    3.4342    1.0000 </r>
       <r>    3.6985    1.0000 </r>
       <r>    3.9774    1.0000 </r>
       <r>    3.9803    1.0000 </r>
       <r>    4.0029    1.0000 </r>
       <r>    5.3619    1.0000 </r>
       <r>    5.5655    1.0000 </r>
       <r>    6.0341    1.0000 </r>
       <r>    6.1909    1.0000 </r>
       <r>    6.2316    1.0000 </r>
       <r>    6.4652    1.0000 </r>
       <r>    6.8706    1.0000 </r>
       <r>    7.1562    1.0000 </r>
       <r>    7.5538    0.0000 </r>
       <r>    7.7148    0.0000 </r>
       <r>    7.7927    0.0000 </r>
       <r>    7.8701    0.0000 </r>
       <r>    8.0506    0.0000 </r>
       <r>    8.4005    0.0000 </r>
       <r>    8.5250    0.0000 </r>
       <r>    8.7887    0.0000 </r>
       <r>    9.1608    0.0000 </r>
       <r>    9.5247    0.0000 </r>
      </set>
      <set comment="kpoint 6">
       <r>  -55.6581    1.0000 </r>
       <r>  -55.6580    1.0000 </r>
       <r>  -54.9708    1.0000 </r>
       <r>  -54.9700    1.0000 </r>
       <r>  -29.2012    1.0000 </r>
       <r>  -29.2007    1.0000 </r>
       <r>  -28.9741    1.0000 </r>
       <r>  -28.9740    1.0000 </r>
       <r>  -28.9738    1.0000 </r>
       <r>  -28.9710    1.0000 </r>
       <r>  -28.6362    1.0000 </r>
       <r>  -28.6333    1.0000 </r>
       <r>  -28.6167    1.0000 </r>
       <r>  -28.6089    1.0000 </r>
       <r>  -28.3332    1.0000 </r>
       <r>  -28.3316    1.0000 </r>
       <r>   -4.3861    1.0000 </r>
       <r>   -2.9418    1.0000 </r>
       <r>   -1.6117    1.0000 </r>
       <r>   -0.8714    1.0000 </r>
       <r>   -0.3591    1.0000 </r>
       <r>    1.0195    1.0000 </r>
       <r>    2.2732    1.0000 </r>
       <r>    3.2065    1.0000 </r>
       <r>    3.3134    1.0000 </r>
       <r>    3.4236    1.0000 </r>
       <r>    3.8144    1.0000 </r>
       <r>    3.9567    1.0000 </r>
       <r>    4.1394    1.0000 </r>
       <r>    4.2353    1.0000 </r>
       <r>    5.0827    1.0000 </r>
       <r>    5.5305    1.0000 </r>
       <r>    6.2084    1.0000 </r>
       <r>    6.2236    1.0000 </r>
       <r>    6.4160    1.0000 </r>
       <r>    6.5692    1.0000 </r>
       <r>    6.6027    1.0000 </r>
       <r>    7.0221    1.0000 </r>
       <r>    7.4818    0.0003 </r>
       <r>    7.5770    0.0000 </r>
       <r>    7.7103    0.0000 </r>
       <r>    7.8363    0.0000 </r>
       <r>    8.1418    0.0000 </r>
       <r>    8.4024    0.0000 </r>
       <r>    8.6591    0.0000 </r>
       <r>    8.7008    0.0000 </r>
       <r>    8.8704    0.0000 </r>
       <r>    9.3528    0.0000 </r>
      </set>
      <set comment="kpoint 7">
       <r>  -55.6581    1.0000 </r>
       <r>  -55.6580    1.0000 </r>
       <r>  -54.9705    1.0000 </r>
       <r>  -54.9703    1.0000 </r>
       <r>  -29.2018    1.0000 </r>
       <r>  -29.2004    1.0000 </r>
       <r>  -28.9742    1.0000 </r>
       <r>  -28.9741    1.0000 </r>
       <r>  -28.9735    1.0000 </r>
       <r>  -28.9708    1.0000 </r>
       <r>  -28.6361    1.0000 </r>
       <r>  -28.6322    1.0000 </r>
       <r>  -28.6166    1.0000 </r>
       <r>  -28.6102    1.0000 </r>
       <r>  -28.3333    1.0000 </r>
       <r>  -28.3314    1.0000 </r>
       <r>   -3.8538    1.0000 </r>
       <r>   -3.5987    1.0000 </r>
       <r>   -1.4842    1.0000 </r>
       <r>   -1.1739    1.0000 </r>
       <r>    0.0046    1.0000 </r>
       <r>    0.4757    1.0000 </r>
       <r>    2.7383    1.0000 </r>
       <r>    2.9679    1.0000 </r>
       <r>    3.2127    1.0000 </r>
       <r>    3.6235    1.0000 </r>
       <r>    4.0246    1.0000 </r>
       <r>    4.2108    1.0000 </r>
       <r>    4.3445    1.0000 </r>
       <r>    4.5972    1.0000 </r>
       <r>    4.6808    1.0000 </r>
       <r>    5.2763    1.0000 </r>
       <r>    6.2699    1.0000 </r>
       <r>    6.2728    1.0000 </r>
       <r>    6.4653    1.0000 </r>
       <r>    6.5160    1.0000 </r>
       <r>    6.7388    1.0000 </r>
       <r>    6.7995    1.0000 </r>
       <r>    7.2023    1.0000 </r>
       <r>    7.4562    0.0523 </r>
       <r>    7.6793    0.0000 </r>
       <r>    7.7982    0.0000 </r>
       <r>    8.4271    0.0000 </r>
       <r>    8.5174    0.0000 </r>
       <r>    8.7263    0.0000 </r>
       <r>    8.8439    0.0000 </r>
       <r>    9.0201    0.0000 </r>
       <r>    9.1163    0.0000 </r>
      </set>
      <set comment="kpoint 8">
       <r>  -55.6581    1.0000 </r>
       <r>  -55.6580    1.0000 </r>
       <r>  -54.9706    1.0000 </r>
       <r>  -54.9702    1.0000 </r>
       <r>  -29.2027    1.0000 </r>
       <r>  -29.1995    1.0000 </r>
       <r>  -28.9743    1.0000 </r>
       <r>  -28.9741    1.0000 </r>
       <r>  -28.9730    1.0000 </r>
       <r>  -28.9709    1.0000 </r>
       <r>  -28.6372    1.0000 </r>
       <r>  -28.6313    1.0000 </r>
       <r>  -28.6155    1.0000 </r>
       <r>  -28.6114    1.0000 </r>
       <r>  -28.3348    1.0000 </r>
       <r>  -28.3299    1.0000 </r>
       <r>   -4.1899    1.0000 </r>
       <r>   -3.2180    1.0000 </r>
       <r>   -1.4271    1.0000 </r>
       <r>   -1.2286    1.0000 </r>
       <r>    0.0412    1.0000 </r>
       <r>    0.4432    1.0000 </r>
       <r>    2.5796    1.0000 </r>
       <r>    2.8863    1.0000 </r>
       <r>    3.2050    1.0000 </r>
       <r>    3.9779    1.0000 </r>
       <r>    4.0707    1.0000 </r>
       <r>    4.2095    1.0000 </r>
       <r>    4.2522    1.0000 </r>
       <r>    4.7110    1.0000 </r>
       <r>    4.8191    1.0000 </r>
       <r>    5.1972    1.0000 </r>
       <r>    6.1911    1.0000 </r>
       <r>    6.2183    1.0000 </r>
       <r>    6.2632    1.0000 </r>
       <r>    6.3789    1.0000 </r>
       <r>    6.4687    1.0000 </r>
       <r>    7.1186    1.0000 </r>
       <r>    7.2494    1.0000 </r>
       <r>    7.5704    0.0000 </r>
       <r>    7.6792    0.0000 </r>
       <r>    7.7823    0.0000 </r>
       <r>    8.3710    0.0000 </r>
       <r>    8.4460    0.0000 </r>
       <r>    8.6536    0.0000 </r>
       <r>    8.8756    0.0000 </r>
       <r>    8.9898    0.0000 </r>
       <r>    9.2410    0.0000 </r>
      </set>
      <set comment="kpoint 9">
       <r>  -55.6581    1.0000 </r>
       <r>  -55.6580    1.0000 </r>
       <r>  -54.9709    1.0000 </r>
       <r>  -54.9699    1.0000 </r>
       <r>  -29.2029    1.0000 </r>
       <r>  -29.1990    1.0000 </r>
       <r>  -28.9743    1.0000 </r>
       <r>  -28.9738    1.0000 </r>
       <r>  -28.9730    1.0000 </r>
       <r>  -28.9712    1.0000 </r>
       <r>  -28.6385    1.0000 </r>
       <r>  -28.6313    1.0000 </r>
       <r>  -28.6142    1.0000 </r>
       <r>  -28.6115    1.0000 </r>
       <r>  -28.3359    1.0000 </r>
       <r>  -28.3287    1.0000 </r>
       <r>   -4.6350    1.0000 </r>
       <r>   -2.5692    1.0000 </r>
       <r>   -1.5818    1.0000 </r>
       <r>   -0.9245    1.0000 </r>
       <r>   -0.3150    1.0000 </r>
       <r>    0.9720    1.0000 </r>
       <r>    2.4129    1.0000 </r>
       <r>    2.4784    1.0000 </r>
       <r>    3.2866    1.0000 </r>
       <r>    3.9243    1.0000 </r>
       <r>    3.9714    1.0000 </r>
       <r>    4.0407    1.0000 </r>
       <r>    4.1262    1.0000 </r>
       <r>    4.5501    1.0000 </r>
       <r>    5.3074    1.0000 </r>
       <r>    5.4236    1.0000 </r>
       <r>    6.0652    1.0000 </r>
       <r>    6.0764    1.0000 </r>
       <r>    6.1503    1.0000 </r>
       <r>    6.3072    1.0000 </r>
       <r>    6.4061    1.0000 </r>
       <r>    7.2262    1.0000 </r>
       <r>    7.4538    0.0738 </r>
       <r>    7.5257    0.0000 </r>
       <r>    7.7395    0.0000 </r>
       <r>    7.9532    0.0000 </r>
       <r>    8.1203    0.0000 </r>
       <r>    8.3963    0.0000 </r>
       <r>    8.5492    0.0000 </r>
       <r>    8.8451    0.0000 </r>
       <r>    9.2125    0.0000 </r>
       <r>    9.4087    0.0000 </r>
      </set>
      <set comment="kpoint 10">
       <r>  -55.6581    1.0000 </r>
       <r>  -55.6580    1.0000 </r>
       <r>  -54.9711    1.0000 </r>
       <r>  -54.9697    1.0000 </r>
       <r>  -29.2026    1.0000 </r>
       <r>  -29.1989    1.0000 </r>
       <r>  -28.9741    1.0000 </r>
       <r>  -28.9738    1.0000 </r>
       <r>  -28.9729    1.0000 </r>
       <r>  -28.9717    1.0000 </r>
       <r>  -28.6392    1.0000 </r>
       <r>  -28.6324    1.0000 </r>
       <r>  -28.6136    1.0000 </r>
       <r>  -28.6103    1.0000 </r>
       <r>  -28.3364    1.0000 </r>
       <r>  -28.3283    1.0000 </r>
       <r>   -4.8893    1.0000 </r>
       <r>   -2.1230    1.0000 </r>
       <r>   -1.5225    1.0000 </r>
       <r>   -0.6788    1.0000 </r>
       <r>   -0.6558    1.0000 </r>
       <r>    1.4192    1.0000 </r>
       <r>    2.3165    1.0000 </r>
       <r>    2.4673    1.0000 </r>
       <r>    3.0526    1.0000 </r>
       <r>    3.5214    1.0000 </r>
       <r>    3.7204    1.0000 </r>
       <r>    3.8899    1.0000 </r>
       <r>    3.9166    1.0000 </r>
       <r>    4.8800    1.0000 </r>
       <r>    5.3072    1.0000 </r>
       <r>    5.6158    1.0000 </r>
       <r>    5.7891    1.0000 </r>
       <r>    5.8895    1.0000 </r>
       <r>    6.1643    1.0000 </r>
       <r>    6.4062    1.0000 </r>
       <r>    6.8869    1.0000 </r>
       <r>    7.2850    1.0000 </r>
       <r>    7.5493    0.0000 </r>
       <r>    7.5569    0.0000 </r>
       <r>    7.7980    0.0000 </r>
       <r>    7.8345    0.0000 </r>
       <r>    8.0897    0.0000 </r>
       <r>    8.1736    0.0000 </r>
       <r>    8.6906    0.0000 </r>
       <r>    8.8611    0.0000 </r>
       <r>    9.4291    0.0000 </r>
       <r>    9.8478    0.0000 </r>
      </set>
      <set comment="kpoint 11">
       <r>  -55.6581    1.0000 </r>
       <r>  -55.6580    1.0000 </r>
       <r>  -54.9706    1.0000 </r>
       <r>  -54.9701    1.0000 </r>
       <r>  -29.2020    1.0000 </r>
       <r>  -29.2003    1.0000 </r>
       <r>  -28.9746    1.0000 </r>
       <r>  -28.9741    1.0000 </r>
       <r>  -28.9738    1.0000 </r>
       <r>  -28.9700    1.0000 </r>
       <r>  -28.6361    1.0000 </r>
       <r>  -28.6340    1.0000 </r>
       <r>  -28.6166    1.0000 </r>
       <r>  -28.6084    1.0000 </r>
       <r>  -28.3333    1.0000 </r>
       <r>  -28.3314    1.0000 </r>
       <r>   -3.9924    1.0000 </r>
       <r>   -3.1951    1.0000 </r>
       <r>   -2.0464    1.0000 </r>
       <r>   -1.2975    1.0000 </r>
       <r>    0.1990    1.0000 </r>
       <r>    1.5719    1.0000 </r>
       <r>    1.7584    1.0000 </r>
       <r>    2.8788    1.0000 </r>
       <r>    3.1321    1.0000 </r>
       <r>    3.6494    1.0000 </r>
       <r>    3.9912    1.0000 </r>
       <r>    4.0146    1.0000 </r>
       <r>    4.3408    1.0000 </r>
       <r>    4.6563    1.0000 </r>
       <r>    4.7884    1.0000 </r>
       <r>    5.7938    1.0000 </r>
       <r>    6.2657    1.0000 </r>
       <r>    6.3065    1.0000 </r>
       <r>    6.3788    1.0000 </r>
       <r>    6.4326    1.0000 </r>
       <r>    6.4812    1.0000 </r>
       <r>    6.9342    1.0000 </r>
       <r>    7.1668    1.0000 </r>
       <r>    7.4872    0.0001 </r>
       <r>    7.5599    0.0000 </r>
       <r>    7.9259    0.0000 </r>
       <r>    8.2704    0.0000 </r>
       <r>    8.5336    0.0000 </r>
       <r>    8.5806    0.0000 </r>
       <r>    8.7474    0.0000 </r>
       <r>    8.9859    0.0000 </r>
       <r>    9.3500    0.0000 </r>
      </set>
      <set comment="kpoint 12">
       <r>  -55.6581    1.0000 </r>
       <r>  -55.6580    1.0000 </r>
       <r>  -54.9704    1.0000 </r>
       <r>  -54.9704    1.0000 </r>
       <r>  -29.2032    1.0000 </r>
       <r>  -29.1994    1.0000 </r>
       <r>  -28.9747    1.0000 </r>
       <r>  -28.9744    1.0000 </r>
       <r>  -28.9733    1.0000 </r>
       <r>  -28.9696    1.0000 </r>
       <r>  -28.6370    1.0000 </r>
       <r>  -28.6340    1.0000 </r>
       <r>  -28.6155    1.0000 </r>
       <r>  -28.6090    1.0000 </r>
       <r>  -28.3347    1.0000 </r>
       <r>  -28.3298    1.0000 </r>
       <r>   -3.6340    1.0000 </r>
       <r>   -3.4749    1.0000 </r>
       <r>   -2.0802    1.0000 </r>
       <r>   -1.6844    1.0000 </r>
       <r>    0.7144    1.0000 </r>
       <r>    1.0730    1.0000 </r>
       <r>    2.3021    1.0000 </r>
       <r>    2.6150    1.0000 </r>
       <r>    3.0091    1.0000 </r>
       <r>    3.6956    1.0000 </r>
       <r>    3.9747    1.0000 </r>
       <r>    4.0835    1.0000 </r>
       <r>    4.5775    1.0000 </r>
       <r>    4.6405    1.0000 </r>
       <r>    5.2036    1.0000 </r>
       <r>    5.6847    1.0000 </r>
       <r>    5.7410    1.0000 </r>
       <r>    6.2340    1.0000 </r>
       <r>    6.2784    1.0000 </r>
       <r>    6.5450    1.0000 </r>
       <r>    6.7019    1.0000 </r>
       <r>    6.8480    1.0000 </r>
       <r>    7.1802    1.0000 </r>
       <r>    7.2776    1.0000 </r>
       <r>    7.7981    0.0000 </r>
       <r>    7.8838    0.0000 </r>
       <r>    8.4366    0.0000 </r>
       <r>    8.4668    0.0000 </r>
       <r>    8.6812    0.0000 </r>
       <r>    8.8300    0.0000 </r>
       <r>    9.0504    0.0000 </r>
       <r>    9.1701    0.0000 </r>
      </set>
      <set comment="kpoint 13">
       <r>  -55.6581    1.0000 </r>
       <r>  -55.6580    1.0000 </r>
       <r>  -54.9706    1.0000 </r>
       <r>  -54.9702    1.0000 </r>
       <r>  -29.2038    1.0000 </r>
       <r>  -29.1987    1.0000 </r>
       <r>  -28.9746    1.0000 </r>
       <r>  -28.9744    1.0000 </r>
       <r>  -28.9730    1.0000 </r>
       <r>  -28.9698    1.0000 </r>
       <r>  -28.6381    1.0000 </r>
       <r>  -28.6330    1.0000 </r>
       <r>  -28.6143    1.0000 </r>
       <r>  -28.6104    1.0000 </r>
       <r>  -28.3357    1.0000 </r>
       <r>  -28.3288    1.0000 </r>
       <r>   -4.1052    1.0000 </r>
       <r>   -2.9020    1.0000 </r>
       <r>   -1.9775    1.0000 </r>
       <r>   -1.8147    1.0000 </r>
       <r>    0.6300    1.0000 </r>
       <r>    1.1973    1.0000 </r>
       <r>    2.1152    1.0000 </r>
       <r>    2.4431    1.0000 </r>
       <r>    3.1077    1.0000 </r>
       <r>    3.8991    1.0000 </r>
       <r>    3.9666    1.0000 </r>
       <r>    4.4136    1.0000 </r>
       <r>    4.4536    1.0000 </r>
       <r>    4.9702    1.0000 </r>
       <r>    5.2539    1.0000 </r>
       <r>    5.4334    1.0000 </r>
       <r>    5.5921    1.0000 </r>
       <r>    6.0187    1.0000 </r>
       <r>    6.0928    1.0000 </r>
       <r>    6.3305    1.0000 </r>
       <r>    6.5621    1.0000 </r>
       <r>    7.1995    1.0000 </r>
       <r>    7.2174    1.0000 </r>
       <r>    7.3415    1.0000 </r>
       <r>    7.7683    0.0000 </r>
       <r>    8.1057    0.0000 </r>
       <r>    8.4080    0.0000 </r>
       <r>    8.4472    0.0000 </r>
       <r>    8.5832    0.0000 </r>
       <r>    8.9564    0.0000 </r>
       <r>    9.0665    0.0000 </r>
       <r>    9.0954    0.0000 </r>
      </set>
      <set comment="kpoint 14">
       <r>  -55.6581    1.0000 </r>
       <r>  -55.6580    1.0000 </r>
       <r>  -54.9708    1.0000 </r>
       <r>  -54.9700    1.0000 </r>
       <r>  -29.2036    1.0000 </r>
       <r>  -29.1986    1.0000 </r>
       <r>  -28.9745    1.0000 </r>
       <r>  -28.9739    1.0000 </r>
       <r>  -28.9732    1.0000 </r>
       <r>  -28.9703    1.0000 </r>
       <r>  -28.6387    1.0000 </r>
       <r>  -28.6316    1.0000 </r>
       <r>  -28.6138    1.0000 </r>
       <r>  -28.6117    1.0000 </r>
       <r>  -28.3362    1.0000 </r>
       <r>  -28.3284    1.0000 </r>
       <r>   -4.4597    1.0000 </r>
       <r>   -2.4687    1.0000 </r>
       <r>   -2.0560    1.0000 </r>
       <r>   -1.3930    1.0000 </r>
       <r>    0.1990    1.0000 </r>
       <r>    1.4379    1.0000 </r>
       <r>    2.0525    1.0000 </r>
       <r>    2.1223    1.0000 </r>
       <r>    3.2265    1.0000 </r>
       <r>    3.9920    1.0000 </r>
       <r>    4.1103    1.0000 </r>
       <r>    4.2255    1.0000 </r>
       <r>    4.6926    1.0000 </r>
       <r>    4.7827    1.0000 </r>
       <r>    5.2564    1.0000 </r>
       <r>    5.5903    1.0000 </r>
       <r>    5.6649    1.0000 </r>
       <r>    5.9022    1.0000 </r>
       <r>    6.0541    1.0000 </r>
       <r>    6.0986    1.0000 </r>
       <r>    6.3219    1.0000 </r>
       <r>    7.2311    1.0000 </r>
       <r>    7.2901    1.0000 </r>
       <r>    7.4866    0.0001 </r>
       <r>    7.8113    0.0000 </r>
       <r>    8.1946    0.0000 </r>
       <r>    8.2176    0.0000 </r>
       <r>    8.3193    0.0000 </r>
       <r>    8.7657    0.0000 </r>
       <r>    8.8255    0.0000 </r>
       <r>    8.9413    0.0000 </r>
       <r>    9.5089    0.0000 </r>
      </set>
      <set comment="kpoint 15">
       <r>  -55.6582    1.0000 </r>
       <r>  -55.6579    1.0000 </r>
       <r>  -54.9705    1.0000 </r>
       <r>  -54.9703    1.0000 </r>
       <r>  -29.2042    1.0000 </r>
       <r>  -29.1986    1.0000 </r>
       <r>  -28.9748    1.0000 </r>
       <r>  -28.9747    1.0000 </r>
       <r>  -28.9728    1.0000 </r>
       <r>  -28.9691    1.0000 </r>
       <r>  -28.6379    1.0000 </r>
       <r>  -28.6351    1.0000 </r>
       <r>  -28.6144    1.0000 </r>
       <r>  -28.6085    1.0000 </r>
       <r>  -28.3357    1.0000 </r>
       <r>  -28.3288    1.0000 </r>
       <r>   -3.6897    1.0000 </r>
       <r>   -3.0236    1.0000 </r>
       <r>   -2.3949    1.0000 </r>
       <r>   -2.1200    1.0000 </r>
       <r>    1.2187    1.0000 </r>
       <r>    1.3870    1.0000 </r>
       <r>    1.9901    1.0000 </r>
       <r>    2.8673    1.0000 </r>
       <r>    2.8712    1.0000 </r>
       <r>    3.1141    1.0000 </r>
       <r>    3.8730    1.0000 </r>
       <r>    4.3980    1.0000 </r>
       <r>    4.6502    1.0000 </r>
       <r>    4.8179    1.0000 </r>
       <r>    4.8779    1.0000 </r>
       <r>    5.6907    1.0000 </r>
       <r>    5.7607    1.0000 </r>
       <r>    6.2617    1.0000 </r>
       <r>    6.4660    1.0000 </r>
       <r>    6.5472    1.0000 </r>
       <r>    6.7598    1.0000 </r>
       <r>    6.9763    1.0000 </r>
       <r>    7.0527    1.0000 </r>
       <r>    7.1910    1.0000 </r>
       <r>    7.7716    0.0000 </r>
       <r>    8.1885    0.0000 </r>
       <r>    8.4120    0.0000 </r>
       <r>    8.6095    0.0000 </r>
       <r>    8.6204    0.0000 </r>
       <r>    8.7858    0.0000 </r>
       <r>    8.9756    0.0000 </r>
       <r>    9.2503    0.0000 </r>
      </set>
      <set comment="kpoint 16">
       <r>  -55.6582    1.0000 </r>
       <r>  -55.6579    1.0000 </r>
       <r>  -54.9706    1.0000 </r>
       <r>  -54.9702    1.0000 </r>
       <r>  -29.2045    1.0000 </r>
       <r>  -29.1984    1.0000 </r>
       <r>  -28.9748    1.0000 </r>
       <r>  -28.9746    1.0000 </r>
       <r>  -28.9727    1.0000 </r>
       <r>  -28.9691    1.0000 </r>
       <r>  -28.6383    1.0000 </r>
       <r>  -28.6347    1.0000 </r>
       <r>  -28.6139    1.0000 </r>
       <r>  -28.6090    1.0000 </r>
       <r>  -28.3360    1.0000 </r>
       <r>  -28.3284    1.0000 </r>
       <r>   -3.8924    1.0000 </r>
       <r>   -2.6453    1.0000 </r>
       <r>   -2.3919    1.0000 </r>
       <r>   -2.2619    1.0000 </r>
       <r>    1.0184    1.0000 </r>
       <r>    1.8767    1.0000 </r>
       <r>    1.9004    1.0000 </r>
       <r>    2.1234    1.0000 </r>
       <r>    3.1733    1.0000 </r>
       <r>    3.4096    1.0000 </r>
       <r>    4.0323    1.0000 </r>
       <r>    4.4213    1.0000 </r>
       <r>    4.5654    1.0000 </r>
       <r>    4.5968    1.0000 </r>
       <r>    5.0199    1.0000 </r>
       <r>    5.8030    1.0000 </r>
       <r>    5.8649    1.0000 </r>
       <r>    6.1314    1.0000 </r>
       <r>    6.1523    1.0000 </r>
       <r>    6.3791    1.0000 </r>
       <r>    6.7501    1.0000 </r>
       <r>    6.9633    1.0000 </r>
       <r>    7.1847    1.0000 </r>
       <r>    7.4786    0.0007 </r>
       <r>    7.5757    0.0000 </r>
       <r>    8.3940    0.0000 </r>
       <r>    8.4389    0.0000 </r>
       <r>    8.5215    0.0000 </r>
       <r>    8.5433    0.0000 </r>
       <r>    8.9265    0.0000 </r>
       <r>    9.0291    0.0000 </r>
       <r>    9.1915    0.0000 </r>
      </set>
      <set comment="kpoint 17">
       <r>  -55.6581    1.0000 </r>
       <r>  -55.6580    1.0000 </r>
       <r>  -54.9711    1.0000 </r>
       <r>  -54.9696    1.0000 </r>
       <r>  -29.2025    1.0000 </r>
       <r>  -29.1989    1.0000 </r>
       <r>  -28.9744    1.0000 </r>
       <r>  -28.9734    1.0000 </r>
       <r>  -28.9725    1.0000 </r>
       <r>  -28.9722    1.0000 </r>
       <r>  -28.6379    1.0000 </r>
       <r>  -28.6341    1.0000 </r>
       <r>  -28.6152    1.0000 </r>
       <r>  -28.6082    1.0000 </r>
       <r>  -28.3364    1.0000 </r>
       <r>  -28.3283    1.0000 </r>
       <r>   -4.9245    1.0000 </r>
       <r>   -2.0699    1.0000 </r>
       <r>   -1.4599    1.0000 </r>
       <r>   -0.7750    1.0000 </r>
       <r>   -0.6059    1.0000 </r>
       <r>    1.4888    1.0000 </r>
       <r>    2.3467    1.0000 </r>
       <r>    2.5083    1.0000 </r>
       <r>    2.9802    1.0000 </r>
       <r>    3.3852    1.0000 </r>
       <r>    3.6737    1.0000 </r>
       <r>    3.8742    1.0000 </r>
       <r>    3.8905    1.0000 </r>
       <r>    4.9010    1.0000 </r>
       <r>    5.2656    1.0000 </r>
       <r>    5.6577    1.0000 </r>
       <r>    5.7519    1.0000 </r>
       <r>    5.8718    1.0000 </r>
       <r>    6.1688    1.0000 </r>
       <r>    6.4550    1.0000 </r>
       <r>    7.0021    1.0000 </r>
       <r>    7.2894    1.0000 </r>
       <r>    7.5713    0.0000 </r>
       <r>    7.5793    0.0000 </r>
       <r>    7.7890    0.0000 </r>
       <r>    7.7960    0.0000 </r>
       <r>    8.0913    0.0000 </r>
       <r>    8.1148    0.0000 </r>
       <r>    8.7843    0.0000 </r>
       <r>    8.8553    0.0000 </r>
       <r>    9.4195    0.0000 </r>
       <r>    9.7756    0.0000 </r>
      </set>
      <set comment="kpoint 18">
       <r>  -55.6581    1.0000 </r>
       <r>  -55.6580    1.0000 </r>
       <r>  -54.9710    1.0000 </r>
       <r>  -54.9698    1.0000 </r>
       <r>  -29.2028    1.0000 </r>
       <r>  -29.1990    1.0000 </r>
       <r>  -28.9748    1.0000 </r>
       <r>  -28.9730    1.0000 </r>
       <r>  -28.9726    1.0000 </r>
       <r>  -28.9720    1.0000 </r>
       <r>  -28.6366    1.0000 </r>
       <r>  -28.6333    1.0000 </r>
       <r>  -28.6167    1.0000 </r>
       <r>  -28.6088    1.0000 </r>
       <r>  -28.3359    1.0000 </r>
       <r>  -28.3287    1.0000 </r>
       <r>   -4.6869    1.0000 </r>
       <r>   -2.5160    1.0000 </r>
       <r>   -1.5224    1.0000 </r>
       <r>   -0.8362    1.0000 </r>
       <r>   -0.4268    1.0000 </r>
       <r>    0.9855    1.0000 </r>
       <r>    2.4562    1.0000 </r>
       <r>    2.4992    1.0000 </r>
       <r>    3.2868    1.0000 </r>
       <r>    3.8329    1.0000 </r>
       <r>    3.9251    1.0000 </r>
       <r>    3.9722    1.0000 </r>
       <r>    4.0555    1.0000 </r>
       <r>    4.5563    1.0000 </r>
       <r>    5.3568    1.0000 </r>
       <r>    5.4067    1.0000 </r>
       <r>    6.0392    1.0000 </r>
       <r>    6.0726    1.0000 </r>
       <r>    6.1586    1.0000 </r>
       <r>    6.3184    1.0000 </r>
       <r>    6.5531    1.0000 </r>
       <r>    7.2288    1.0000 </r>
       <r>    7.4613    0.0239 </r>
       <r>    7.5566    0.0000 </r>
       <r>    7.7342    0.0000 </r>
       <r>    7.9243    0.0000 </r>
       <r>    8.1002    0.0000 </r>
       <r>    8.4380    0.0000 </r>
       <r>    8.4823    0.0000 </r>
       <r>    8.8452    0.0000 </r>
       <r>    9.2074    0.0000 </r>
       <r>    9.4056    0.0000 </r>
      </set>
      <set comment="kpoint 19">
       <r>  -55.6581    1.0000 </r>
       <r>  -55.6580    1.0000 </r>
       <r>  -54.9707    1.0000 </r>
       <r>  -54.9701    1.0000 </r>
       <r>  -29.2026    1.0000 </r>
       <r>  -29.1995    1.0000 </r>
       <r>  -28.9751    1.0000 </r>
       <r>  -28.9728    1.0000 </r>
       <r>  -28.9727    1.0000 </r>
       <r>  -28.9719    1.0000 </r>
       <r>  -28.6363    1.0000 </r>
       <r>  -28.6320    1.0000 </r>
[...]
       <r>  -54.9698    1.0000 </r>
       <r>  -29.2032    1.0000 </r>
       <r>  -29.1982    1.0000 </r>
       <r>  -28.9781    1.0000 </r>
       <r>  -28.9767    1.0000 </r>
       <r>  -28.9712    1.0000 </r>
       <r>  -28.9693    1.0000 </r>
       <r>  -28.6376    1.0000 </r>
       <r>  -28.6330    1.0000 </r>
       <r>  -28.6141    1.0000 </r>
       <r>  -28.6083    1.0000 </r>
       <r>  -28.3366    1.0000 </r>
       <r>  -28.3286    1.0000 </r>
       <r>   -4.2218    1.0000 </r>
       <r>   -3.0546    1.0000 </r>
       <r>   -1.2167    1.0000 </r>
       <r>   -1.0023    1.0000 </r>
       <r>   -0.1949    1.0000 </r>
       <r>    1.6024    1.0000 </r>
       <r>    1.6237    1.0000 </r>
       <r>    1.7605    1.0000 </r>
       <r>    2.3036    1.0000 </r>
       <r>    3.5901    1.0000 </r>
       <r>    3.8538    1.0000 </r>
       <r>    4.1655    1.0000 </r>
       <r>    4.1842    1.0000 </r>
       <r>    5.0139    1.0000 </r>
       <r>    5.1361    1.0000 </r>
       <r>    5.3837    1.0000 </r>
       <r>    5.5169    1.0000 </r>
       <r>    6.0810    1.0000 </r>
       <r>    6.1261    1.0000 </r>
       <r>    6.2621    1.0000 </r>
       <r>    6.8466    1.0000 </r>
       <r>    7.1062    1.0000 </r>
       <r>    7.6615    0.0000 </r>
       <r>    7.9401    0.0000 </r>
       <r>    8.0089    0.0000 </r>
       <r>    8.2355    0.0000 </r>
       <r>    8.7497    0.0000 </r>
       <r>    8.8652    0.0000 </r>
       <r>    8.9156    0.0000 </r>
       <r>    8.9331    0.0000 </r>
       <r>    9.7506    0.0000 </r>
       <r>    9.7727    0.0000 </r>
      </set>
      <set comment="kpoint 116">
       <r>  -55.6582    1.0000 </r>
       <r>  -55.6579    1.0000 </r>
       <r>  -54.9710    1.0000 </r>
       <r>  -54.9698    1.0000 </r>
       <r>  -29.2034    1.0000 </r>
       <r>  -29.1980    1.0000 </r>
       <r>  -28.9785    1.0000 </r>
       <r>  -28.9768    1.0000 </r>
       <r>  -28.9708    1.0000 </r>
       <r>  -28.9694    1.0000 </r>
       <r>  -28.6380    1.0000 </r>
       <r>  -28.6324    1.0000 </r>
       <r>  -28.6137    1.0000 </r>
       <r>  -28.6088    1.0000 </r>
       <r>  -28.3370    1.0000 </r>
       <r>  -28.3282    1.0000 </r>
       <r>   -4.1705    1.0000 </r>
       <r>   -3.0996    1.0000 </r>
       <r>   -1.2114    1.0000 </r>
       <r>   -0.9994    1.0000 </r>
       <r>   -0.1767    1.0000 </r>
       <r>    1.5913    1.0000 </r>
       <r>    1.5939    1.0000 </r>
       <r>    1.6288    1.0000 </r>
       <r>    2.2826    1.0000 </r>
       <r>    3.5897    1.0000 </r>
       <r>    4.1107    1.0000 </r>
       <r>    4.1960    1.0000 </r>
       <r>    4.2094    1.0000 </r>
       <r>    4.8191    1.0000 </r>
       <r>    4.9534    1.0000 </r>
       <r>    5.4697    1.0000 </r>
       <r>    5.5410    1.0000 </r>
       <r>    6.0684    1.0000 </r>
       <r>    6.1198    1.0000 </r>
       <r>    6.2555    1.0000 </r>
       <r>    6.8266    1.0000 </r>
       <r>    7.1949    1.0000 </r>
       <r>    7.6336    0.0000 </r>
       <r>    7.9506    0.0000 </r>
       <r>    8.0405    0.0000 </r>
       <r>    8.2671    0.0000 </r>
       <r>    8.7921    0.0000 </r>
       <r>    8.8806    0.0000 </r>
       <r>    8.9350    0.0000 </r>
       <r>    8.9541    0.0000 </r>
       <r>    9.6749    0.0000 </r>
       <r>    9.6791    0.0000 </r>
      </set>
     </set>
    </set>
   </array>
  </eigenvalues>
  <separator name="orbital magnetization" >
   <v name="MAGDIPOLOUT">      0.00000000      0.00000000      0.00000000</v>
  </separator>
  <dos>
   <i name="efermi">      7.43329388 </i>
   <total>
    <array>
     <dimension dim="1">gridpoints</dimension>
     <dimension dim="2">spin</dimension>
     <field>energy</field>
     <field>total</field>
     <field>integrated</field>
     <set>
      <set comment="spin 1">
       <r>   -58.9528     0.0000     0.0000 </r>
       <r>   -58.7112     0.0000     0.0000 </r>
       <r>   -58.4696     0.0000     0.0000 </r>
       <r>   -58.2280     0.0000     0.0000 </r>
       <r>   -57.9864     0.0000     0.0000 </r>
       <r>   -57.7448     0.0000     0.0000 </r>
       <r>   -57.5032     0.0000     0.0000 </r>
       <r>   -57.2616     0.0000     0.0000 </r>
       <r>   -57.0200     0.0000     0.0000 </r>
       <r>   -56.7784     0.0000     0.0000 </r>
       <r>   -56.5368     0.0000     0.0000 </r>
       <r>   -56.2952     0.0000     0.0000 </r>
       <r>   -56.0536     0.0000     0.0000 </r>
       <r>   -55.8120     0.0000     0.0000 </r>
       <r>   -55.5704    16.5563     4.0000 </r>
       <r>   -55.3288     0.0000     4.0000 </r>
       <r>   -55.0872     0.0000     4.0000 </r>
       <r>   -54.8456    16.5563     8.0000 </r>
       <r>   -54.6040     0.0000     8.0000 </r>
       <r>   -54.3624     0.0000     8.0000 </r>
       <r>   -54.1208     0.0000     8.0000 </r>
       <r>   -53.8792     0.0000     8.0000 </r>
       <r>   -53.6376     0.0000     8.0000 </r>
       <r>   -53.3960     0.0000     8.0000 </r>
       <r>   -53.1544     0.0000     8.0000 </r>
       <r>   -52.9128     0.0000     8.0000 </r>
       <r>   -52.6712     0.0000     8.0000 </r>
       <r>   -52.4296     0.0000     8.0000 </r>
       <r>   -52.1880     0.0000     8.0000 </r>
       <r>   -51.9464     0.0000     8.0000 </r>
       <r>   -51.7048     0.0000     8.0000 </r>
       <r>   -51.4632     0.0000     8.0000 </r>
       <r>   -51.2216     0.0000     8.0000 </r>
       <r>   -50.9800     0.0000     8.0000 </r>
       <r>   -50.7384     0.0000     8.0000 </r>
       <r>   -50.4968     0.0000     8.0000 </r>
       <r>   -50.2552     0.0000     8.0000 </r>
       <r>   -50.0136     0.0000     8.0000 </r>
       <r>   -49.7720     0.0000     8.0000 </r>
       <r>   -49.5304     0.0000     8.0000 </r>
       <r>   -49.2888     0.0000     8.0000 </r>
       <r>   -49.0472     0.0000     8.0000 </r>
       <r>   -48.8056     0.0000     8.0000 </r>
       <r>   -48.5640     0.0000     8.0000 </r>
       <r>   -48.3224     0.0000     8.0000 </r>
       <r>   -48.0808     0.0000     8.0000 </r>
       <r>   -47.8392     0.0000     8.0000 </r>
       <r>   -47.5976     0.0000     8.0000 </r>
       <r>   -47.3560     0.0000     8.0000 </r>
       <r>   -47.1144     0.0000     8.0000 </r>
       <r>   -46.8728     0.0000     8.0000 </r>
       <r>   -46.6312     0.0000     8.0000 </r>
       <r>   -46.3896     0.0000     8.0000 </r>
       <r>   -46.1480     0.0000     8.0000 </r>
       <r>   -45.9064     0.0000     8.0000 </r>
       <r>   -45.6648     0.0000     8.0000 </r>
       <r>   -45.4232     0.0000     8.0000 </r>
       <r>   -45.1816     0.0000     8.0000 </r>
       <r>   -44.9400     0.0000     8.0000 </r>
       <r>   -44.6984     0.0000     8.0000 </r>
       <r>   -44.4568     0.0000     8.0000 </r>
       <r>   -44.2152     0.0000     8.0000 </r>
       <r>   -43.9736     0.0000     8.0000 </r>
       <r>   -43.7320     0.0000     8.0000 </r>
       <r>   -43.4904     0.0000     8.0000 </r>
       <r>   -43.2488     0.0000     8.0000 </r>
       <r>   -43.0072     0.0000     8.0000 </r>
       <r>   -42.7656     0.0000     8.0000 </r>
       <r>   -42.5240     0.0000     8.0000 </r>
       <r>   -42.2824     0.0000     8.0000 </r>
       <r>   -42.0408     0.0000     8.0000 </r>
       <r>   -41.7992     0.0000     8.0000 </r>
       <r>   -41.5576     0.0000     8.0000 </r>
       <r>   -41.3160     0.0000     8.0000 </r>
       <r>   -41.0744     0.0000     8.0000 </r>
       <r>   -40.8328     0.0000     8.0000 </r>
       <r>   -40.5912     0.0000     8.0000 </r>
       <r>   -40.3496     0.0000     8.0000 </r>
       <r>   -40.1080     0.0000     8.0000 </r>
       <r>   -39.8664     0.0000     8.0000 </r>
       <r>   -39.6248     0.0000     8.0000 </r>
       <r>   -39.3832     0.0000     8.0000 </r>
       <r>   -39.1416     0.0000     8.0000 </r>
       <r>   -38.9000     0.0000     8.0000 </r>
       <r>   -38.6584     0.0000     8.0000 </r>
       <r>   -38.4168     0.0000     8.0000 </r>
       <r>   -38.1752     0.0000     8.0000 </r>
       <r>   -37.9336     0.0000     8.0000 </r>
       <r>   -37.6920     0.0000     8.0000 </r>
       <r>   -37.4504     0.0000     8.0000 </r>
       <r>   -37.2088     0.0000     8.0000 </r>
       <r>   -36.9672     0.0000     8.0000 </r>
       <r>   -36.7256     0.0000     8.0000 </r>
       <r>   -36.4840     0.0000     8.0000 </r>
       <r>   -36.2424     0.0000     8.0000 </r>
       <r>   -36.0008     0.0000     8.0000 </r>
       <r>   -35.7592     0.0000     8.0000 </r>
       <r>   -35.5176     0.0000     8.0000 </r>
       <r>   -35.2760     0.0000     8.0000 </r>
       <r>   -35.0344     0.0000     8.0000 </r>
       <r>   -34.7928     0.0000     8.0000 </r>
       <r>   -34.5512     0.0000     8.0000 </r>
       <r>   -34.3096     0.0000     8.0000 </r>
       <r>   -34.0680     0.0000     8.0000 </r>
       <r>   -33.8264     0.0000     8.0000 </r>
       <r>   -33.5848     0.0000     8.0000 </r>
       <r>   -33.3432     0.0000     8.0000 </r>
       <r>   -33.1016     0.0000     8.0000 </r>
       <r>   -32.8600     0.0000     8.0000 </r>
       <r>   -32.6184     0.0000     8.0000 </r>
       <r>   -32.3768     0.0000     8.0000 </r>
       <r>   -32.1352     0.0000     8.0000 </r>
       <r>   -31.8936     0.0000     8.0000 </r>
       <r>   -31.6520     0.0000     8.0000 </r>
       <r>   -31.4103     0.0000     8.0000 </r>
       <r>   -31.1687     0.0000     8.0000 </r>
       <r>   -30.9271     0.0000     8.0000 </r>
       <r>   -30.6855     0.0000     8.0000 </r>
       <r>   -30.4439     0.0000     8.0000 </r>
       <r>   -30.2023     0.0000     8.0000 </r>
       <r>   -29.9607     0.0000     8.0000 </r>
       <r>   -29.7191     0.0000     8.0000 </r>
       <r>   -29.4775     0.0000     8.0000 </r>
       <r>   -29.2359     0.1193     8.0288 </r>
       <r>   -28.9943     2.2884    12.5529 </r>
       <r>   -28.7527     0.0000    20.0000 </r>
       <r>   -28.5111    33.1125    28.0000 </r>
       <r>   -28.2695    16.5562    32.0000 </r>
       <r>   -28.0279     0.0000    32.0000 </r>
       <r>   -27.7863     0.0000    32.0000 </r>
       <r>   -27.5447     0.0000    32.0000 </r>
       <r>   -27.3031     0.0000    32.0000 </r>
       <r>   -27.0615     0.0000    32.0000 </r>
       <r>   -26.8199     0.0000    32.0000 </r>
       <r>   -26.5783     0.0000    32.0000 </r>
       <r>   -26.3367     0.0000    32.0000 </r>
       <r>   -26.0951     0.0000    32.0000 </r>
       <r>   -25.8535     0.0000    32.0000 </r>
       <r>   -25.6119     0.0000    32.0000 </r>
       <r>   -25.3703     0.0000    32.0000 </r>
       <r>   -25.1287     0.0000    32.0000 </r>
       <r>   -24.8871     0.0000    32.0000 </r>
       <r>   -24.6455     0.0000    32.0000 </r>
       <r>   -24.4039     0.0000    32.0000 </r>
       <r>   -24.1623     0.0000    32.0000 </r>
       <r>   -23.9207     0.0000    32.0000 </r>
       <r>   -23.6791     0.0000    32.0000 </r>
       <r>   -23.4375     0.0000    32.0000 </r>
       <r>   -23.1959     0.0000    32.0000 </r>
       <r>   -22.9543     0.0000    32.0000 </r>
       <r>   -22.7127     0.0000    32.0000 </r>
       <r>   -22.4711     0.0000    32.0000 </r>
       <r>   -22.2295     0.0000    32.0000 </r>
       <r>   -21.9879     0.0000    32.0000 </r>
       <r>   -21.7463     0.0000    32.0000 </r>
       <r>   -21.5047     0.0000    32.0000 </r>
       <r>   -21.2631     0.0000    32.0000 </r>
       <r>   -21.0215     0.0000    32.0000 </r>
       <r>   -20.7799     0.0000    32.0000 </r>
       <r>   -20.5383     0.0000    32.0000 </r>
       <r>   -20.2967     0.0000    32.0000 </r>
       <r>   -20.0551     0.0000    32.0000 </r>
       <r>   -19.8135     0.0000    32.0000 </r>
       <r>   -19.5719     0.0000    32.0000 </r>
       <r>   -19.3303     0.0000    32.0000 </r>
       <r>   -19.0887     0.0000    32.0000 </r>
       <r>   -18.8471     0.0000    32.0000 </r>
       <r>   -18.6055     0.0000    32.0000 </r>
       <r>   -18.3639     0.0000    32.0000 </r>
       <r>   -18.1223     0.0000    32.0000 </r>
       <r>   -17.8807     0.0000    32.0000 </r>
       <r>   -17.6391     0.0000    32.0000 </r>
       <r>   -17.3975     0.0000    32.0000 </r>
       <r>   -17.1559     0.0000    32.0000 </r>
       <r>   -16.9143     0.0000    32.0000 </r>
       <r>   -16.6727     0.0000    32.0000 </r>
       <r>   -16.4311     0.0000    32.0000 </r>
       <r>   -16.1895     0.0000    32.0000 </r>
       <r>   -15.9479     0.0000    32.0000 </r>
       <r>   -15.7063     0.0000    32.0000 </r>
       <r>   -15.4647     0.0000    32.0000 </r>
       <r>   -15.2231     0.0000    32.0000 </r>
       <r>   -14.9815     0.0000    32.0000 </r>
       <r>   -14.7399     0.0000    32.0000 </r>
       <r>   -14.4983     0.0000    32.0000 </r>
       <r>   -14.2567     0.0000    32.0000 </r>
       <r>   -14.0151     0.0000    32.0000 </r>
       <r>   -13.7735     0.0000    32.0000 </r>
       <r>   -13.5319     0.0000    32.0000 </r>
       <r>   -13.2903     0.0000    32.0000 </r>
       <r>   -13.0487     0.0000    32.0000 </r>
       <r>   -12.8071     0.0000    32.0000 </r>
       <r>   -12.5655     0.0000    32.0000 </r>
       <r>   -12.3239     0.0000    32.0000 </r>
       <r>   -12.0823     0.0000    32.0000 </r>
       <r>   -11.8407     0.0000    32.0000 </r>
       <r>   -11.5991     0.0000    32.0000 </r>
       <r>   -11.3575     0.0000    32.0000 </r>
       <r>   -11.1159     0.0000    32.0000 </r>
       <r>   -10.8743     0.0000    32.0000 </r>
       <r>   -10.6327     0.0000    32.0000 </r>
       <r>   -10.3911     0.0000    32.0000 </r>
       <r>   -10.1495     0.0000    32.0000 </r>
       <r>    -9.9079     0.0000    32.0000 </r>
       <r>    -9.6663     0.0000    32.0000 </r>
       <r>    -9.4247     0.0000    32.0000 </r>
       <r>    -9.1831     0.0000    32.0000 </r>
       <r>    -8.9415     0.0000    32.0000 </r>
       <r>    -8.6999     0.0000    32.0000 </r>
       <r>    -8.4583     0.0000    32.0000 </r>
       <r>    -8.2167     0.0000    32.0000 </r>
       <r>    -7.9751     0.0000    32.0000 </r>
       <r>    -7.7335     0.0000    32.0000 </r>
       <r>    -7.4919     0.0000    32.0000 </r>
       <r>    -7.2503     0.0000    32.0000 </r>
       <r>    -7.0087     0.0000    32.0000 </r>
       <r>    -6.7671     0.0000    32.0000 </r>
       <r>    -6.5255     0.0000    32.0000 </r>
       <r>    -6.2839     0.0000    32.0000 </r>
       <r>    -6.0423     0.0000    32.0000 </r>
       <r>    -5.8007     0.0000    32.0000 </r>
       <r>    -5.5591     0.0000    32.0000 </r>
       <r>    -5.3175     0.0000    32.0000 </r>
       <r>    -5.0759     0.0001    32.0000 </r>
       <r>    -4.8343     0.3047    32.0787 </r>
       <r>    -4.5927     0.6837    32.3029 </r>
       <r>    -4.3511     0.9684    32.5962 </r>
       <r>    -4.1095     1.0002    32.9202 </r>
       <r>    -3.8679     1.4802    33.4648 </r>
       <r>    -3.6263     1.4863    33.9968 </r>
       <r>    -3.3847     1.4769    34.5609 </r>
       <r>    -3.1431     1.2636    35.0196 </r>
       <r>    -2.9015     1.2018    35.4434 </r>
       <r>    -2.6599     0.5602    35.6659 </r>
       <r>    -2.4183     0.7127    35.9120 </r>
       <r>    -2.1767     0.8812    36.2486 </r>
       <r>    -1.9351     1.0928    36.6977 </r>
       <r>    -1.6935     1.2506    37.1440 </r>
       <r>    -1.4519     1.4056    37.6865 </r>
       <r>    -1.2103     2.0338    38.3587 </r>
       <r>    -0.9687     1.8744    39.1365 </r>
       <r>    -0.7271     2.3109    39.8849 </r>
       <r>    -0.4855     1.6905    40.4390 </r>
       <r>    -0.2439     1.3104    40.9442 </r>
       <r>    -0.0023     0.8995    41.2122 </r>
       <r>     0.2393     1.0992    41.5972 </r>
       <r>     0.4809     0.8147    41.8550 </r>
       <r>     0.7225     1.3944    42.3216 </r>
       <r>     0.9641     0.4945    42.5532 </r>
       <r>     1.2057     1.3762    43.1539 </r>
       <r>     1.4473     1.2926    43.5980 </r>
       <r>     1.6889     1.0764    44.0049 </r>
       <r>     1.9305     1.4449    44.5124 </r>
       <r>     2.1721     1.9327    45.1812 </r>
       <r>     2.4137     2.5166    45.9499 </r>
       <r>     2.6553     2.2662    46.7618 </r>
       <r>     2.8969     2.8685    47.6828 </r>
       <r>     3.1385     3.3368    48.8980 </r>
       <r>     3.3801     2.4484    49.9793 </r>
       <r>     3.6217     3.6140    51.1895 </r>
       <r>     3.8633     2.4527    52.2405 </r>
       <r>     4.1049     9.6979    55.2257 </r>
       <r>     4.3465     4.2356    56.9009 </r>
       <r>     4.5881     4.9068    58.6294 </r>
       <r>     4.8297     3.8232    60.1890 </r>
       <r>     5.0713     2.3468    61.1435 </r>
       <r>     5.3129     3.3793    62.2858 </r>
       <r>     5.5545     2.6882    63.2617 </r>
       <r>     5.7961     3.0819    64.3007 </r>
       <r>     6.0377     2.8948    65.3014 </r>
       <r>     6.2793    11.3045    68.9301 </r>
       <r>     6.5209     6.2564    71.5677 </r>
       <r>     6.7625     4.3977    73.5778 </r>
       <r>     7.0041     3.9445    74.9581 </r>
       <r>     7.2457     5.3599    76.8970 </r>
       <r>     7.4873     4.4276    78.5034 </r>
       <r>     7.7289     5.6355    80.4381 </r>
       <r>     7.9705     5.2384    83.0054 </r>
       <r>     8.2121     4.4256    84.5284 </r>
       <r>     8.4537     6.5160    86.4671 </r>
       <r>     8.6953     7.7908    89.1731 </r>
       <r>     8.9369     8.4796    92.1252 </r>
       <r>     9.1785     4.5833    93.8267 </r>
       <r>     9.4201     2.4668    94.9684 </r>
       <r>     9.6617     1.2265    95.4290 </r>
       <r>     9.9033     0.9219    95.7635 </r>
       <r>    10.1449     0.3378    95.9796 </r>
       <r>    10.3865     0.0845    96.0000 </r>
       <r>    10.6281     0.0000    96.0000 </r>
       <r>    10.8697     0.0000    96.0000 </r>
       <r>    11.1113     0.0000    96.0000 </r>
       <r>    11.3529     0.0000    96.0000 </r>
       <r>    11.5945     0.0000    96.0000 </r>
       <r>    11.8361     0.0000    96.0000 </r>
       <r>    12.0777     0.0000    96.0000 </r>
       <r>    12.3193     0.0000    96.0000 </r>
       <r>    12.5609     0.0000    96.0000 </r>
       <r>    12.8025     0.0000    96.0000 </r>
       <r>    13.0441     0.0000    96.0000 </r>
       <r>    13.2857     0.0000    96.0000 </r>
       <r>    13.5273     0.0000    96.0000 </r>
      </set>
     </set>
    </array>
   </total>
  </dos>
 </calculation>
 <structure name="finalpos" >
  <crystal>
   <varray name="basis" >
    <v>       5.48846730       0.00000000      -2.86198702 </v>
    <v>      -2.01780536       5.10409001      -2.86198702 </v>
    <v>       0.00000000       0.00000000       6.18985000 </v>
   </varray>
   <i name="volume">    173.40017454 </i>
   <varray name="rec_basis" >
    <v>       0.18220023       0.07202941       0.00000000 </v>
    <v>       0.00000000       0.19592131       0.00000000 </v>
    <v>       0.08424351       0.12389177       0.16155480 </v>
   </varray>
  </crystal>
  <varray name="positions" >
   <v>       0.00000000       0.00000000       0.00000000 </v>
   <v>       0.50000000       0.50000000       0.00000000 </v>
   <v>       0.50000000       0.00000000       0.50000000 </v>
   <v>       0.25000000       0.25000000       0.00000000 </v>
   <v>       0.75000000       0.75000000       0.00000000 </v>
   <v>       0.00000000       0.50000000       0.50000000 </v>
   <v>       0.74915000       0.24915000       0.99831000 </v>
   <v>       0.25085000       0.75085000       0.00169000 </v>
   <v>       0.24915000       0.25085000       0.50000000 </v>
   <v>       0.75085000       0.74915000       0.50000000 </v>
  </varray>
 </structure>
</modeling>
