<?xml version="1.0" encoding="ISO-8859-1"?>
<modeling>
 <generator>
  <i name="program" type="string">vasp </i>
  <i name="version" type="string">6.2.0  </i>
  <i name="subversion" type="string">18Jan21 (build Jan 05 2022 15:41:44) complex                          parallel </i>
  <i name="platform" type="string">LinuxIFC </i>
  <i name="date" type="string">2025 05 07 </i>
  <i name="time" type="string">14:20:51 </i>
 </generator>
 <incar>
  <i type="string" name="SYSTEM">routine with relax: pwdword</i>
  <i type="string" name="PREC">Acc</i>
  <i type="int" name="IALGO">    38</i>
  <i type="string" name="ALGO">A</i>
  <i type="logical" name="ADDGRID"> T  </i>
  <i type="int" name="ICHARG">     2</i>
  <i type="int" name="NELM">   100</i>
  <i type="int" name="NELMIN">     6</i>
  <i name="EDIFF">      0.00000000</i>
  <i type="int" name="NSW">     0</i>
  <i type="int" name="ISIF">    -1</i>
  <i name="ENCUT">    600.00000000</i>
  <i type="logical" name="LREAL"> F  </i>
  <i type="int" name="ISMEAR">     0</i>
  <i name="SIGMA">      0.02000000</i>
  <i type="logical" name="LASPH"> T  </i>
  <i type="string" name="METAGGA">R2SCAN</i>
  <i type="logical" name="LMIXTAU"> F  </i>
 </incar>
 <primitive_cell>
  <structure name="primitive_cell" >
   <crystal>
    <varray name="basis" >
     <v>       5.64435659       0.00000000      -3.02153267 </v>
     <v>      -2.02485087       5.26865640      -3.02153267 </v>
     <v>       0.00000000       0.00000000       6.40222000 </v>
    </varray>
    <i name="volume">    190.39034155 </i>
    <varray name="rec_basis" >
     <v>       0.17716811       0.06808928       0.00000000 </v>
     <v>       0.00000000       0.18980171       0.00000000 </v>
     <v>       0.08361463       0.12171185       0.15619582 </v>
    </varray>
   </crystal>
   <varray name="positions" >
    <v>       0.00000000       0.00000000       0.50000000 </v>
    <v>       0.00000000       0.50000000       0.00000000 </v>
    <v>       0.50000000       0.50000000       0.50000000 </v>
    <v>       0.50000000       0.00000000       0.00000000 </v>
    <v>       0.00000000       0.50000000       0.50000000 </v>
    <v>       0.25000000       0.25000000       0.00000000 </v>
    <v>       0.75000000       0.75000000       0.00000000 </v>
    <v>       0.50000000       0.00000000       0.50000000 </v>
    <v>       0.24609000       0.74609000       0.99218000 </v>
    <v>       0.75391000       0.25391000       0.00782000 </v>
    <v>       0.74609000       0.75391000       0.50000000 </v>
    <v>       0.25391000       0.24609000       0.50000000 </v>
   </varray>
  </structure>
  <varray name="primitive_index" >
   <v type="int" >        1 </v>
   <v type="int" >        2 </v>
   <v type="int" >        3 </v>
   <v type="int" >        4 </v>
   <v type="int" >        5 </v>
   <v type="int" >        6 </v>
   <v type="int" >        7 </v>
   <v type="int" >        8 </v>
   <v type="int" >        9 </v>
   <v type="int" >       10 </v>
   <v type="int" >       11 </v>
   <v type="int" >       12 </v>
  </varray>
 </primitive_cell>
 <kpoints>
  <generation param="Gamma">
   <v type="int" name="divisions">       7        7        8 </v>
   <v name="usershift">      0.00000000       0.00000000       0.00000000 </v>
   <v name="genvec1">      0.14285714       0.00000000       0.00000000 </v>
   <v name="genvec2">      0.00000000       0.14285714       0.00000000 </v>
   <v name="genvec3">      0.00000000       0.00000000       0.12500000 </v>
   <v name="shift">      0.00000000       0.00000000       0.00000000 </v>
  </generation>
  <varray name="kpointlist" >
   <v>       0.00000000       0.00000000       0.00000000 </v>
   <v>       0.14285714      -0.00000000       0.00000000 </v>
   <v>       0.28571429      -0.00000000       0.00000000 </v>
   <v>       0.42857143      -0.00000000       0.00000000 </v>
   <v>       0.14285714       0.14285714       0.00000000 </v>
   <v>       0.28571429       0.14285714       0.00000000 </v>
   <v>       0.42857143       0.14285714       0.00000000 </v>
   <v>      -0.42857143       0.14285714       0.00000000 </v>
   <v>      -0.28571429       0.14285714       0.00000000 </v>
   <v>      -0.14285714       0.14285714       0.00000000 </v>
   <v>       0.28571429       0.28571429       0.00000000 </v>
   <v>       0.42857143       0.28571429       0.00000000 </v>
   <v>      -0.42857143       0.28571429       0.00000000 </v>
   <v>      -0.28571429       0.28571429       0.00000000 </v>
   <v>       0.42857143       0.42857143       0.00000000 </v>
   <v>      -0.42857143       0.42857143       0.00000000 </v>
   <v>       0.00000000       0.00000000       0.12500000 </v>
   <v>       0.14285714      -0.00000000       0.12500000 </v>
   <v>       0.28571429       0.00000000       0.12500000 </v>
   <v>       0.42857143      -0.00000000       0.12500000 </v>
   <v>      -0.42857143       0.00000000       0.12500000 </v>
   <v>      -0.28571429       0.00000000       0.12500000 </v>
   <v>      -0.14285714       0.00000000       0.12500000 </v>
   <v>       0.14285714       0.14285714       0.12500000 </v>
   <v>       0.28571429       0.14285714       0.12500000 </v>
   <v>       0.42857143       0.14285714       0.12500000 </v>
   <v>      -0.42857143       0.14285714       0.12500000 </v>
   <v>      -0.28571429       0.14285714       0.12500000 </v>
   <v>      -0.14285714       0.14285714       0.12500000 </v>
   <v>       0.28571429       0.28571429       0.12500000 </v>
   <v>       0.42857143       0.28571429       0.12500000 </v>
   <v>      -0.42857143       0.28571429       0.12500000 </v>
   <v>      -0.28571429       0.28571429       0.12500000 </v>
   <v>      -0.14285714       0.28571429       0.12500000 </v>
   <v>       0.42857143       0.42857143       0.12500000 </v>
   <v>      -0.42857143       0.42857143       0.12500000 </v>
   <v>      -0.28571429       0.42857143       0.12500000 </v>
   <v>      -0.14285714       0.42857143       0.12500000 </v>
   <v>      -0.42857143      -0.42857143       0.12500000 </v>
   <v>      -0.28571429      -0.42857143       0.12500000 </v>
   <v>      -0.14285714      -0.42857143       0.12500000 </v>
   <v>      -0.28571429      -0.28571429       0.12500000 </v>
   <v>      -0.14285714      -0.28571429       0.12500000 </v>
   <v>      -0.14285714      -0.14285714       0.12500000 </v>
   <v>       0.00000000       0.00000000       0.25000000 </v>
   <v>       0.14285714       0.00000000       0.25000000 </v>
   <v>       0.28571429       0.00000000       0.25000000 </v>
   <v>       0.42857143      -0.00000000       0.25000000 </v>
   <v>      -0.42857143       0.00000000       0.25000000 </v>
   <v>      -0.28571429       0.00000000       0.25000000 </v>
   <v>      -0.14285714       0.00000000       0.25000000 </v>
   <v>       0.14285714       0.14285714       0.25000000 </v>
   <v>       0.28571429       0.14285714       0.25000000 </v>
   <v>       0.42857143       0.14285714       0.25000000 </v>
   <v>      -0.42857143       0.14285714       0.25000000 </v>
   <v>      -0.28571429       0.14285714       0.25000000 </v>
   <v>      -0.14285714       0.14285714       0.25000000 </v>
   <v>       0.28571429       0.28571429       0.25000000 </v>
   <v>       0.42857143       0.28571429       0.25000000 </v>
   <v>      -0.42857143       0.28571429       0.25000000 </v>
   <v>      -0.28571429       0.28571429       0.25000000 </v>
   <v>      -0.14285714       0.28571429       0.25000000 </v>
   <v>       0.42857143       0.42857143       0.25000000 </v>
   <v>      -0.42857143       0.42857143       0.25000000 </v>
   <v>      -0.28571429       0.42857143       0.25000000 </v>
   <v>      -0.14285714       0.42857143       0.25000000 </v>
   <v>      -0.42857143      -0.42857143       0.25000000 </v>
   <v>      -0.28571429      -0.42857143       0.25000000 </v>
   <v>      -0.14285714      -0.42857143       0.25000000 </v>
   <v>      -0.28571429      -0.28571429       0.25000000 </v>
   <v>      -0.14285714      -0.28571429       0.25000000 </v>
   <v>      -0.14285714      -0.14285714       0.25000000 </v>
   <v>       0.00000000       0.00000000       0.37500000 </v>
   <v>       0.14285714       0.00000000       0.37500000 </v>
   <v>       0.28571429       0.00000000       0.37500000 </v>
   <v>       0.42857143       0.00000000       0.37500000 </v>
   <v>      -0.42857143       0.00000000       0.37500000 </v>
   <v>      -0.28571429       0.00000000       0.37500000 </v>
   <v>      -0.14285714       0.00000000       0.37500000 </v>
   <v>       0.14285714       0.14285714       0.37500000 </v>
   <v>       0.28571429       0.14285714       0.37500000 </v>
   <v>       0.42857143       0.14285714       0.37500000 </v>
   <v>      -0.42857143       0.14285714       0.37500000 </v>
   <v>      -0.28571429       0.14285714       0.37500000 </v>
   <v>      -0.14285714       0.14285714       0.37500000 </v>
   <v>       0.28571429       0.28571429       0.37500000 </v>
   <v>       0.42857143       0.28571429       0.37500000 </v>
   <v>      -0.42857143       0.28571429       0.37500000 </v>
   <v>      -0.28571429       0.28571429       0.37500000 </v>
   <v>      -0.14285714       0.28571429       0.37500000 </v>
   <v>       0.42857143       0.42857143       0.37500000 </v>
   <v>      -0.42857143       0.42857143       0.37500000 </v>
   <v>      -0.28571429       0.42857143       0.37500000 </v>
   <v>      -0.14285714       0.42857143       0.37500000 </v>
   <v>      -0.42857143      -0.42857143       0.37500000 </v>
   <v>      -0.28571429      -0.42857143       0.37500000 </v>
   <v>      -0.14285714      -0.42857143       0.37500000 </v>
   <v>      -0.28571429      -0.28571429       0.37500000 </v>
   <v>      -0.14285714      -0.28571429       0.37500000 </v>
   <v>      -0.14285714      -0.14285714       0.37500000 </v>
   <v>       0.00000000       0.00000000       0.50000000 </v>
   <v>       0.14285714       0.00000000       0.50000000 </v>
   <v>       0.28571429      -0.00000000       0.50000000 </v>
   <v>       0.42857143      -0.00000000       0.50000000 </v>
   <v>       0.14285714       0.14285714       0.50000000 </v>
   <v>       0.28571429       0.14285714       0.50000000 </v>
   <v>       0.42857143       0.14285714       0.50000000 </v>
   <v>      -0.42857143       0.14285714       0.50000000 </v>
   <v>      -0.28571429       0.14285714       0.50000000 </v>
   <v>      -0.14285714       0.14285714       0.50000000 </v>
   <v>       0.28571429       0.28571429       0.50000000 </v>
   <v>       0.42857143       0.28571429       0.50000000 </v>
   <v>      -0.42857143       0.28571429       0.50000000 </v>
   <v>      -0.28571429       0.28571429       0.50000000 </v>
   <v>       0.42857143       0.42857143       0.50000000 </v>
   <v>      -0.42857143       0.42857143       0.50000000 </v>
  </varray>
  <varray name="weights" >
   <v>       0.00255102 </v>
   <v>       0.01020408 </v>
   <v>       0.01020408 </v>
   <v>       0.01020408 </v>
   <v>       0.00510204 </v>
   <v>       0.01020408 </v>
   <v>       0.01020408 </v>
   <v>       0.01020408 </v>
   <v>       0.01020408 </v>
   <v>       0.00510204 </v>
   <v>       0.00510204 </v>
   <v>       0.01020408 </v>
   <v>       0.01020408 </v>
   <v>       0.00510204 </v>
   <v>       0.00510204 </v>
   <v>       0.00510204 </v>
   <v>       0.00510204 </v>
   <v>       0.01020408 </v>
   <v>       0.01020408 </v>
   <v>       0.01020408 </v>
   <v>       0.01020408 </v>
   <v>       0.01020408 </v>
   <v>       0.01020408 </v>
   <v>       0.00510204 </v>
   <v>       0.01020408 </v>
   <v>       0.01020408 </v>
   <v>       0.01020408 </v>
   <v>       0.01020408 </v>
   <v>       0.01020408 </v>
   <v>       0.00510204 </v>
   <v>       0.01020408 </v>
   <v>       0.01020408 </v>
   <v>       0.01020408 </v>
   <v>       0.01020408 </v>
   <v>       0.00510204 </v>
   <v>       0.01020408 </v>
   <v>       0.01020408 </v>
   <v>       0.01020408 </v>
   <v>       0.00510204 </v>
   <v>       0.01020408 </v>
   <v>       0.01020408 </v>
   <v>       0.00510204 </v>
   <v>       0.01020408 </v>
   <v>       0.00510204 </v>
   <v>       0.00510204 </v>
   <v>       0.01020408 </v>
   <v>       0.01020408 </v>
   <v>       0.01020408 </v>
   <v>       0.01020408 </v>
   <v>       0.01020408 </v>
   <v>       0.01020408 </v>
   <v>       0.00510204 </v>
   <v>       0.01020408 </v>
   <v>       0.01020408 </v>
   <v>       0.01020408 </v>
   <v>       0.01020408 </v>
   <v>       0.01020408 </v>
   <v>       0.00510204 </v>
   <v>       0.01020408 </v>
   <v>       0.01020408 </v>
   <v>       0.01020408 </v>
   <v>       0.01020408 </v>
   <v>       0.00510204 </v>
   <v>       0.01020408 </v>
   <v>       0.01020408 </v>
   <v>       0.01020408 </v>
   <v>       0.00510204 </v>
   <v>       0.01020408 </v>
   <v>       0.01020408 </v>
   <v>       0.00510204 </v>
   <v>       0.01020408 </v>
   <v>       0.00510204 </v>
   <v>       0.00510204 </v>
   <v>       0.01020408 </v>
   <v>       0.01020408 </v>
   <v>       0.01020408 </v>
   <v>       0.01020408 </v>
   <v>       0.01020408 </v>
   <v>       0.01020408 </v>
   <v>       0.00510204 </v>
   <v>       0.01020408 </v>
   <v>       0.01020408 </v>
   <v>       0.01020408 </v>
   <v>       0.01020408 </v>
   <v>       0.01020408 </v>
   <v>       0.00510204 </v>
   <v>       0.01020408 </v>
   <v>       0.01020408 </v>
   <v>       0.01020408 </v>
   <v>       0.01020408 </v>
   <v>       0.00510204 </v>
   <v>       0.01020408 </v>
   <v>       0.01020408 </v>
   <v>       0.01020408 </v>
   <v>       0.00510204 </v>
   <v>       0.01020408 </v>
   <v>       0.01020408 </v>
   <v>       0.00510204 </v>
   <v>       0.01020408 </v>
   <v>       0.00510204 </v>
   <v>       0.00255102 </v>
   <v>       0.01020408 </v>
   <v>       0.01020408 </v>
   <v>       0.01020408 </v>
   <v>       0.00510204 </v>
   <v>       0.01020408 </v>
   <v>       0.01020408 </v>
   <v>       0.01020408 </v>
   <v>       0.01020408 </v>
   <v>       0.00510204 </v>
   <v>       0.00510204 </v>
   <v>       0.01020408 </v>
   <v>       0.01020408 </v>
   <v>       0.00510204 </v>
   <v>       0.00510204 </v>
   <v>       0.00510204 </v>
  </varray>
 </kpoints>
 <parameters>
  <separator name="general" >
   <i type="string" name="SYSTEM">routine with relax: pwdword</i>
   <i type="logical" name="LCOMPAT"> F  </i>
  </separator>
  <separator name="electronic" >
   <i type="string" name="PREC">acc</i>
   <i name="ENMAX">    600.00000000</i>
   <i name="ENAUG">    535.51400000</i>
   <i name="EDIFF">      0.00000000</i>
   <i type="int" name="IALGO">    58</i>
   <i type="int" name="IWAVPR">    10</i>
   <i type="int" name="NBANDS">    54</i>
   <i type="int" name="NBANDSLOW">    -1</i>
   <i type="int" name="NBANDSHIGH">    -1</i>
   <i name="NELECT">     84.00000000</i>
   <i type="int" name="TURBO">     0</i>
   <i type="int" name="IRESTART">     0</i>
   <i type="int" name="NREBOOT">     0</i>
   <i type="int" name="NMIN">     0</i>
   <i name="EREF">      0.00000000</i>
   <separator name="electronic smearing" >
    <i type="int" name="ISMEAR">     0</i>
    <i name="SIGMA">      0.02000000</i>
    <i name="KSPACING">      0.50000000</i>
    <i type="logical" name="KGAMMA"> T  </i>
    <i type="logical" name="KBLOWUP"> F  </i>
   </separator>
   <separator name="electronic projectors" >
    <i type="logical" name="LREAL"> F  </i>
    <v name="ROPT">      0.00000000      0.00000000      0.00000000</v>
    <i type="int" name="LMAXPAW">  -100</i>
    <i type="int" name="LMAXMIX">     2</i>
    <i type="logical" name="NLSPLINE"> F  </i>
   </separator>
   <separator name="electronic startup" >
    <i type="int" name="ISTART">     0</i>
    <i type="int" name="ICHARG">     2</i>
    <i type="int" name="INIWAV">     1</i>
   </separator>
   <separator name="electronic spin" >
    <i type="int" name="ISPIN">     1</i>
    <i type="logical" name="LNONCOLLINEAR"> F  </i>
    <v name="MAGMOM">      1.00000000      1.00000000      1.00000000      1.00000000      1.00000000      1.00000000      1.00000000      1.00000000      1.00000000      1.00000000      1.00000000      1.00000000</v>
    <i name="NUPDOWN">     -1.00000000</i>
    <i type="logical" name="LSORBIT"> F  </i>
    <v name="SAXIS">      0.00000000      0.00000000      1.00000000</v>
    <i type="logical" name="LSPIRAL"> F  </i>
    <v name="QSPIRAL">      0.00000000      0.00000000      0.00000000</v>
    <i type="logical" name="LZEROZ"> F  </i>
   </separator>
   <separator name="electronic exchange-correlation" >
    <i type="logical" name="LASPH"> T  </i>
    <i type="logical" name="LMETAGGA"> F  </i>
   </separator>
   <separator name="electronic convergence" >
    <i type="int" name="NELM">   100</i>
    <i type="int" name="NELMDL">    -5</i>
    <i type="int" name="NELMIN">     6</i>
    <i name="ENINI">    600.00000000</i>
    <separator name="electronic convergence detail" >
     <i type="logical" name="LDIAG"> T  </i>
     <i type="logical" name="LSUBROT"> F  </i>
     <i name="WEIMIN">      0.00000000</i>
     <i name="EBREAK">      0.00000000</i>
     <i name="DEPER">      0.30000000</i>
     <i type="int" name="NRMM">     4</i>
     <i name="TIME">      0.40000000</i>
    </separator>
   </separator>
   <separator name="electronic mixer" >
    <i name="AMIX">      0.40000000</i>
    <i name="BMIX">      1.00000000</i>
    <i name="AMIN">      0.10000000</i>
    <i name="AMIX_MAG">      1.60000000</i>
    <i name="BMIX_MAG">      1.00000000</i>
    <separator name="electronic mixer details" >
     <i type="int" name="IMIX">     4</i>
     <i type="logical" name="MIXFIRST"> F  </i>
     <i type="int" name="MAXMIX">   -45</i>
     <i name="WC">    100.00000000</i>
     <i type="int" name="INIMIX">     1</i>
     <i type="int" name="MIXPRE">     1</i>
     <i type="int" name="MREMOVE">     5</i>
    </separator>
   </separator>
   <separator name="electronic dipolcorrection" >
    <i type="logical" name="LDIPOL"> F  </i>
    <i type="logical" name="LMONO"> F  </i>
    <i type="int" name="IDIPOL">     0</i>
    <i name="EPSILON">      1.00000000</i>
    <v name="DIPOL">   -100.00000000   -100.00000000   -100.00000000</v>
    <i name="EFIELD">      0.00000000</i>
   </separator>
  </separator>
  <separator name="grids" >
   <i type="int" name="NGX">    54</i>
   <i type="int" name="NGY">    54</i>
   <i type="int" name="NGZ">    54</i>
   <i type="int" name="NGXF">   108</i>
   <i type="int" name="NGYF">   108</i>
   <i type="int" name="NGZF">   108</i>
   <i type="logical" name="ADDGRID"> T  </i>
  </separator>
  <separator name="ionic" >
   <i type="int" name="NSW">     0</i>
   <i type="int" name="IBRION">    -1</i>
   <i type="int" name="MDALGO">     0</i>
   <i type="int" name="ISIF">    -1</i>
   <i name="PSTRESS">      0.00000000</i>
   <i name="EDIFFG">      0.00000001</i>
   <i type="int" name="NFREE">     0</i>
   <i name="POTIM">      0.50000000</i>
   <i name="SMASS">     -3.00000000</i>
   <i name="SCALEE">      1.00000000</i>
  </separator>
  <separator name="ionic md" >
   <i name="TEBEG">      0.00010000</i>
   <i name="TEEND">      0.00010000</i>
   <i type="int" name="NBLOCK">     1</i>
   <i type="int" name="KBLOCK">     1</i>
   <i type="int" name="NPACO">   256</i>
   <i name="APACO">     16.00000000</i>
  </separator>
  <separator name="symmetry" >
   <i type="int" name="ISYM">     2</i>
   <i name="SYMPREC">      0.00001000</i>
  </separator>
  <separator name="dos" >
   <i type="int" name="LORBIT">     0</i>
   <v name="RWIGS">     -1.00000000     -1.00000000     -1.00000000</v>
   <i type="int" name="NEDOS">   301</i>
   <i name="EMIN">     10.00000000</i>
   <i name="EMAX">    -10.00000000</i>
   <i name="EFERMI">      0.00000000</i>
  </separator>
  <separator name="writing" >
   <i type="int" name="NWRITE">     2</i>
   <i type="logical" name="LWAVE"> T  </i>
   <i type="logical" name="LDOWNSAMPLE"> F  </i>
   <i type="logical" name="LCHARG"> T  </i>
   <i type="logical" name="LPARD"> F  </i>
   <i type="logical" name="LVTOT"> F  </i>
   <i type="logical" name="LVHAR"> F  </i>
   <i type="logical" name="LELF"> F  </i>
   <i type="logical" name="LOPTICS"> F  </i>
   <v name="STM">      0.00000000      0.00000000      0.00000000      0.00000000      0.00000000      0.00000000      0.00000000</v>
  </separator>
  <separator name="performance" >
   <i type="int" name="NPAR">     6</i>
   <i type="int" name="NSIM">     4</i>
   <i type="int" name="NBLK">    -1</i>
   <i type="logical" name="LPLANE"> T  </i>
   <i type="logical" name="LSCALAPACK"> T  </i>
   <i type="logical" name="LSCAAWARE"> F  </i>
   <i type="logical" name="LSCALU"> F  </i>
   <i type="logical" name="LASYNC"> F  </i>
   <i type="logical" name="LORBITALREAL"> F  </i>
  </separator>
  <separator name="miscellaneous" >
   <i type="int" name="IDIOT">     3</i>
   <i type="int" name="PHON_NSTRUCT">    -1</i>
   <i type="logical" name="LMUSIC"> F  </i>
   <v name="POMASS">     10.81100000     95.94000000     28.08500000</v>
   <v name="DARWINR">      0.00000000      0.00000000      0.00000000</v>
   <v name="DARWINV">      1.00000000      1.00000000      1.00000000</v>
   <i type="logical" name="LCORR"> T  </i>
  </separator>
  <i type="logical" name="GGA_COMPAT"> T  </i>
  <i type="logical" name="LBERRY"> F  </i>
  <i type="int" name="ICORELEVEL">     0</i>
  <i type="logical" name="LDAU"> F  </i>
  <i type="int" name="I_CONSTRAINED_M">     0</i>
  <separator name="electronic exchange-correlation" >
   <i type="string" name="GGA">--</i>
   <i type="int" name="VOSKOWN">     0</i>
   <i type="logical" name="LHFCALC"> F  </i>
   <i type="string" name="PRECFOCK"></i>
   <i type="logical" name="LSYMGRAD"> F  </i>
   <i type="logical" name="LHFONE"> F  </i>
   <i type="logical" name="LRHFCALC"> F  </i>
   <i type="logical" name="LTHOMAS"> F  </i>
   <i type="logical" name="LMODELHF"> F  </i>
   <i type="logical" name="LFOCKACE"> F  </i>
   <i name="ENCUT4O">     -1.00000000</i>
   <i type="int" name="EXXOEP">     0</i>
   <i type="int" name="FOURORBIT">     0</i>
   <i name="AEXX">      0.00000000</i>
   <i name="HFALPHA">      0.00000000</i>
   <i name="MCALPHA">      0.00000000</i>
   <i name="ALDAX">      1.00000000</i>
   <i name="AGGAX">      1.00000000</i>
   <i name="ALDAC">      1.00000000</i>
   <i name="AGGAC">      1.00000000</i>
   <i type="int" name="NKREDX">     1</i>
   <i type="int" name="NKREDY">     1</i>
   <i type="int" name="NKREDZ">     1</i>
   <i type="logical" name="SHIFTRED"> F  </i>
   <i type="logical" name="ODDONLY"> F  </i>
   <i type="logical" name="EVENONLY"> F  </i>
   <i type="int" name="LMAXFOCK">     0</i>
   <i type="int" name="NMAXFOCKAE">     0</i>
   <i type="logical" name="LFOCKAEDFT"> F  </i>
   <i name="HFSCREEN">      0.00000000</i>
   <i name="HFSCREENC">      0.00000000</i>
   <i type="int" name="NBANDSGWLOW">     0</i>
  </separator>
  <separator name="vdW DFT" >
   <i type="logical" name="LUSE_VDW"> F  </i>
   <i name="Zab_VDW">     -0.84910000</i>
   <i name="PARAM1">      0.12340000</i>
   <i name="PARAM2">      1.00000000</i>
   <i name="PARAM3">      0.00000000</i>
  </separator>
  <separator name="model GW" >
   <i type="int" name="MODEL_GW">     0</i>
   <i name="MODEL_EPS0">      9.51951708</i>
   <i name="MODEL_ALPHA">      1.00000000</i>
  </separator>
  <separator name="linear response parameters" >
   <i type="logical" name="LEPSILON"> F  </i>
   <i type="logical" name="LRPA"> F  </i>
   <i type="logical" name="LNABLA"> F  </i>
   <i type="logical" name="LVEL"> F  </i>
   <i type="int" name="KINTER">     0</i>
   <i name="CSHIFT">      0.10000000</i>
   <i name="OMEGAMAX">     -1.00000000</i>
   <i name="DEG_THRESHOLD">      0.00200000</i>
   <i name="RTIME">     -0.10000000</i>
   <i name="WPLASMAI">      0.00000000</i>
   <v name="DFIELD">      0.00000000      0.00000000      0.00000000</v>
   <v name="WPLASMA">      0.00000000      0.00000000      0.00000000      0.00000000      0.00000000      0.00000000      0.00000000      0.00000000      0.00000000</v>
  </separator>
  <separator name="orbital magnetization" >
   <i type="logical" name="NUCIND"> F  </i>
   <v name="MAGPOS">      0.00000000      0.00000000      0.00000000</v>
   <i type="logical" name="LNICSALL"> T  </i>
   <i type="logical" name="ORBITALMAG"> F  </i>
   <i type="logical" name="LMAGBLOCH"> F  </i>
   <i type="logical" name="LCHIMAG"> F  </i>
   <i type="logical" name="LGAUGE"> T  </i>
   <i type="int" name="MAGATOM">     0</i>
   <v name="MAGDIPOL">      0.00000000      0.00000000      0.00000000</v>
   <v name="AVECCONST">      0.00000000      0.00000000      0.00000000</v>
  </separator>
  <separator name="response functions" >
   <i type="logical" name="LFINITE_TEMPERATURE"> F  </i>
   <i type="logical" name="LADDER"> F  </i>
   <i type="logical" name="LRPAFORCE"> F  </i>
   <i type="logical" name="LFXC"> F  </i>
   <i type="logical" name="LHARTREE"> T  </i>
   <i type="int" name="IBSE">     0</i>
   <v type="int" name="KPOINT">    -1     0     0     0</v>
   <i type="logical" name="LTCTC"> F  </i>
   <i type="logical" name="LTCTE"> F  </i>
   <i type="logical" name="LTETE"> F  </i>
   <i type="logical" name="LTRIPLET"> F  </i>
   <i type="logical" name="LFXCEPS"> F  </i>
   <i type="logical" name="LFXHEG"> F  </i>
   <i type="int" name="NATURALO">     2</i>
   <i type="logical" name="LHOLEGF"> F  </i>
   <i type="logical" name="L2ORDER"> F  </i>
   <i type="logical" name="LDMP1"> F  </i>
   <i type="logical" name="LMP2LT"> F  </i>
   <i type="logical" name="LSMP2LT"> F  </i>
   <i type="logical" name="LGWLF"> F  </i>
   <i name="ENCUTGW">     -2.00000000</i>
   <i name="ENCUTGWSOFT">     -2.00000000</i>
   <i name="ENCUTLF">     -1.00000000</i>
   <i type="logical" name="LESF_SPLINES"> F  </i>
   <i type="int" name="LMAXMP2">    -1</i>
   <i name="SCISSOR">      0.00000000</i>
   <i type="int" name="NOMEGA">     0</i>
   <i type="int" name="NOMEGAR">     0</i>
   <i type="int" name="NBANDSGW">    -1</i>
   <i type="int" name="NBANDSO">    -1</i>
   <i type="int" name="NBANDSV">    -1</i>
   <i type="int" name="NELM">   100</i>
   <i type="int" name="NELMHF">     1</i>
   <i type="int" name="DIM">     3</i>
   <i type="int" name="IESPILON">     4</i>
   <i type="int" name="ANTIRES">     0</i>
   <i name="OMEGAMAX">    -30.00000000</i>
   <i name="OMEGAMIN">    -30.00000000</i>
   <i name="OMEGATL">   -200.00000000</i>
   <i type="int" name="OMEGAGRID">     0</i>
   <i name="CSHIFT">     -0.10000000</i>
   <i type="logical" name="LSELFENERGY"> F  </i>
   <i type="logical" name="LSPECTRAL"> F  </i>
   <i type="logical" name="LSPECTRALGW"> F  </i>
   <i type="logical" name="LSINGLES"> F  </i>
   <i type="logical" name="LFERMIGW"> F  </i>
   <i type="logical" name="ODDONLYGW"> F  </i>
   <i type="logical" name="EVENONLYGW"> F  </i>
   <i type="int" name="NKREDLFX">     1</i>
   <i type="int" name="NKREDLFY">     1</i>
   <i type="int" name="NKREDLFZ">     1</i>
   <i type="int" name="MAXMEM">  2800</i>
   <i type="int" name="TELESCOPE">     0</i>
   <i type="int" name="NTAUPAR">    -1</i>
   <i type="int" name="NOMEGAPAR">    -1</i>
   <i name="DAMP_NEWTON">      0.80000001</i>
   <i name="LAMBDA">      1.00000000</i>
  </separator>
  <separator name="External order field" >
   <i name="OFIELD_KAPPA">      0.00000000</i>
   <v name="OFIELD_K">      0.00000000      0.00000000      0.00000000</v>
   <i name="OFIELD_Q6_NEAR">      0.00000000</i>
   <i name="OFIELD_Q6_FAR">      0.00000000</i>
   <i name="OFIELD_A">      0.00000000</i>
  </separator>
 </parameters>
 <atominfo>
  <atoms>      12 </atoms>
  <types>       3 </types>
  <array name="atoms" >
   <dimension dim="1">ion</dimension>
   <field type="string">element</field>
   <field type="int">atomtype</field>
   <set>
    <rc><c>B </c><c>   1</c></rc>
    <rc><c>B </c><c>   1</c></rc>
    <rc><c>B </c><c>   1</c></rc>
    <rc><c>B </c><c>   1</c></rc>
    <rc><c>Mo</c><c>   2</c></rc>
    <rc><c>Mo</c><c>   2</c></rc>
    <rc><c>Mo</c><c>   2</c></rc>
    <rc><c>Mo</c><c>   2</c></rc>
    <rc><c>Si</c><c>   3</c></rc>
    <rc><c>Si</c><c>   3</c></rc>
    <rc><c>Si</c><c>   3</c></rc>
    <rc><c>Si</c><c>   3</c></rc>
   </set>
  </array>
  <array name="atomtypes" >
   <dimension dim="1">type</dimension>
   <field type="int">atomspertype</field>
   <field type="string">element</field>
   <field>mass</field>
   <field>valence</field>
   <field type="string">pseudopotential</field>
   <set>
    <rc><c>   4</c><c>B </c><c>     10.81100000</c><c>      3.00000000</c><c>  PAW_PBE B 06Sep2000                   </c></rc>
    <rc><c>   4</c><c>Mo</c><c>     95.94000000</c><c>     14.00000000</c><c>  PAW_PBE Mo_sv 02Feb2006               </c></rc>
    <rc><c>   4</c><c>Si</c><c>     28.08500000</c><c>      4.00000000</c><c>  PAW_PBE Si 05Jan2001                  </c></rc>
   </set>
  </array>
 </atominfo>
 <structure name="initialpos" >
  <crystal>
   <varray name="basis" >
    <v>       5.64435659       0.00000000      -3.02153267 </v>
    <v>      -2.02485087       5.26865640      -3.02153267 </v>
    <v>       0.00000000       0.00000000       6.40222000 </v>
   </varray>
   <i name="volume">    190.39034155 </i>
   <varray name="rec_basis" >
    <v>       0.17716811       0.06808928       0.00000000 </v>
    <v>       0.00000000       0.18980171       0.00000000 </v>
    <v>       0.08361463       0.12171185       0.15619582 </v>
   </varray>
  </crystal>
  <varray name="positions" >
   <v>       0.00000000       0.00000000       0.50000000 </v>
   <v>       0.00000000       0.50000000       0.00000000 </v>
   <v>       0.50000000       0.50000000       0.50000000 </v>
   <v>       0.50000000       0.00000000       0.00000000 </v>
   <v>       0.00000000       0.50000000       0.50000000 </v>
   <v>       0.25000000       0.25000000       0.00000000 </v>
   <v>       0.75000000       0.75000000       0.00000000 </v>
   <v>       0.50000000       0.00000000       0.50000000 </v>
   <v>       0.24609000       0.74609000       0.99218000 </v>
   <v>       0.75391000       0.25391000       0.00782000 </v>
   <v>       0.74609000       0.75391000       0.50000000 </v>
   <v>       0.25391000       0.24609000       0.50000000 </v>
  </varray>
 </structure>
 <calculation>
  <scstep>
   <time name="total">   26.96   27.25</time>
   <energy>
    <i name="alphaZ">    287.62761118 </i>
    <i name="ewald">  -6040.12019726 </i>
    <i name="hartreedc">  -2020.41017606 </i>
    <i name="XCdc">    315.36352783 </i>
    <i name="pawpsdc">   6444.67582193 </i>
    <i name="pawaedc">  -6389.50304870 </i>
    <i name="eentropy">     -0.00096996 </i>
    <i name="bandstr">   -100.54414474 </i>
    <i name="atom">   8146.07472429 </i>
    <i name="e_fr_energy">    643.16314850 </i>
    <i name="e_wo_entrp">    643.16411846 </i>
    <i name="e_0_energy">    643.16363348 </i>
   </energy>
  </scstep>
  <scstep>
   <time name="total">   29.29   30.06</time>
   <energy>
    <i name="e_fr_energy">   -150.28509410 </i>
    <i name="e_wo_entrp">   -150.28354900 </i>
    <i name="e_0_energy">   -150.28432155 </i>
   </energy>
  </scstep>
  <scstep>
   <time name="total">   33.38   34.10</time>
   <energy>
    <i name="e_fr_energy">   -185.03315165 </i>
    <i name="e_wo_entrp">   -185.03177089 </i>
    <i name="e_0_energy">   -185.03246127 </i>
   </energy>
  </scstep>
  <scstep>
   <time name="total">   31.82   32.58</time>
   <energy>
    <i name="e_fr_energy">   -185.97155677 </i>
    <i name="e_wo_entrp">   -185.97014131 </i>
    <i name="e_0_energy">   -185.97084904 </i>
   </energy>
  </scstep>
  <scstep>
   <time name="total">   35.10   35.78</time>
   <energy>
    <i name="e_fr_energy">   -185.99160478 </i>
    <i name="e_wo_entrp">   -185.99019904 </i>
    <i name="e_0_energy">   -185.99090191 </i>
   </energy>
  </scstep>
  <scstep>
   <time name="total">   34.30   34.65</time>
   <energy>
    <i name="e_fr_energy">   -114.47086755 </i>
    <i name="e_wo_entrp">   -114.46916851 </i>
    <i name="e_0_energy">   -114.47001803 </i>
   </energy>
  </scstep>
  <scstep>
   <time name="total">   37.06   37.42</time>
   <energy>
    <i name="e_fr_energy">   -144.62901973 </i>
    <i name="e_wo_entrp">   -144.62674914 </i>
    <i name="e_0_energy">   -144.62788443 </i>
   </energy>
  </scstep>
  <scstep>
   <time name="total">   39.34   39.81</time>
   <energy>
    <i name="e_fr_energy">   -149.44753486 </i>
    <i name="e_wo_entrp">   -149.44513152 </i>
    <i name="e_0_energy">   -149.44633319 </i>
   </energy>
  </scstep>
  <scstep>
   <time name="total">   37.62   38.03</time>
   <energy>
    <i name="e_fr_energy">   -150.41054850 </i>
    <i name="e_wo_entrp">   -150.40846047 </i>
    <i name="e_0_energy">   -150.40950449 </i>
   </energy>
  </scstep>
  <scstep>
   <time name="total">   38.02   38.50</time>
   <energy>
    <i name="e_fr_energy">   -150.82352888 </i>
    <i name="e_wo_entrp">   -150.82163662 </i>
    <i name="e_0_energy">   -150.82258275 </i>
   </energy>
  </scstep>
  <scstep>
   <time name="total">   36.74   37.20</time>
   <energy>
    <i name="e_fr_energy">   -151.03351557 </i>
    <i name="e_wo_entrp">   -151.03160278 </i>
    <i name="e_0_energy">   -151.03255917 </i>
   </energy>
  </scstep>
  <scstep>
   <time name="total">   39.11   39.43</time>
   <energy>
    <i name="e_fr_energy">   -151.09838183 </i>
    <i name="e_wo_entrp">   -151.09641975 </i>
    <i name="e_0_energy">   -151.09740079 </i>
   </energy>
  </scstep>
  <scstep>
   <time name="total">   38.65   38.96</time>
   <energy>
    <i name="e_fr_energy">   -151.12854569 </i>
    <i name="e_wo_entrp">   -151.12658070 </i>
    <i name="e_0_energy">   -151.12756319 </i>
   </energy>
  </scstep>
  <scstep>
   <time name="total">   38.57   39.23</time>
   <energy>
    <i name="e_fr_energy">   -151.15226895 </i>
    <i name="e_wo_entrp">   -151.15024092 </i>
    <i name="e_0_energy">   -151.15125493 </i>
   </energy>
  </scstep>
  <scstep>
   <time name="total">   37.94   38.42</time>
   <energy>
    <i name="e_fr_energy">   -151.16788563 </i>
    <i name="e_wo_entrp">   -151.16574545 </i>
    <i name="e_0_energy">   -151.16681554 </i>
   </energy>
  </scstep>
  <scstep>
   <time name="total">   38.32   38.63</time>
   <energy>
    <i name="e_fr_energy">   -151.17520414 </i>
    <i name="e_wo_entrp">   -151.17298694 </i>
    <i name="e_0_energy">   -151.17409554 </i>
   </energy>
  </scstep>
  <scstep>
   <time name="total">   37.92   38.46</time>
   <energy>
    <i name="e_fr_energy">   -151.17812705 </i>
    <i name="e_wo_entrp">   -151.17578205 </i>
    <i name="e_0_energy">   -151.17695455 </i>
   </energy>
  </scstep>
  <scstep>
   <time name="total">   37.81   38.20</time>
   <energy>
    <i name="e_fr_energy">   -151.18027568 </i>
    <i name="e_wo_entrp">   -151.17787199 </i>
    <i name="e_0_energy">   -151.17907383 </i>
   </energy>
  </scstep>
  <scstep>
   <time name="total">   37.72   38.07</time>
   <energy>
    <i name="e_fr_energy">   -151.18124843 </i>
    <i name="e_wo_entrp">   -151.17882058 </i>
    <i name="e_0_energy">   -151.18003451 </i>
   </energy>
  </scstep>
  <scstep>
   <time name="total">   39.02   39.35</time>
   <energy>
    <i name="e_fr_energy">   -151.18166250 </i>
    <i name="e_wo_entrp">   -151.17923353 </i>
    <i name="e_0_energy">   -151.18044801 </i>
   </energy>
  </scstep>
  <scstep>
   <time name="total">   37.38   37.95</time>
   <energy>
    <i name="e_fr_energy">   -151.18180661 </i>
    <i name="e_wo_entrp">   -151.17937815 </i>
    <i name="e_0_energy">   -151.18059238 </i>
   </energy>
  </scstep>
  <scstep>
   <time name="total">   38.58   39.32</time>
   <energy>
    <i name="e_fr_energy">   -151.18190260 </i>
    <i name="e_wo_entrp">   -151.17948500 </i>
    <i name="e_0_energy">   -151.18069380 </i>
   </energy>
  </scstep>
  <scstep>
   <time name="total">   39.24   39.95</time>
   <energy>
    <i name="e_fr_energy">   -151.18196430 </i>
    <i name="e_wo_entrp">   -151.17955452 </i>
    <i name="e_0_energy">   -151.18075941 </i>
   </energy>
  </scstep>
  <scstep>
   <time name="total">   37.51   37.80</time>
   <energy>
    <i name="e_fr_energy">   -151.18198988 </i>
    <i name="e_wo_entrp">   -151.17958522 </i>
    <i name="e_0_energy">   -151.18078755 </i>
   </energy>
  </scstep>
  <scstep>
   <time name="total">   37.23   37.63</time>
   <energy>
    <i name="e_fr_energy">   -151.18199909 </i>
    <i name="e_wo_entrp">   -151.17960065 </i>
    <i name="e_0_energy">   -151.18079987 </i>
   </energy>
  </scstep>
  <scstep>
   <time name="total">   36.62   37.07</time>
   <energy>
    <i name="e_fr_energy">   -151.18200729 </i>
    <i name="e_wo_entrp">   -151.17961310 </i>
    <i name="e_0_energy">   -151.18081020 </i>
   </energy>
  </scstep>
  <scstep>
   <time name="total">   39.38   39.74</time>
   <energy>
    <i name="e_fr_energy">   -151.18201082 </i>
    <i name="e_wo_entrp">   -151.17961776 </i>
    <i name="e_0_energy">   -151.18081429 </i>
   </energy>
  </scstep>
  <scstep>
   <time name="total">   37.37   37.68</time>
   <energy>
    <i name="e_fr_energy">   -151.18201212 </i>
    <i name="e_wo_entrp">   -151.17961978 </i>
    <i name="e_0_energy">   -151.18081595 </i>
   </energy>
  </scstep>
  <scstep>
   <time name="total">   38.92   39.61</time>
   <energy>
    <i name="e_fr_energy">   -151.18201322 </i>
    <i name="e_wo_entrp">   -151.17962074 </i>
    <i name="e_0_energy">   -151.18081698 </i>
   </energy>
  </scstep>
  <scstep>
   <time name="total">   37.89   38.47</time>
   <energy>
    <i name="e_fr_energy">   -151.18201389 </i>
    <i name="e_wo_entrp">   -151.17962102 </i>
    <i name="e_0_energy">   -151.18081745 </i>
   </energy>
  </scstep>
  <scstep>
   <time name="total">   37.05   37.53</time>
   <energy>
    <i name="e_fr_energy">   -151.18201405 </i>
    <i name="e_wo_entrp">   -151.17962074 </i>
    <i name="e_0_energy">   -151.18081739 </i>
   </energy>
  </scstep>
  <scstep>
   <time name="total">   39.50   39.85</time>
   <energy>
    <i name="e_fr_energy">   -151.18201415 </i>
    <i name="e_wo_entrp">   -151.17962055 </i>
    <i name="e_0_energy">   -151.18081735 </i>
   </energy>
  </scstep>
  <scstep>
   <time name="total">   37.21   37.70</time>
   <energy>
    <i name="e_fr_energy">   -151.18201420 </i>
    <i name="e_wo_entrp">   -151.17962025 </i>
    <i name="e_0_energy">   -151.18081723 </i>
   </energy>
  </scstep>
  <scstep>
   <time name="total">   38.51   39.21</time>
   <energy>
    <i name="e_fr_energy">   -151.18201424 </i>
    <i name="e_wo_entrp">   -151.17962010 </i>
    <i name="e_0_energy">   -151.18081717 </i>
   </energy>
  </scstep>
  <scstep>
   <time name="total">   37.71   38.15</time>
   <energy>
    <i name="e_fr_energy">   -151.18201425 </i>
    <i name="e_wo_entrp">   -151.17961963 </i>
    <i name="e_0_energy">   -151.18081694 </i>
   </energy>
  </scstep>
  <scstep>
   <time name="total">   38.22   38.70</time>
   <energy>
    <i name="e_fr_energy">   -151.18201425 </i>
    <i name="e_wo_entrp">   -151.17961969 </i>
    <i name="e_0_energy">   -151.18081697 </i>
   </energy>
  </scstep>
  <scstep>
   <time name="total">   37.81   38.19</time>
   <energy>
    <i name="e_fr_energy">   -151.18201427 </i>
    <i name="e_wo_entrp">   -151.17961977 </i>
    <i name="e_0_energy">   -151.18081702 </i>
   </energy>
  </scstep>
  <scstep>
   <time name="total">   38.14   38.78</time>
   <energy>
    <i name="e_fr_energy">   -151.18201429 </i>
    <i name="e_wo_entrp">   -151.17961980 </i>
    <i name="e_0_energy">   -151.18081705 </i>
   </energy>
  </scstep>
  <scstep>
   <time name="total">   37.99   38.66</time>
   <energy>
    <i name="e_fr_energy">   -151.18201429 </i>
    <i name="e_wo_entrp">   -151.17961980 </i>
    <i name="e_0_energy">   -151.18081705 </i>
   </energy>
  </scstep>
  <scstep>
   <time name="total">   42.95   43.39</time>
   <energy>
    <i name="alphaZ">    287.62761118 </i>
    <i name="ewald">  -6040.12019726 </i>
    <i name="hartreedc">  -1936.84563263 </i>
    <i name="XCdc">    322.93521096 </i>
    <i name="pawpsdc">   9649.46692931 </i>
    <i name="pawaedc">  -9604.22631700 </i>
    <i name="eentropy">     -0.00239448 </i>
    <i name="bandstr">   -976.09194865 </i>
    <i name="atom">   8146.07472429 </i>
    <i name="e_fr_energy">   -151.18201429 </i>
    <i name="e_wo_entrp">   -151.17961981 </i>
    <i name="e_0_energy">   -151.18081705 </i>
   </energy>
  </scstep>
  <structure>
   <crystal>
    <varray name="basis" >
     <v>       5.64435659       0.00000000      -3.02153267 </v>
     <v>      -2.02485087       5.26865640      -3.02153267 </v>
     <v>       0.00000000       0.00000000       6.40222000 </v>
    </varray>
    <i name="volume">    190.39034155 </i>
    <varray name="rec_basis" >
     <v>       0.17716811       0.06808928       0.00000000 </v>
     <v>       0.00000000       0.18980171       0.00000000 </v>
     <v>       0.08361463       0.12171185       0.15619582 </v>
    </varray>
   </crystal>
   <varray name="positions" >
    <v>       0.00000000       0.00000000       0.50000000 </v>
    <v>       0.00000000       0.50000000       0.00000000 </v>
    <v>       0.50000000       0.50000000       0.50000000 </v>
    <v>       0.50000000       0.00000000       0.00000000 </v>
    <v>       0.00000000       0.50000000       0.50000000 </v>
    <v>       0.25000000       0.25000000       0.00000000 </v>
    <v>       0.75000000       0.75000000       0.00000000 </v>
    <v>       0.50000000       0.00000000       0.50000000 </v>
    <v>       0.24609000       0.74609000       0.99218000 </v>
    <v>       0.75391000       0.25391000       0.00782000 </v>
    <v>       0.74609000       0.75391000       0.50000000 </v>
    <v>       0.25391000       0.24609000       0.50000000 </v>
   </varray>
  </structure>
  <varray name="forces" >
   <v>       0.00000000       0.00000000       0.00000000 </v>
   <v>       0.00000000       0.00000000       0.00000000 </v>
   <v>       0.00000000       0.00000000       0.00000000 </v>
   <v>       0.00000000       0.00000000       0.00000000 </v>
   <v>       0.00000000       0.00000000       0.00000000 </v>
   <v>       0.00000000       0.00000000       0.00000000 </v>
   <v>       0.00000000       0.00000000       0.00000000 </v>
   <v>       0.00000000       0.00000000       0.00000000 </v>
   <v>       0.00000000       0.00000000       0.00000000 </v>
   <v>       0.00000000       0.00000000       0.00000000 </v>
   <v>       0.00000000       0.00000000       0.00000000 </v>
   <v>       0.00000000       0.00000000       0.00000000 </v>
  </varray>
  <varray name="stress" >
   <v>       0.00000000       0.00000000       0.00000000 </v>
   <v>       0.00000000       0.00000000       0.00000000 </v>
   <v>       0.00000000       0.00000000       0.00000000 </v>
  </varray>
  <energy>
   <i name="e_fr_energy">   -151.18201429 </i>
   <i name="e_wo_entrp">   -151.17961981 </i>
   <i name="e_0_energy">   -151.18081705 </i>
  </energy>
  <time name="totalsc"> 1495.92 1515.94</time>
  <eigenvalues>
   <array>
    <dimension dim="1">band</dimension>
    <dimension dim="2">kpoint</dimension>
    <dimension dim="3">spin</dimension>
    <field>eigene</field>
    <field>occ</field>
    <set>
     <set comment="spin 1">
      <set comment="kpoint 1">
       <r>  -55.9075    1.0000 </r>
       <r>  -55.9075    1.0000 </r>
       <r>  -55.2899    1.0000 </r>
       <r>  -55.2889    1.0000 </r>
       <r>  -29.2770    1.0000 </r>
       <r>  -29.2770    1.0000 </r>
       <r>  -29.2770    1.0000 </r>
       <r>  -29.2770    1.0000 </r>
       <r>  -29.1949    1.0000 </r>
       <r>  -29.1909    1.0000 </r>
       <r>  -28.8651    1.0000 </r>
       <r>  -28.8650    1.0000 </r>
       <r>  -28.8122    1.0000 </r>
       <r>  -28.8122    1.0000 </r>
       <r>  -28.7294    1.0000 </r>
       <r>  -28.7251    1.0000 </r>
       <r>   -4.4772    1.0000 </r>
       <r>   -2.2501    1.0000 </r>
       <r>   -1.1493    1.0000 </r>
       <r>   -1.1492    1.0000 </r>
       <r>   -0.4881    1.0000 </r>
       <r>   -0.4881    1.0000 </r>
       <r>    1.9055    1.0000 </r>
       <r>    2.2898    1.0000 </r>
       <r>    2.5883    1.0000 </r>
       <r>    2.5886    1.0000 </r>
       <r>    3.3333    1.0000 </r>
       <r>    3.4105    1.0000 </r>
       <r>    3.4140    1.0000 </r>
       <r>    3.5562    1.0000 </r>
       <r>    3.8420    1.0000 </r>
       <r>    3.8420    1.0000 </r>
       <r>    3.8965    1.0000 </r>
       <r>    4.3011    1.0000 </r>
       <r>    5.2506    1.0000 </r>
       <r>    5.8313    1.0000 </r>
       <r>    5.8313    1.0000 </r>
       <r>    6.5754    1.0000 </r>
       <r>    7.3640    1.0000 </r>
       <r>    7.3982    0.9367 </r>
       <r>    7.4551    0.0063 </r>
       <r>    7.4551    0.0063 </r>
       <r>    7.8021    0.0000 </r>
       <r>    7.8021    0.0000 </r>
       <r>    7.8759    0.0000 </r>
       <r>    7.8759    0.0000 </r>
       <r>    8.0328    0.0000 </r>
       <r>    8.0328    0.0000 </r>
       <r>    8.0573    0.0000 </r>
       <r>    8.6415    0.0000 </r>
       <r>    9.2993    0.0000 </r>
       <r>    9.6788    0.0000 </r>
       <r>    9.6790    0.0000 </r>
       <r>   10.3688    0.0000 </r>
      </set>
      <set comment="kpoint 2">
       <r>  -55.9075    1.0000 </r>
       <r>  -55.9075    1.0000 </r>
       <r>  -55.2899    1.0000 </r>
       <r>  -55.2890    1.0000 </r>
       <r>  -29.2770    1.0000 </r>
       <r>  -29.2770    1.0000 </r>
       <r>  -29.2770    1.0000 </r>
       <r>  -29.2769    1.0000 </r>
       <r>  -29.1947    1.0000 </r>
       <r>  -29.1910    1.0000 </r>
       <r>  -28.8649    1.0000 </r>
       <r>  -28.8648    1.0000 </r>
       <r>  -28.8123    1.0000 </r>
       <r>  -28.8122    1.0000 </r>
       <r>  -28.7291    1.0000 </r>
       <r>  -28.7254    1.0000 </r>
       <r>   -4.3686    1.0000 </r>
       <r>   -2.2192    1.0000 </r>
       <r>   -1.4768    1.0000 </r>
       <r>   -1.3023    1.0000 </r>
       <r>   -0.4045    1.0000 </r>
       <r>   -0.2732    1.0000 </r>
       <r>    1.4380    1.0000 </r>
       <r>    2.2397    1.0000 </r>
       <r>    2.6422    1.0000 </r>
       <r>    2.9702    1.0000 </r>
       <r>    3.1036    1.0000 </r>
       <r>    3.5820    1.0000 </r>
       <r>    3.6088    1.0000 </r>
       <r>    3.6397    1.0000 </r>
       <r>    3.6984    1.0000 </r>
       <r>    3.8561    1.0000 </r>
       <r>    3.9561    1.0000 </r>
       <r>    4.4612    1.0000 </r>
       <r>    5.1239    1.0000 </r>
       <r>    5.8420    1.0000 </r>
       <r>    6.1289    1.0000 </r>
       <r>    6.5139    1.0000 </r>
       <r>    7.3189    1.0000 </r>
       <r>    7.3433    1.0000 </r>
       <r>    7.4924    0.0000 </r>
       <r>    7.5184    0.0000 </r>
       <r>    7.6904    0.0000 </r>
       <r>    7.7392    0.0000 </r>
       <r>    7.8073    0.0000 </r>
       <r>    7.8530    0.0000 </r>
       <r>    7.9570    0.0000 </r>
       <r>    8.0744    0.0000 </r>
       <r>    8.1354    0.0000 </r>
       <r>    8.8432    0.0000 </r>
       <r>    9.2884    0.0000 </r>
       <r>    9.5284    0.0000 </r>
       <r>    9.9055    0.0000 </r>
       <r>   10.2973    0.0000 </r>
      </set>
      <set comment="kpoint 3">
       <r>  -55.9075    1.0000 </r>
       <r>  -55.9075    1.0000 </r>
       <r>  -55.2897    1.0000 </r>
       <r>  -55.2891    1.0000 </r>
       <r>  -29.2771    1.0000 </r>
       <r>  -29.2771    1.0000 </r>
       <r>  -29.2770    1.0000 </r>
       <r>  -29.2768    1.0000 </r>
       <r>  -29.1943    1.0000 </r>
       <r>  -29.1916    1.0000 </r>
       <r>  -28.8647    1.0000 </r>
       <r>  -28.8644    1.0000 </r>
       <r>  -28.8127    1.0000 </r>
       <r>  -28.8124    1.0000 </r>
       <r>  -28.7285    1.0000 </r>
       <r>  -28.7260    1.0000 </r>
       <r>   -4.0496    1.0000 </r>
       <r>   -2.1678    1.0000 </r>
       <r>   -2.1112    1.0000 </r>
       <r>   -1.5554    1.0000 </r>
       <r>   -0.2667    1.0000 </r>
       <r>    0.1690    1.0000 </r>
       <r>    0.8272    1.0000 </r>
       <r>    2.1368    1.0000 </r>
       <r>    2.2472    1.0000 </r>
       <r>    2.9621    1.0000 </r>
       <r>    3.1328    1.0000 </r>
       <r>    3.7140    1.0000 </r>
       <r>    3.8719    1.0000 </r>
       <r>    3.8816    1.0000 </r>
       <r>    4.1126    1.0000 </r>
       <r>    4.1369    1.0000 </r>
       <r>    4.3658    1.0000 </r>
       <r>    4.5700    1.0000 </r>
       <r>    4.6699    1.0000 </r>
       <r>    5.8873    1.0000 </r>
       <r>    6.4688    1.0000 </r>
       <r>    6.6995    1.0000 </r>
       <r>    7.0879    1.0000 </r>
       <r>    7.1728    1.0000 </r>
       <r>    7.4205    0.4786 </r>
       <r>    7.4425    0.0538 </r>
       <r>    7.5296    0.0000 </r>
       <r>    7.6470    0.0000 </r>
       <r>    7.7155    0.0000 </r>
       <r>    7.7929    0.0000 </r>
       <r>    7.9374    0.0000 </r>
       <r>    8.0585    0.0000 </r>
       <r>    8.1757    0.0000 </r>
       <r>    9.2593    0.0000 </r>
       <r>    9.5530    0.0000 </r>
       <r>    9.5720    0.0000 </r>
       <r>    9.6645    0.0000 </r>
       <r>   10.2539    0.0000 </r>
      </set>
      <set comment="kpoint 4">
       <r>  -55.9075    1.0000 </r>
       <r>  -55.9075    1.0000 </r>
       <r>  -55.2895    1.0000 </r>
       <r>  -55.2893    1.0000 </r>
       <r>  -29.2771    1.0000 </r>
       <r>  -29.2771    1.0000 </r>
       <r>  -29.2770    1.0000 </r>
       <r>  -29.2768    1.0000 </r>
       <r>  -29.1935    1.0000 </r>
       <r>  -29.1925    1.0000 </r>
       <r>  -28.8644    1.0000 </r>
       <r>  -28.8643    1.0000 </r>
       <r>  -28.8128    1.0000 </r>
       <r>  -28.8127    1.0000 </r>
       <r>  -28.7277    1.0000 </r>
       <r>  -28.7268    1.0000 </r>
       <r>   -3.5420    1.0000 </r>
       <r>   -2.8859    1.0000 </r>
       <r>   -1.9814    1.0000 </r>
       <r>   -1.7888    1.0000 </r>
       <r>   -0.0440    1.0000 </r>
       <r>    0.3181    1.0000 </r>
       <r>    0.7307    1.0000 </r>
       <r>    1.3939    1.0000 </r>
       <r>    2.3829    1.0000 </r>
       <r>    2.6890    1.0000 </r>
       <r>    3.4208    1.0000 </r>
       <r>    3.8481    1.0000 </r>
       <r>    3.9040    1.0000 </r>
       <r>    4.0063    1.0000 </r>
       <r>    4.3070    1.0000 </r>
       <r>    4.4620    1.0000 </r>
       <r>    4.5476    1.0000 </r>
       <r>    4.7170    1.0000 </r>
       <r>    4.9542    1.0000 </r>
       <r>    5.5718    1.0000 </r>
       <r>    6.6674    1.0000 </r>
       <r>    6.8420    1.0000 </r>
       <r>    6.9244    1.0000 </r>
       <r>    7.0452    1.0000 </r>
       <r>    7.0943    1.0000 </r>
       <r>    7.2127    1.0000 </r>
       <r>    7.5075    0.0000 </r>
       <r>    7.5312    0.0000 </r>
       <r>    7.7947    0.0000 </r>
       <r>    7.9224    0.0000 </r>
       <r>    7.9331    0.0000 </r>
       <r>    8.0588    0.0000 </r>
       <r>    8.2052    0.0000 </r>
       <r>    8.7700    0.0000 </r>
       <r>    9.5020    0.0000 </r>
       <r>    9.6813    0.0000 </r>
       <r>    9.8375    0.0000 </r>
       <r>   10.0872    0.0000 </r>
      </set>
      <set comment="kpoint 5">
       <r>  -55.9075    1.0000 </r>
       <r>  -55.9075    1.0000 </r>
       <r>  -55.2898    1.0000 </r>
       <r>  -55.2890    1.0000 </r>
       <r>  -29.2774    1.0000 </r>
       <r>  -29.2770    1.0000 </r>
       <r>  -29.2770    1.0000 </r>
       <r>  -29.2767    1.0000 </r>
       <r>  -29.1941    1.0000 </r>
       <r>  -29.1917    1.0000 </r>
       <r>  -28.8649    1.0000 </r>
       <r>  -28.8646    1.0000 </r>
       <r>  -28.8126    1.0000 </r>
       <r>  -28.8121    1.0000 </r>
       <r>  -28.7285    1.0000 </r>
       <r>  -28.7260    1.0000 </r>
       <r>   -4.1899    1.0000 </r>
       <r>   -2.1348    1.0000 </r>
       <r>   -1.7864    1.0000 </r>
       <r>   -1.6798    1.0000 </r>
       <r>    0.0062    1.0000 </r>
       <r>    0.0792    1.0000 </r>
       <r>    0.7536    1.0000 </r>
       <r>    2.1067    1.0000 </r>
       <r>    2.2024    1.0000 </r>
       <r>    2.5490    1.0000 </r>
       <r>    3.5200    1.0000 </r>
       <r>    3.6245    1.0000 </r>
       <r>    3.8150    1.0000 </r>
       <r>    3.8301    1.0000 </r>
       <r>    3.8664    1.0000 </r>
       <r>    4.0713    1.0000 </r>
       <r>    4.2325    1.0000 </r>
       <r>    4.8007    1.0000 </r>
       <r>    5.0108    1.0000 </r>
       <r>    5.8180    1.0000 </r>
       <r>    6.1871    1.0000 </r>
       <r>    6.6155    1.0000 </r>
       <r>    7.1789    1.0000 </r>
       <r>    7.3227    1.0000 </r>
       <r>    7.4725    0.0001 </r>
       <r>    7.5381    0.0000 </r>
       <r>    7.6115    0.0000 </r>
       <r>    7.6433    0.0000 </r>
       <r>    7.6695    0.0000 </r>
       <r>    7.7933    0.0000 </r>
       <r>    7.9059    0.0000 </r>
       <r>    8.1813    0.0000 </r>
       <r>    8.3751    0.0000 </r>
       <r>    8.9670    0.0000 </r>
       <r>    9.3349    0.0000 </r>
       <r>    9.7721    0.0000 </r>
       <r>    9.8503    0.0000 </r>
       <r>   10.0500    0.0000 </r>
      </set>
      <set comment="kpoint 6">
       <r>  -55.9075    1.0000 </r>
       <r>  -55.9075    1.0000 </r>
       <r>  -55.2897    1.0000 </r>
       <r>  -55.2892    1.0000 </r>
       <r>  -29.2776    1.0000 </r>
       <r>  -29.2771    1.0000 </r>
       <r>  -29.2769    1.0000 </r>
       <r>  -29.2764    1.0000 </r>
       <r>  -29.1933    1.0000 </r>
       <r>  -29.1927    1.0000 </r>
       <r>  -28.8648    1.0000 </r>
       <r>  -28.8643    1.0000 </r>
       <r>  -28.8128    1.0000 </r>
       <r>  -28.8123    1.0000 </r>
       <r>  -28.7276    1.0000 </r>
       <r>  -28.7269    1.0000 </r>
       <r>   -3.8106    1.0000 </r>
       <r>   -2.3938    1.0000 </r>
       <r>   -2.0103    1.0000 </r>
       <r>   -1.9416    1.0000 </r>
       <r>    0.1807    1.0000 </r>
       <r>    0.3096    1.0000 </r>
       <r>    0.6088    1.0000 </r>
       <r>    1.4796    1.0000 </r>
       <r>    2.1392    1.0000 </r>
       <r>    2.7114    1.0000 </r>
       <r>    3.2185    1.0000 </r>
       <r>    3.7374    1.0000 </r>
       <r>    3.8307    1.0000 </r>
       <r>    3.9472    1.0000 </r>
       <r>    4.4845    1.0000 </r>
       <r>    4.5624    1.0000 </r>
       <r>    4.6484    1.0000 </r>
       <r>    4.7321    1.0000 </r>
       <r>    4.7533    1.0000 </r>
       <r>    5.9063    1.0000 </r>
       <r>    6.3339    1.0000 </r>
       <r>    6.6443    1.0000 </r>
       <r>    6.8822    1.0000 </r>
       <r>    7.2009    1.0000 </r>
       <r>    7.2685    1.0000 </r>
       <r>    7.3924    0.9734 </r>
       <r>    7.4962    0.0000 </r>
       <r>    7.5584    0.0000 </r>
       <r>    7.7944    0.0000 </r>
       <r>    7.9307    0.0000 </r>
       <r>    7.9961    0.0000 </r>
       <r>    8.1609    0.0000 </r>
       <r>    8.3953    0.0000 </r>
       <r>    9.0301    0.0000 </r>
       <r>    9.2222    0.0000 </r>
       <r>    9.5243    0.0000 </r>
       <r>    9.8612    0.0000 </r>
       <r>   10.0961    0.0000 </r>
      </set>
      <set comment="kpoint 7">
       <r>  -55.9075    1.0000 </r>
       <r>  -55.9075    1.0000 </r>
       <r>  -55.2895    1.0000 </r>
       <r>  -55.2893    1.0000 </r>
       <r>  -29.2776    1.0000 </r>
       <r>  -29.2772    1.0000 </r>
       <r>  -29.2768    1.0000 </r>
       <r>  -29.2764    1.0000 </r>
       <r>  -29.1938    1.0000 </r>
       <r>  -29.1923    1.0000 </r>
       <r>  -28.8646    1.0000 </r>
       <r>  -28.8643    1.0000 </r>
       <r>  -28.8127    1.0000 </r>
       <r>  -28.8125    1.0000 </r>
       <r>  -28.7277    1.0000 </r>
       <r>  -28.7267    1.0000 </r>
       <r>   -3.2586    1.0000 </r>
       <r>   -3.0672    1.0000 </r>
       <r>   -2.1038    1.0000 </r>
       <r>   -1.8553    1.0000 </r>
       <r>   -0.2418    1.0000 </r>
       <r>    0.6277    1.0000 </r>
       <r>    0.7917    1.0000 </r>
       <r>    1.2426    1.0000 </r>
       <r>    2.3008    1.0000 </r>
       <r>    2.8993    1.0000 </r>
       <r>    3.1883    1.0000 </r>
       <r>    3.7700    1.0000 </r>
       <r>    3.8769    1.0000 </r>
       <r>    4.0984    1.0000 </r>
       <r>    4.1965    1.0000 </r>
       <r>    4.4056    1.0000 </r>
       <r>    4.5755    1.0000 </r>
       <r>    5.0604    1.0000 </r>
       <r>    5.1478    1.0000 </r>
       <r>    5.6465    1.0000 </r>
       <r>    6.6071    1.0000 </r>
       <r>    6.7107    1.0000 </r>
       <r>    6.8296    1.0000 </r>
       <r>    6.9791    1.0000 </r>
       <r>    7.0140    1.0000 </r>
       <r>    7.2328    1.0000 </r>
       <r>    7.4708    0.0002 </r>
       <r>    7.5230    0.0000 </r>
       <r>    7.8209    0.0000 </r>
       <r>    7.9604    0.0000 </r>
       <r>    8.0288    0.0000 </r>
       <r>    8.1560    0.0000 </r>
       <r>    8.6383    0.0000 </r>
       <r>    8.6492    0.0000 </r>
       <r>    9.0870    0.0000 </r>
       <r>    9.2615    0.0000 </r>
       <r>   10.0954    0.0000 </r>
       <r>   10.3492    0.0000 </r>
      </set>
      <set comment="kpoint 8">
       <r>  -55.9075    1.0000 </r>
       <r>  -55.9075    1.0000 </r>
       <r>  -55.2895    1.0000 </r>
       <r>  -55.2893    1.0000 </r>
       <r>  -29.2775    1.0000 </r>
       <r>  -29.2773    1.0000 </r>
       <r>  -29.2766    1.0000 </r>
       <r>  -29.2765    1.0000 </r>
       <r>  -29.1948    1.0000 </r>
       <r>  -29.1914    1.0000 </r>
       <r>  -28.8646    1.0000 </r>
       <r>  -28.8643    1.0000 </r>
       <r>  -28.8129    1.0000 </r>
       <r>  -28.8124    1.0000 </r>
       <r>  -28.7285    1.0000 </r>
       <r>  -28.7259    1.0000 </r>
       <r>   -3.6562    1.0000 </r>
       <r>   -2.5858    1.0000 </r>
       <r>   -2.2039    1.0000 </r>
       <r>   -1.6614    1.0000 </r>
       <r>   -0.5107    1.0000 </r>
       <r>    0.1843    1.0000 </r>
       <r>    1.0616    1.0000 </r>
       <r>    1.9570    1.0000 </r>
       <r>    2.6138    1.0000 </r>
       <r>    2.6869    1.0000 </r>
       <r>    3.4563    1.0000 </r>
       <r>    3.6224    1.0000 </r>
       <r>    3.9212    1.0000 </r>
       <r>    3.9699    1.0000 </r>
       <r>    4.0791    1.0000 </r>
       <r>    4.1124    1.0000 </r>
       <r>    4.2545    1.0000 </r>
       <r>    4.8793    1.0000 </r>
       <r>    5.2290    1.0000 </r>
       <r>    5.5805    1.0000 </r>
       <r>    6.4018    1.0000 </r>
       <r>    6.8102    1.0000 </r>
       <r>    6.9225    1.0000 </r>
       <r>    7.0806    1.0000 </r>
       <r>    7.1965    1.0000 </r>
       <r>    7.2610    1.0000 </r>
       <r>    7.4746    0.0001 </r>
       <r>    7.5196    0.0000 </r>
       <r>    7.9153    0.0000 </r>
       <r>    7.9610    0.0000 </r>
       <r>    8.0479    0.0000 </r>
       <r>    8.1334    0.0000 </r>
       <r>    8.1523    0.0000 </r>
       <r>    8.7054    0.0000 </r>
       <r>    8.8519    0.0000 </r>
       <r>    9.2488    0.0000 </r>
       <r>    9.8658    0.0000 </r>
       <r>   10.0383    0.0000 </r>
      </set>
      <set comment="kpoint 9">
       <r>  -55.9075    1.0000 </r>
       <r>  -55.9074    1.0000 </r>
       <r>  -55.2897    1.0000 </r>
       <r>  -55.2891    1.0000 </r>
       <r>  -29.2773    1.0000 </r>
       <r>  -29.2773    1.0000 </r>
       <r>  -29.2767    1.0000 </r>
       <r>  -29.2766    1.0000 </r>
       <r>  -29.1952    1.0000 </r>
       <r>  -29.1908    1.0000 </r>
       <r>  -28.8648    1.0000 </r>
       <r>  -28.8644    1.0000 </r>
       <r>  -28.8129    1.0000 </r>
       <r>  -28.8122    1.0000 </r>
       <r>  -28.7291    1.0000 </r>
       <r>  -28.7254    1.0000 </r>
       <r>   -4.0911    1.0000 </r>
       <r>   -2.2584    1.0000 </r>
       <r>   -1.8919    1.0000 </r>
       <r>   -1.4046    1.0000 </r>
       <r>   -0.6707    1.0000 </r>
       <r>   -0.2850    1.0000 </r>
       <r>    1.6054    1.0000 </r>
       <r>    2.5741    1.0000 </r>
       <r>    2.7397    1.0000 </r>
       <r>    3.0389    1.0000 </r>
       <r>    3.1191    1.0000 </r>
       <r>    3.1873    1.0000 </r>
       <r>    3.7001    1.0000 </r>
       <r>    3.7772    1.0000 </r>
       <r>    3.8432    1.0000 </r>
       <r>    3.9743    1.0000 </r>
       <r>    4.2592    1.0000 </r>
       <r>    4.6379    1.0000 </r>
       <r>    4.7106    1.0000 </r>
       <r>    5.9735    1.0000 </r>
       <r>    6.1260    1.0000 </r>
       <r>    6.8848    1.0000 </r>
       <r>    7.1236    1.0000 </r>
       <r>    7.2659    1.0000 </r>
       <r>    7.3422    1.0000 </r>
       <r>    7.3994    0.9254 </r>
       <r>    7.5354    0.0000 </r>
       <r>    7.5407    0.0000 </r>
       <r>    7.5807    0.0000 </r>
       <r>    7.9289    0.0000 </r>
       <r>    8.0138    0.0000 </r>
       <r>    8.2417    0.0000 </r>
       <r>    8.2953    0.0000 </r>
       <r>    8.6093    0.0000 </r>
       <r>    8.7094    0.0000 </r>
       <r>    9.1680    0.0000 </r>
       <r>    9.6745    0.0000 </r>
       <r>   10.2963    0.0000 </r>
      </set>
      <set comment="kpoint 10">
       <r>  -55.9075    1.0000 </r>
       <r>  -55.9074    1.0000 </r>
       <r>  -55.2898    1.0000 </r>
       <r>  -55.2890    1.0000 </r>
       <r>  -29.2771    1.0000 </r>
       <r>  -29.2771    1.0000 </r>
       <r>  -29.2768    1.0000 </r>
       <r>  -29.2767    1.0000 </r>
       <r>  -29.1951    1.0000 </r>
       <r>  -29.1907    1.0000 </r>
       <r>  -28.8649    1.0000 </r>
       <r>  -28.8647    1.0000 </r>
       <r>  -28.8126    1.0000 </r>
       <r>  -28.8121    1.0000 </r>
       <r>  -28.7293    1.0000 </r>
       <r>  -28.7251    1.0000 </r>
       <r>   -4.3347    1.0000 </r>
       <r>   -2.2614    1.0000 </r>
       <r>   -1.4335    1.0000 </r>
       <r>   -1.1667    1.0000 </r>
       <r>   -0.7151    1.0000 </r>
       <r>   -0.4802    1.0000 </r>
       <r>    2.0387    1.0000 </r>
       <r>    2.4656    1.0000 </r>
       <r>    2.5499    1.0000 </r>
       <r>    2.9292    1.0000 </r>
       <r>    3.3912    1.0000 </r>
       <r>    3.4573    1.0000 </r>
       <r>    3.5239    1.0000 </r>
       <r>    3.5836    1.0000 </r>
       <r>    3.7662    1.0000 </r>
       <r>    3.7934    1.0000 </r>
       <r>    3.8541    1.0000 </r>
       <r>    4.1475    1.0000 </r>
       <r>    5.0472    1.0000 </r>
       <r>    5.9021    1.0000 </r>
       <r>    6.3494    1.0000 </r>
       <r>    6.4842    1.0000 </r>
       <r>    7.2848    1.0000 </r>
       <r>    7.3753    0.9992 </r>
       <r>    7.4216    0.4494 </r>
       <r>    7.4795    0.0000 </r>
       <r>    7.5984    0.0000 </r>
       <r>    7.7202    0.0000 </r>
       <r>    7.7222    0.0000 </r>
       <r>    7.7279    0.0000 </r>
       <r>    7.9322    0.0000 </r>
       <r>    8.2024    0.0000 </r>
       <r>    8.3048    0.0000 </r>
       <r>    8.6776    0.0000 </r>
       <r>    8.9637    0.0000 </r>
       <r>    9.5154    0.0000 </r>
       <r>    9.6488    0.0000 </r>
       <r>    9.8880    0.0000 </r>
      </set>
      <set comment="kpoint 11">
       <r>  -55.9075    1.0000 </r>
       <r>  -55.9075    1.0000 </r>
       <r>  -55.2896    1.0000 </r>
       <r>  -55.2893    1.0000 </r>
       <r>  -29.2779    1.0000 </r>
       <r>  -29.2773    1.0000 </r>
       <r>  -29.2767    1.0000 </r>
       <r>  -29.2761    1.0000 </r>
       <r>  -29.1939    1.0000 </r>
       <r>  -29.1922    1.0000 </r>
       <r>  -28.8650    1.0000 </r>
       <r>  -28.8643    1.0000 </r>
       <r>  -28.8127    1.0000 </r>
       <r>  -28.8122    1.0000 </r>
       <r>  -28.7278    1.0000 </r>
       <r>  -28.7267    1.0000 </r>
       <r>   -3.3945    1.0000 </r>
       <r>   -2.5926    1.0000 </r>
       <r>   -2.4352    1.0000 </r>
       <r>   -1.9137    1.0000 </r>
       <r>   -0.2947    1.0000 </r>
       <r>    0.8064    1.0000 </r>
       <r>    0.9658    1.0000 </r>
       <r>    1.0464    1.0000 </r>
       <r>    2.3138    1.0000 </r>
       <r>    2.6297    1.0000 </r>
       <r>    3.2507    1.0000 </r>
       <r>    3.7216    1.0000 </r>
       <r>    3.8578    1.0000 </r>
       <r>    3.8803    1.0000 </r>
       <r>    4.3907    1.0000 </r>
       <r>    4.4868    1.0000 </r>
       <r>    4.7325    1.0000 </r>
       <r>    4.8563    1.0000 </r>
       <r>    5.1751    1.0000 </r>
       <r>    6.2322    1.0000 </r>
       <r>    6.2529    1.0000 </r>
       <r>    6.4825    1.0000 </r>
       <r>    6.7148    1.0000 </r>
       <r>    6.9882    1.0000 </r>
       <r>    7.2259    1.0000 </r>
       <r>    7.4674    0.0004 </r>
       <r>    7.4695    0.0002 </r>
       <r>    7.5564    0.0000 </r>
       <r>    7.7860    0.0000 </r>
       <r>    7.9712    0.0000 </r>
       <r>    7.9905    0.0000 </r>
       <r>    8.2551    0.0000 </r>
       <r>    8.3797    0.0000 </r>
       <r>    9.0391    0.0000 </r>
       <r>    9.2180    0.0000 </r>
       <r>    9.4217    0.0000 </r>
       <r>    9.6723    0.0000 </r>
       <r>    9.9478    0.0000 </r>
      </set>
      <set comment="kpoint 12">
       <r>  -55.9075    1.0000 </r>
       <r>  -55.9074    1.0000 </r>
       <r>  -55.2895    1.0000 </r>
       <r>  -55.2894    1.0000 </r>
       <r>  -29.2779    1.0000 </r>
       <r>  -29.2775    1.0000 </r>
       <r>  -29.2765    1.0000 </r>
       <r>  -29.2760    1.0000 </r>
       <r>  -29.1951    1.0000 </r>
       <r>  -29.1912    1.0000 </r>
       <r>  -28.8651    1.0000 </r>
       <r>  -28.8644    1.0000 </r>
       <r>  -28.8125    1.0000 </r>
       <r>  -28.8123    1.0000 </r>
       <r>  -28.7285    1.0000 </r>
       <r>  -28.7259    1.0000 </r>
       <r>   -3.1045    1.0000 </r>
       <r>   -2.8482    1.0000 </r>
       <r>   -2.5302    1.0000 </r>
       <r>   -1.8138    1.0000 </r>
       <r>   -0.6036    1.0000 </r>
       <r>    0.1883    1.0000 </r>
       <r>    1.4211    1.0000 </r>
       <r>    1.7251    1.0000 </r>
       <r>    2.4767    1.0000 </r>
       <r>    2.9693    1.0000 </r>
       <r>    3.1556    1.0000 </r>
       <r>    3.6148    1.0000 </r>
       <r>    3.8423    1.0000 </r>
       <r>    4.0047    1.0000 </r>
       <r>    4.0587    1.0000 </r>
       <r>    4.2489    1.0000 </r>
       <r>    4.2843    1.0000 </r>
       <r>    4.8166    1.0000 </r>
       <r>    5.5994    1.0000 </r>
       <r>    6.0902    1.0000 </r>
       <r>    6.5209    1.0000 </r>
       <r>    6.5994    1.0000 </r>
       <r>    6.8206    1.0000 </r>
       <r>    6.9038    1.0000 </r>
       <r>    7.0267    1.0000 </r>
       <r>    7.1905    1.0000 </r>
       <r>    7.5359    0.0000 </r>
       <r>    7.5983    0.0000 </r>
       <r>    7.7617    0.0000 </r>
       <r>    7.9481    0.0000 </r>
       <r>    8.0558    0.0000 </r>
       <r>    8.0911    0.0000 </r>
       <r>    8.2205    0.0000 </r>
       <r>    8.8361    0.0000 </r>
       <r>    8.9642    0.0000 </r>
       <r>    9.0416    0.0000 </r>
       <r>    9.9162    0.0000 </r>
       <r>   10.1998    0.0000 </r>
      </set>
      <set comment="kpoint 13">
       <r>  -55.9075    1.0000 </r>
       <r>  -55.9074    1.0000 </r>
       <r>  -55.2895    1.0000 </r>
       <r>  -55.2893    1.0000 </r>
       <r>  -29.2778    1.0000 </r>
       <r>  -29.2776    1.0000 </r>
       <r>  -29.2764    1.0000 </r>
       <r>  -29.2760    1.0000 </r>
       <r>  -29.1958    1.0000 </r>
       <r>  -29.1906    1.0000 </r>
       <r>  -28.8649    1.0000 </r>
       <r>  -28.8646    1.0000 </r>
       <r>  -28.8127    1.0000 </r>
       <r>  -28.8122    1.0000 </r>
       <r>  -28.7290    1.0000 </r>
       <r>  -28.7254    1.0000 </r>
       <r>   -3.5916    1.0000 </r>
       <r>   -2.4851    1.0000 </r>
       <r>   -2.2838    1.0000 </r>
       <r>   -1.6096    1.0000 </r>
       <r>   -0.8398    1.0000 </r>
       <r>   -0.2889    1.0000 </r>
       <r>    1.9054    1.0000 </r>
       <r>    2.4462    1.0000 </r>
       <r>    2.6497    1.0000 </r>
       <r>    3.0701    1.0000 </r>
       <r>    3.2573    1.0000 </r>
       <r>    3.3337    1.0000 </r>
       <r>    3.5176    1.0000 </r>
       <r>    3.7249    1.0000 </r>
       <r>    3.7697    1.0000 </r>
       <r>    4.0729    1.0000 </r>
       <r>    4.3532    1.0000 </r>
       <r>    5.0351    1.0000 </r>
       <r>    5.4537    1.0000 </r>
       <r>    5.8205    1.0000 </r>
       <r>    6.3163    1.0000 </r>
       <r>    6.7315    1.0000 </r>
       <r>    6.7459    1.0000 </r>
       <r>    7.0212    1.0000 </r>
       <r>    7.0667    1.0000 </r>
       <r>    7.2548    1.0000 </r>
       <r>    7.4221    0.4354 </r>
       <r>    7.6745    0.0000 </r>
       <r>    7.8479    0.0000 </r>
       <r>    7.8637    0.0000 </r>
       <r>    8.0940    0.0000 </r>
       <r>    8.2698    0.0000 </r>
       <r>    8.2843    0.0000 </r>
       <r>    8.3396    0.0000 </r>
       <r>    8.5883    0.0000 </r>
       <r>    8.6467    0.0000 </r>
       <r>   10.1000    0.0000 </r>
       <r>   10.5010    0.0000 </r>
      </set>
      <set comment="kpoint 14">
       <r>  -55.9075    1.0000 </r>
       <r>  -55.9074    1.0000 </r>
       <r>  -55.2897    1.0000 </r>
       <r>  -55.2892    1.0000 </r>
       <r>  -29.2776    1.0000 </r>
       <r>  -29.2775    1.0000 </r>
       <r>  -29.2765    1.0000 </r>
       <r>  -29.2762    1.0000 </r>
       <r>  -29.1958    1.0000 </r>
       <r>  -29.1904    1.0000 </r>
       <r>  -28.8648    1.0000 </r>
       <r>  -28.8646    1.0000 </r>
       <r>  -28.8130    1.0000 </r>
       <r>  -28.8121    1.0000 </r>
       <r>  -28.7292    1.0000 </r>
       <r>  -28.7252    1.0000 </r>
       <r>   -3.9332    1.0000 </r>
       <r>   -2.3833    1.0000 </r>
       <r>   -1.9246    1.0000 </r>
       <r>   -1.2030    1.0000 </r>
       <r>   -1.1170    1.0000 </r>
       <r>   -0.4622    1.0000 </r>
       <r>    2.4396    1.0000 </r>
       <r>    2.4957    1.0000 </r>
       <r>    2.8775    1.0000 </r>
       <r>    2.9335    1.0000 </r>
       <r>    3.1159    1.0000 </r>
       <r>    3.2078    1.0000 </r>
       <r>    3.2876    1.0000 </r>
       <r>    3.6646    1.0000 </r>
       <r>    3.7021    1.0000 </r>
       <r>    3.8613    1.0000 </r>
       <r>    4.6617    1.0000 </r>
       <r>    4.8001    1.0000 </r>
       <r>    5.2312    1.0000 </r>
       <r>    5.5572    1.0000 </r>
       <r>    6.1049    1.0000 </r>
       <r>    6.6751    1.0000 </r>
       <r>    7.1055    1.0000 </r>
       <r>    7.1654    1.0000 </r>
       <r>    7.3151    1.0000 </r>
       <r>    7.3261    1.0000 </r>
       <r>    7.5068    0.0000 </r>
       <r>    7.6382    0.0000 </r>
       <r>    7.6977    0.0000 </r>
       <r>    7.9881    0.0000 </r>
       <r>    8.0479    0.0000 </r>
       <r>    8.1305    0.0000 </r>
       <r>    8.2767    0.0000 </r>
       <r>    8.3778    0.0000 </r>
       <r>    8.5361    0.0000 </r>
       <r>    8.5460    0.0000 </r>
       <r>    9.9445    0.0000 </r>
       <r>   10.6262    0.0000 </r>
      </set>
      <set comment="kpoint 15">
       <r>  -55.9075    1.0000 </r>
       <r>  -55.9074    1.0000 </r>
       <r>  -55.2895    1.0000 </r>
       <r>  -55.2894    1.0000 </r>
       <r>  -29.2780    1.0000 </r>
       <r>  -29.2777    1.0000 </r>
       <r>  -29.2763    1.0000 </r>
       <r>  -29.2758    1.0000 </r>
       <r>  -29.1960    1.0000 </r>
       <r>  -29.1904    1.0000 </r>
       <r>  -28.8654    1.0000 </r>
       <r>  -28.8645    1.0000 </r>
       <r>  -28.8123    1.0000 </r>
       <r>  -28.8121    1.0000 </r>
       <r>  -28.7289    1.0000 </r>
       <r>  -28.7254    1.0000 </r>
       <r>   -3.0660    1.0000 </r>
       <r>   -2.9034    1.0000 </r>
       <r>   -2.4361    1.0000 </r>
       <r>   -1.7063    1.0000 </r>
       <r>   -0.8880    1.0000 </r>
       <r>   -0.2866    1.0000 </r>
       <r>    2.1380    1.0000 </r>
       <r>    2.2395    1.0000 </r>
       <r>    2.7920    1.0000 </r>
       <r>    2.8412    1.0000 </r>
       <r>    3.2047    1.0000 </r>
       <r>    3.5765    1.0000 </r>
       <r>    3.6735    1.0000 </r>
       <r>    3.7197    1.0000 </r>
       <r>    3.9251    1.0000 </r>
       <r>    4.1078    1.0000 </r>
       <r>    4.2622    1.0000 </r>
       <r>    4.2727    1.0000 </r>
       <r>    6.0343    1.0000 </r>
       <r>    6.4104    1.0000 </r>
       <r>    6.5863    1.0000 </r>
       <r>    6.7091    1.0000 </r>
       <r>    6.7374    1.0000 </r>
       <r>    6.8893    1.0000 </r>
       <r>    7.0644    1.0000 </r>
       <r>    7.0718    1.0000 </r>
       <r>    7.1271    1.0000 </r>
       <r>    7.3216    1.0000 </r>
       <r>    7.6334    0.0000 </r>
       <r>    7.8709    0.0000 </r>
       <r>    7.9564    0.0000 </r>
       <r>    8.2780    0.0000 </r>
       <r>    8.2837    0.0000 </r>
       <r>    8.6197    0.0000 </r>
       <r>    8.8907    0.0000 </r>
       <r>    8.8927    0.0000 </r>
       <r>   10.2449    0.0000 </r>
       <r>   10.4000    0.0000 </r>
      </set>
      <set comment="kpoint 16">
       <r>  -55.9075    1.0000 </r>
       <r>  -55.9074    1.0000 </r>
       <r>  -55.2895    1.0000 </r>
       <r>  -55.2893    1.0000 </r>
       <r>  -29.2779    1.0000 </r>
       <r>  -29.2778    1.0000 </r>
       <r>  -29.2762    1.0000 </r>
       <r>  -29.2758    1.0000 </r>
       <r>  -29.1963    1.0000 </r>
       <r>  -29.1902    1.0000 </r>
       <r>  -28.8653    1.0000 </r>
       <r>  -28.8646    1.0000 </r>
       <r>  -28.8125    1.0000 </r>
       <r>  -28.8120    1.0000 </r>
       <r>  -28.7291    1.0000 </r>
       <r>  -28.7252    1.0000 </r>
       <r>   -3.3630    1.0000 </r>
       <r>   -2.7564    1.0000 </r>
       <r>   -2.2375    1.0000 </r>
       <r>   -1.3752    1.0000 </r>
       <r>   -1.2295    1.0000 </r>
       <r>   -0.4474    1.0000 </r>
       <r>    2.5394    1.0000 </r>
       <r>    2.6835    1.0000 </r>
       <r>    2.7685    1.0000 </r>
       <r>    2.8504    1.0000 </r>
       <r>    3.1177    1.0000 </r>
       <r>    3.3194    1.0000 </r>
       <r>    3.4514    1.0000 </r>
       <r>    3.6474    1.0000 </r>
       <r>    3.6600    1.0000 </r>
       <r>    4.1819    1.0000 </r>
       <r>    4.3285    1.0000 </r>
       <r>    4.3946    1.0000 </r>
       <r>    6.0877    1.0000 </r>
       <r>    6.3573    1.0000 </r>
       <r>    6.4500    1.0000 </r>
       <r>    6.5863    1.0000 </r>
       <r>    6.7073    1.0000 </r>
       <r>    6.7896    1.0000 </r>
       <r>    7.0698    1.0000 </r>
       <r>    7.1316    1.0000 </r>
       <r>    7.2155    1.0000 </r>
       <r>    7.2852    1.0000 </r>
       <r>    7.6075    0.0000 </r>
       <r>    7.8393    0.0000 </r>
       <r>    8.0296    0.0000 </r>
       <r>    8.2248    0.0000 </r>
       <r>    8.4794    0.0000 </r>
       <r>    8.4817    0.0000 </r>
       <r>    8.6172    0.0000 </r>
       <r>    8.8118    0.0000 </r>
       <r>   10.2816    0.0000 </r>
       <r>   10.4839    0.0000 </r>
      </set>
      <set comment="kpoint 17">
       <r>  -55.9075    1.0000 </r>
       <r>  -55.9074    1.0000 </r>
       <r>  -55.2899    1.0000 </r>
       <r>  -55.2890    1.0000 </r>
       <r>  -29.2771    1.0000 </r>
       <r>  -29.2771    1.0000 </r>
       <r>  -29.2769    1.0000 </r>
       <r>  -29.2768    1.0000 </r>
       <r>  -29.1951    1.0000 </r>
       <r>  -29.1908    1.0000 </r>
       <r>  -28.8650    1.0000 </r>
       <r>  -28.8647    1.0000 </r>
       <r>  -28.8125    1.0000 </r>
       <r>  -28.8122    1.0000 </r>
       <r>  -28.7293    1.0000 </r>
       <r>  -28.7251    1.0000 </r>
       <r>   -4.3677    1.0000 </r>
       <r>   -2.2573    1.0000 </r>
       <r>   -1.3752    1.0000 </r>
       <r>   -1.1629    1.0000 </r>
       <r>   -0.6681    1.0000 </r>
       <r>   -0.4820    1.0000 </r>
       <r>    2.0074    1.0000 </r>
       <r>    2.4253    1.0000 </r>
       <r>    2.5579    1.0000 </r>
       <r>    2.8720    1.0000 </r>
       <r>    3.3988    1.0000 </r>
       <r>    3.4994    1.0000 </r>
       <r>    3.5301    1.0000 </r>
       <r>    3.5504    1.0000 </r>
       <r>    3.7065    1.0000 </r>
       <r>    3.8038    1.0000 </r>
       <r>    3.9332    1.0000 </r>
       <r>    4.0702    1.0000 </r>
       <r>    5.0902    1.0000 </r>
       <r>    5.8856    1.0000 </r>
       <r>    6.3564    1.0000 </r>
       <r>    6.4028    1.0000 </r>
       <r>    7.3051    1.0000 </r>
       <r>    7.3949    0.9606 </r>
       <r>    7.4029    0.8840 </r>
       <r>    7.5994    0.0000 </r>
       <r>    7.6021    0.0000 </r>
       <r>    7.6988    0.0000 </r>
       <r>    7.7482    0.0000 </r>
       <r>    7.7596    0.0000 </r>
       <r>    7.9070    0.0000 </r>
       <r>    8.1785    0.0000 </r>
       <r>    8.2572    0.0000 </r>
       <r>    8.7010    0.0000 </r>
       <r>    9.0589    0.0000 </r>
       <r>    9.6214    0.0000 </r>
       <r>    9.7118    0.0000 </r>
       <r>    9.8486    0.0000 </r>
      </set>
      <set comment="kpoint 18">
       <r>  -55.9075    1.0000 </r>
       <r>  -55.9074    1.0000 </r>
       <r>  -55.2897    1.0000 </r>
       <r>  -55.2891    1.0000 </r>
       <r>  -29.2773    1.0000 </r>
       <r>  -29.2772    1.0000 </r>
       <r>  -29.2767    1.0000 </r>
       <r>  -29.2766    1.0000 </r>
       <r>  -29.1951    1.0000 </r>
       <r>  -29.1909    1.0000 </r>
       <r>  -28.8648    1.0000 </r>
       <r>  -28.8644    1.0000 </r>
       <r>  -28.8128    1.0000 </r>
       <r>  -28.8122    1.0000 </r>
       <r>  -28.7291    1.0000 </r>
       <r>  -28.7254    1.0000 </r>
       <r>   -4.1397    1.0000 </r>
       <r>   -2.2468    1.0000 </r>
       <r>   -1.8350    1.0000 </r>
       <r>   -1.3818    1.0000 </r>
       <r>   -0.6396    1.0000 </r>
       <r>   -0.2832    1.0000 </r>
       <r>    1.5759    1.0000 </r>
       <r>    2.5178    1.0000 </r>
       <r>    2.7657    1.0000 </r>
       <r>    3.0977    1.0000 </r>
       <r>    3.1137    1.0000 </r>
       <r>    3.1588    1.0000 </r>
       <r>    3.6834    1.0000 </r>
       <r>    3.7932    1.0000 </r>
       <r>    3.8341    1.0000 </r>
       <r>    4.0099    1.0000 </r>
       <r>    4.1613    1.0000 </r>
       <r>    4.5032    1.0000 </r>
       <r>    4.7664    1.0000 </r>
       <r>    5.9789    1.0000 </r>
       <r>    6.1770    1.0000 </r>
       <r>    6.8496    1.0000 </r>
       <r>    7.1553    1.0000 </r>
       <r>    7.2579    1.0000 </r>
       <r>    7.3658    0.9999 </r>
       <r>    7.4395    0.0821 </r>
       <r>    7.5303    0.0000 </r>
       <r>    7.5614    0.0000 </r>
       <r>    7.6148    0.0000 </r>
       <r>    7.8622    0.0000 </r>
       <r>    7.9962    0.0000 </r>
       <r>    8.2353    0.0000 </r>
       <r>    8.2740    0.0000 </r>
       <r>    8.6897    0.0000 </r>
       <r>    8.8139    0.0000 </r>
       <r>    9.2591    0.0000 </r>
       <r>    9.6045    0.0000 </r>
       <r>   10.2793    0.0000 </r>
      </set>
      <set comment="kpoint 19">
       <r>  -55.9075    1.0000 </r>
       <r>  -55.9075    1.0000 </r>
       <r>  -55.2896    1.0000 </r>
       <r>  -55.2893    1.0000 </r>
       <r>  -29.2774    1.0000 </r>
       <r>  -29.2773    1.0000 </r>
       <r>  -29.2767    1.0000 </r>
       <r>  -29.2765    1.0000 </r>
       <r>  -29.1947    1.0000 </r>
       <r>  -29.1914    1.0000 </r>
       <r>  -28.8646    1.0000 </r>
       <r>  -28.8643    1.0000 </r>
       <r>  -28.8129    1.0000 </r>
       <r>  -28.8125    1.0000 </r>
       <r>  -28.7285    1.0000 </r>
       <r>  -28.7260    1.0000 </r>
[...]
       <r>   -2.2581    1.0000 </r>
       <r>   -1.7931    1.0000 </r>
       <r>   -1.1570    1.0000 </r>
       <r>   -0.0332    1.0000 </r>
       <r>    1.0917    1.0000 </r>
       <r>    1.4854    1.0000 </r>
       <r>    2.0137    1.0000 </r>
       <r>    2.0189    1.0000 </r>
       <r>    3.4076    1.0000 </r>
       <r>    3.7598    1.0000 </r>
       <r>    4.1212    1.0000 </r>
       <r>    4.1251    1.0000 </r>
       <r>    4.5447    1.0000 </r>
       <r>    4.6063    1.0000 </r>
       <r>    4.6073    1.0000 </r>
       <r>    4.6476    1.0000 </r>
       <r>    5.7585    1.0000 </r>
       <r>    5.9211    1.0000 </r>
       <r>    5.9383    1.0000 </r>
       <r>    6.4424    1.0000 </r>
       <r>    6.8225    1.0000 </r>
       <r>    6.9977    1.0000 </r>
       <r>    7.4723    0.0001 </r>
       <r>    7.7267    0.0000 </r>
       <r>    7.7503    0.0000 </r>
       <r>    7.8274    0.0000 </r>
       <r>    7.8295    0.0000 </r>
       <r>    7.9887    0.0000 </r>
       <r>    8.2254    0.0000 </r>
       <r>    8.4298    0.0000 </r>
       <r>    8.5466    0.0000 </r>
       <r>    9.3401    0.0000 </r>
       <r>    9.5837    0.0000 </r>
       <r>    9.6624    0.0000 </r>
       <r>   10.2883    0.0000 </r>
       <r>   11.0303    0.0000 </r>
      </set>
      <set comment="kpoint 116">
       <r>  -55.9076    1.0000 </r>
       <r>  -55.9074    1.0000 </r>
       <r>  -55.2898    1.0000 </r>
       <r>  -55.2891    1.0000 </r>
       <r>  -29.2785    1.0000 </r>
       <r>  -29.2784    1.0000 </r>
       <r>  -29.2761    1.0000 </r>
       <r>  -29.2760    1.0000 </r>
       <r>  -29.1959    1.0000 </r>
       <r>  -29.1898    1.0000 </r>
       <r>  -28.8647    1.0000 </r>
       <r>  -28.8646    1.0000 </r>
       <r>  -28.8121    1.0000 </r>
       <r>  -28.8120    1.0000 </r>
       <r>  -28.7299    1.0000 </r>
       <r>  -28.7250    1.0000 </r>
       <r>   -3.0954    1.0000 </r>
       <r>   -2.2974    1.0000 </r>
       <r>   -2.2865    1.0000 </r>
       <r>   -2.0238    1.0000 </r>
       <r>   -0.9633    1.0000 </r>
       <r>   -0.2855    1.0000 </r>
       <r>    1.0534    1.0000 </r>
       <r>    1.4518    1.0000 </r>
       <r>    2.1818    1.0000 </r>
       <r>    2.1829    1.0000 </r>
       <r>    3.3938    1.0000 </r>
       <r>    3.7443    1.0000 </r>
       <r>    4.1749    1.0000 </r>
       <r>    4.1947    1.0000 </r>
       <r>    4.5220    1.0000 </r>
       <r>    4.5344    1.0000 </r>
       <r>    4.5375    1.0000 </r>
       <r>    4.6121    1.0000 </r>
       <r>    5.7700    1.0000 </r>
       <r>    5.7913    1.0000 </r>
       <r>    5.7941    1.0000 </r>
       <r>    6.7303    1.0000 </r>
       <r>    6.7807    1.0000 </r>
       <r>    6.9010    1.0000 </r>
       <r>    7.6125    0.0000 </r>
       <r>    7.7545    0.0000 </r>
       <r>    7.7707    0.0000 </r>
       <r>    7.8179    0.0000 </r>
       <r>    7.8328    0.0000 </r>
       <r>    8.0347    0.0000 </r>
       <r>    8.2413    0.0000 </r>
       <r>    8.4129    0.0000 </r>
       <r>    8.5530    0.0000 </r>
       <r>    9.3061    0.0000 </r>
       <r>    9.5795    0.0000 </r>
       <r>    9.5823    0.0000 </r>
       <r>   10.3136    0.0000 </r>
       <r>   10.8732    0.0000 </r>
      </set>
     </set>
    </set>
   </array>
  </eigenvalues>
  <separator name="orbital magnetization" >
   <v name="MAGDIPOLOUT">      0.00000000      0.00000000      0.00000000</v>
  </separator>
  <dos>
   <i name="efermi">      7.41978184 </i>
   <total>
    <array>
     <dimension dim="1">gridpoints</dimension>
     <dimension dim="2">spin</dimension>
     <field>energy</field>
     <field>total</field>
     <field>integrated</field>
     <set>
      <set comment="spin 1">
       <r>   -59.2545     0.0000     0.0000 </r>
       <r>   -59.0090     0.0000     0.0000 </r>
       <r>   -58.7636     0.0000     0.0000 </r>
       <r>   -58.5182     0.0000     0.0000 </r>
       <r>   -58.2727     0.0000     0.0000 </r>
       <r>   -58.0273     0.0000     0.0000 </r>
       <r>   -57.7818     0.0000     0.0000 </r>
       <r>   -57.5364     0.0000     0.0000 </r>
       <r>   -57.2910     0.0000     0.0000 </r>
       <r>   -57.0455     0.0000     0.0000 </r>
       <r>   -56.8001     0.0000     0.0000 </r>
       <r>   -56.5546     0.0000     0.0000 </r>
       <r>   -56.3092     0.0000     0.0000 </r>
       <r>   -56.0638     0.0000     0.0000 </r>
       <r>   -55.8183    16.2973     4.0000 </r>
       <r>   -55.5729     0.0000     4.0000 </r>
       <r>   -55.3274     0.0586     4.0144 </r>
       <r>   -55.0820     0.0000     8.0000 </r>
       <r>   -54.8366     0.0000     8.0000 </r>
       <r>   -54.5911     0.0000     8.0000 </r>
       <r>   -54.3457     0.0000     8.0000 </r>
       <r>   -54.1002     0.0000     8.0000 </r>
       <r>   -53.8548     0.0000     8.0000 </r>
       <r>   -53.6094     0.0000     8.0000 </r>
       <r>   -53.3639     0.0000     8.0000 </r>
       <r>   -53.1185     0.0000     8.0000 </r>
       <r>   -52.8731     0.0000     8.0000 </r>
       <r>   -52.6276     0.0000     8.0000 </r>
       <r>   -52.3822     0.0000     8.0000 </r>
       <r>   -52.1367     0.0000     8.0000 </r>
       <r>   -51.8913     0.0000     8.0000 </r>
       <r>   -51.6459     0.0000     8.0000 </r>
       <r>   -51.4004     0.0000     8.0000 </r>
       <r>   -51.1550     0.0000     8.0000 </r>
       <r>   -50.9095     0.0000     8.0000 </r>
       <r>   -50.6641     0.0000     8.0000 </r>
       <r>   -50.4187     0.0000     8.0000 </r>
       <r>   -50.1732     0.0000     8.0000 </r>
       <r>   -49.9278     0.0000     8.0000 </r>
       <r>   -49.6823     0.0000     8.0000 </r>
       <r>   -49.4369     0.0000     8.0000 </r>
       <r>   -49.1915     0.0000     8.0000 </r>
       <r>   -48.9460     0.0000     8.0000 </r>
       <r>   -48.7006     0.0000     8.0000 </r>
       <r>   -48.4552     0.0000     8.0000 </r>
       <r>   -48.2097     0.0000     8.0000 </r>
       <r>   -47.9643     0.0000     8.0000 </r>
       <r>   -47.7188     0.0000     8.0000 </r>
       <r>   -47.4734     0.0000     8.0000 </r>
       <r>   -47.2280     0.0000     8.0000 </r>
       <r>   -46.9825     0.0000     8.0000 </r>
       <r>   -46.7371     0.0000     8.0000 </r>
       <r>   -46.4916     0.0000     8.0000 </r>
       <r>   -46.2462     0.0000     8.0000 </r>
       <r>   -46.0008     0.0000     8.0000 </r>
       <r>   -45.7553     0.0000     8.0000 </r>
       <r>   -45.5099     0.0000     8.0000 </r>
       <r>   -45.2644     0.0000     8.0000 </r>
       <r>   -45.0190     0.0000     8.0000 </r>
       <r>   -44.7736     0.0000     8.0000 </r>
       <r>   -44.5281     0.0000     8.0000 </r>
       <r>   -44.2827     0.0000     8.0000 </r>
       <r>   -44.0372     0.0000     8.0000 </r>
       <r>   -43.7918     0.0000     8.0000 </r>
       <r>   -43.5464     0.0000     8.0000 </r>
       <r>   -43.3009     0.0000     8.0000 </r>
       <r>   -43.0555     0.0000     8.0000 </r>
       <r>   -42.8101     0.0000     8.0000 </r>
       <r>   -42.5646     0.0000     8.0000 </r>
       <r>   -42.3192     0.0000     8.0000 </r>
       <r>   -42.0737     0.0000     8.0000 </r>
       <r>   -41.8283     0.0000     8.0000 </r>
       <r>   -41.5829     0.0000     8.0000 </r>
       <r>   -41.3374     0.0000     8.0000 </r>
       <r>   -41.0920     0.0000     8.0000 </r>
       <r>   -40.8465     0.0000     8.0000 </r>
       <r>   -40.6011     0.0000     8.0000 </r>
       <r>   -40.3557     0.0000     8.0000 </r>
       <r>   -40.1102     0.0000     8.0000 </r>
       <r>   -39.8648     0.0000     8.0000 </r>
       <r>   -39.6193     0.0000     8.0000 </r>
       <r>   -39.3739     0.0000     8.0000 </r>
       <r>   -39.1285     0.0000     8.0000 </r>
       <r>   -38.8830     0.0000     8.0000 </r>
       <r>   -38.6376     0.0000     8.0000 </r>
       <r>   -38.3921     0.0000     8.0000 </r>
       <r>   -38.1467     0.0000     8.0000 </r>
       <r>   -37.9013     0.0000     8.0000 </r>
       <r>   -37.6558     0.0000     8.0000 </r>
       <r>   -37.4104     0.0000     8.0000 </r>
       <r>   -37.1650     0.0000     8.0000 </r>
       <r>   -36.9195     0.0000     8.0000 </r>
       <r>   -36.6741     0.0000     8.0000 </r>
       <r>   -36.4286     0.0000     8.0000 </r>
       <r>   -36.1832     0.0000     8.0000 </r>
       <r>   -35.9378     0.0000     8.0000 </r>
       <r>   -35.6923     0.0000     8.0000 </r>
       <r>   -35.4469     0.0000     8.0000 </r>
       <r>   -35.2014     0.0000     8.0000 </r>
       <r>   -34.9560     0.0000     8.0000 </r>
       <r>   -34.7106     0.0000     8.0000 </r>
       <r>   -34.4651     0.0000     8.0000 </r>
       <r>   -34.2197     0.0000     8.0000 </r>
       <r>   -33.9742     0.0000     8.0000 </r>
       <r>   -33.7288     0.0000     8.0000 </r>
       <r>   -33.4834     0.0000     8.0000 </r>
       <r>   -33.2379     0.0000     8.0000 </r>
       <r>   -32.9925     0.0000     8.0000 </r>
       <r>   -32.7471     0.0000     8.0000 </r>
       <r>   -32.5016     0.0000     8.0000 </r>
       <r>   -32.2562     0.0000     8.0000 </r>
       <r>   -32.0107     0.0000     8.0000 </r>
       <r>   -31.7653     0.0000     8.0000 </r>
       <r>   -31.5199     0.0000     8.0000 </r>
       <r>   -31.2744     0.0000     8.0000 </r>
       <r>   -31.0290     0.0000     8.0000 </r>
       <r>   -30.7835     0.0000     8.0000 </r>
       <r>   -30.5381     0.0000     8.0000 </r>
       <r>   -30.2927     0.0000     8.0000 </r>
       <r>   -30.0472     0.0000     8.0000 </r>
       <r>   -29.8018     0.0000     8.0000 </r>
       <r>   -29.5563     0.0000     8.0000 </r>
       <r>   -29.3109     0.2717     8.0667 </r>
       <r>   -29.0655    16.2973    20.0000 </r>
       <r>   -28.8200    21.1107    25.1814 </r>
       <r>   -28.5746    16.2973    32.0000 </r>
       <r>   -28.3291     0.0000    32.0000 </r>
       <r>   -28.0837     0.0000    32.0000 </r>
       <r>   -27.8383     0.0000    32.0000 </r>
       <r>   -27.5928     0.0000    32.0000 </r>
       <r>   -27.3474     0.0000    32.0000 </r>
       <r>   -27.1020     0.0000    32.0000 </r>
       <r>   -26.8565     0.0000    32.0000 </r>
       <r>   -26.6111     0.0000    32.0000 </r>
       <r>   -26.3656     0.0000    32.0000 </r>
       <r>   -26.1202     0.0000    32.0000 </r>
       <r>   -25.8748     0.0000    32.0000 </r>
       <r>   -25.6293     0.0000    32.0000 </r>
       <r>   -25.3839     0.0000    32.0000 </r>
       <r>   -25.1384     0.0000    32.0000 </r>
       <r>   -24.8930     0.0000    32.0000 </r>
       <r>   -24.6476     0.0000    32.0000 </r>
       <r>   -24.4021     0.0000    32.0000 </r>
       <r>   -24.1567     0.0000    32.0000 </r>
       <r>   -23.9112     0.0000    32.0000 </r>
       <r>   -23.6658     0.0000    32.0000 </r>
       <r>   -23.4204     0.0000    32.0000 </r>
       <r>   -23.1749     0.0000    32.0000 </r>
       <r>   -22.9295     0.0000    32.0000 </r>
       <r>   -22.6841     0.0000    32.0000 </r>
       <r>   -22.4386     0.0000    32.0000 </r>
       <r>   -22.1932     0.0000    32.0000 </r>
       <r>   -21.9477     0.0000    32.0000 </r>
       <r>   -21.7023     0.0000    32.0000 </r>
       <r>   -21.4569     0.0000    32.0000 </r>
       <r>   -21.2114     0.0000    32.0000 </r>
       <r>   -20.9660     0.0000    32.0000 </r>
       <r>   -20.7205     0.0000    32.0000 </r>
       <r>   -20.4751     0.0000    32.0000 </r>
       <r>   -20.2297     0.0000    32.0000 </r>
       <r>   -19.9842     0.0000    32.0000 </r>
       <r>   -19.7388     0.0000    32.0000 </r>
       <r>   -19.4933     0.0000    32.0000 </r>
       <r>   -19.2479     0.0000    32.0000 </r>
       <r>   -19.0025     0.0000    32.0000 </r>
       <r>   -18.7570     0.0000    32.0000 </r>
       <r>   -18.5116     0.0000    32.0000 </r>
       <r>   -18.2661     0.0000    32.0000 </r>
       <r>   -18.0207     0.0000    32.0000 </r>
       <r>   -17.7753     0.0000    32.0000 </r>
       <r>   -17.5298     0.0000    32.0000 </r>
       <r>   -17.2844     0.0000    32.0000 </r>
       <r>   -17.0390     0.0000    32.0000 </r>
       <r>   -16.7935     0.0000    32.0000 </r>
       <r>   -16.5481     0.0000    32.0000 </r>
       <r>   -16.3026     0.0000    32.0000 </r>
       <r>   -16.0572     0.0000    32.0000 </r>
       <r>   -15.8118     0.0000    32.0000 </r>
       <r>   -15.5663     0.0000    32.0000 </r>
       <r>   -15.3209     0.0000    32.0000 </r>
       <r>   -15.0754     0.0000    32.0000 </r>
       <r>   -14.8300     0.0000    32.0000 </r>
       <r>   -14.5846     0.0000    32.0000 </r>
       <r>   -14.3391     0.0000    32.0000 </r>
       <r>   -14.0937     0.0000    32.0000 </r>
       <r>   -13.8482     0.0000    32.0000 </r>
       <r>   -13.6028     0.0000    32.0000 </r>
       <r>   -13.3574     0.0000    32.0000 </r>
       <r>   -13.1119     0.0000    32.0000 </r>
       <r>   -12.8665     0.0000    32.0000 </r>
       <r>   -12.6211     0.0000    32.0000 </r>
       <r>   -12.3756     0.0000    32.0000 </r>
       <r>   -12.1302     0.0000    32.0000 </r>
       <r>   -11.8847     0.0000    32.0000 </r>
       <r>   -11.6393     0.0000    32.0000 </r>
       <r>   -11.3939     0.0000    32.0000 </r>
       <r>   -11.1484     0.0000    32.0000 </r>
       <r>   -10.9030     0.0000    32.0000 </r>
       <r>   -10.6575     0.0000    32.0000 </r>
       <r>   -10.4121     0.0000    32.0000 </r>
       <r>   -10.1667     0.0000    32.0000 </r>
       <r>    -9.9212     0.0000    32.0000 </r>
       <r>    -9.6758     0.0000    32.0000 </r>
       <r>    -9.4303     0.0000    32.0000 </r>
       <r>    -9.1849     0.0000    32.0000 </r>
       <r>    -8.9395     0.0000    32.0000 </r>
       <r>    -8.6940     0.0000    32.0000 </r>
       <r>    -8.4486     0.0000    32.0000 </r>
       <r>    -8.2031     0.0000    32.0000 </r>
       <r>    -7.9577     0.0000    32.0000 </r>
       <r>    -7.7123     0.0000    32.0000 </r>
       <r>    -7.4668     0.0000    32.0000 </r>
       <r>    -7.2214     0.0000    32.0000 </r>
       <r>    -6.9760     0.0000    32.0000 </r>
       <r>    -6.7305     0.0000    32.0000 </r>
       <r>    -6.4851     0.0000    32.0000 </r>
       <r>    -6.2396     0.0000    32.0000 </r>
       <r>    -5.9942     0.0000    32.0000 </r>
       <r>    -5.7488     0.0000    32.0000 </r>
       <r>    -5.5033     0.0000    32.0000 </r>
       <r>    -5.2579     0.0000    32.0000 </r>
       <r>    -5.0124     0.0000    32.0000 </r>
       <r>    -4.7670     0.0000    32.0000 </r>
       <r>    -4.5216     0.0000    32.0000 </r>
       <r>    -4.2761     0.2926    32.0769 </r>
       <r>    -4.0307     0.8206    32.3085 </r>
       <r>    -3.7852     1.0136    32.5702 </r>
       <r>    -3.5398     0.7417    32.8810 </r>
       <r>    -3.2944     1.3276    33.3207 </r>
       <r>    -3.0489     1.3723    33.8623 </r>
       <r>    -2.8035     1.6951    34.4722 </r>
       <r>    -2.5581     2.0074    35.1815 </r>
       <r>    -2.3126     2.3797    36.0484 </r>
       <r>    -2.0672     3.2740    37.5536 </r>
       <r>    -1.8217     1.9271    38.3659 </r>
       <r>    -1.5763     1.7139    39.1605 </r>
       <r>    -1.3309     1.3131    39.7968 </r>
       <r>    -1.0854     2.0530    40.4325 </r>
       <r>    -0.8400     0.9047    40.8190 </r>
       <r>    -0.5945     0.7661    41.1013 </r>
       <r>    -0.3491     1.7091    41.6083 </r>
       <r>    -0.1037     1.4718    42.3918 </r>
       <r>     0.1418     1.3195    42.8443 </r>
       <r>     0.3872     1.3111    43.4953 </r>
       <r>     0.6327     1.6069    43.9862 </r>
       <r>     0.8781     1.2944    44.4197 </r>
       <r>     1.1235     1.4445    44.9566 </r>
       <r>     1.3690     1.4468    45.4572 </r>
       <r>     1.6144     1.5881    46.1041 </r>
       <r>     1.8599     1.7804    46.8553 </r>
       <r>     2.1053     2.5868    47.7216 </r>
       <r>     2.3507     2.6448    48.6951 </r>
       <r>     2.5962     3.5708    49.8050 </r>
       <r>     2.8416     3.3115    51.0577 </r>
       <r>     3.0870     2.7371    52.0493 </r>
       <r>     3.3325     3.2006    53.5049 </r>
       <r>     3.5779     4.4734    54.9551 </r>
       <r>     3.8234     9.0255    58.0673 </r>
       <r>     4.0688     6.6967    61.2202 </r>
       <r>     4.3142     6.2884    63.5587 </r>
       <r>     4.5597     4.9392    65.3653 </r>
       <r>     4.8051     4.3685    67.0722 </r>
       <r>     5.0506     2.3727    68.0415 </r>
       <r>     5.2960     2.0865    68.9101 </r>
       <r>     5.5414     1.5469    69.5174 </r>
       <r>     5.7869     2.2245    70.3878 </r>
       <r>     6.0323     2.6331    71.4881 </r>
       <r>     6.2778     2.0657    72.2774 </r>
       <r>     6.5232     3.0735    73.4635 </r>
       <r>     6.7686     6.0868    75.6827 </r>
       <r>     7.0141     9.6817    79.0752 </r>
       <r>     7.2595     8.0031    82.1582 </r>
       <r>     7.5049     7.8061    85.1710 </r>
       <r>     7.7504     8.2099    88.7446 </r>
       <r>     7.9958    10.1897    92.6030 </r>
       <r>     8.2413     9.7081    95.8368 </r>
       <r>     8.4867     3.8572    97.5436 </r>
       <r>     8.7321     4.0666    99.0542 </r>
       <r>     8.9776     4.6550   100.6527 </r>
       <r>     9.2230     2.8729   101.8276 </r>
       <r>     9.4685     2.3343   102.9352 </r>
       <r>     9.7139     3.4528   104.1587 </r>
       <r>     9.9593     3.1912   105.2986 </r>
       <r>    10.2048     3.6561   106.6984 </r>
       <r>    10.4502     2.5252   107.5943 </r>
       <r>    10.6957     0.4085   107.8860 </r>
       <r>    10.9411     0.2910   107.9898 </r>
       <r>    11.1865     0.0416   108.0000 </r>
       <r>    11.4320     0.0000   108.0000 </r>
       <r>    11.6774     0.0000   108.0000 </r>
       <r>    11.9229     0.0000   108.0000 </r>
       <r>    12.1683     0.0000   108.0000 </r>
       <r>    12.4137     0.0000   108.0000 </r>
       <r>    12.6592     0.0000   108.0000 </r>
       <r>    12.9046     0.0000   108.0000 </r>
       <r>    13.1500     0.0000   108.0000 </r>
       <r>    13.3955     0.0000   108.0000 </r>
       <r>    13.6409     0.0000   108.0000 </r>
       <r>    13.8864     0.0000   108.0000 </r>
       <r>    14.1318     0.0000   108.0000 </r>
       <r>    14.3772     0.0000   108.0000 </r>
      </set>
     </set>
    </array>
   </total>
  </dos>
 </calculation>
 <structure name="finalpos" >
  <crystal>
   <varray name="basis" >
    <v>       5.64435659       0.00000000      -3.02153267 </v>
    <v>      -2.02485087       5.26865640      -3.02153267 </v>
    <v>       0.00000000       0.00000000       6.40222000 </v>
   </varray>
   <i name="volume">    190.39034155 </i>
   <varray name="rec_basis" >
    <v>       0.17716811       0.06808928       0.00000000 </v>
    <v>       0.00000000       0.18980171       0.00000000 </v>
    <v>       0.08361463       0.12171185       0.15619582 </v>
   </varray>
  </crystal>
  <varray name="positions" >
   <v>       0.00000000       0.00000000       0.50000000 </v>
   <v>       0.00000000       0.50000000       0.00000000 </v>
   <v>       0.50000000       0.50000000       0.50000000 </v>
   <v>       0.50000000       0.00000000       0.00000000 </v>
   <v>       0.00000000       0.50000000       0.50000000 </v>
   <v>       0.25000000       0.25000000       0.00000000 </v>
   <v>       0.75000000       0.75000000       0.00000000 </v>
   <v>       0.50000000       0.00000000       0.50000000 </v>
   <v>       0.24609000       0.74609000       0.99218000 </v>
   <v>       0.75391000       0.25391000       0.00782000 </v>
   <v>       0.74609000       0.75391000       0.50000000 </v>
   <v>       0.25391000       0.24609000       0.50000000 </v>
  </varray>
 </structure>
</modeling>
