 vasp.6.2.0 18Jan21 (build Jan 05 2022 15:41:44) complex                        
  
 executed on             LinuxIFC date 2025.05.07  17:27:06
 running on   24 total cores
 distrk:  each k-point on   12 cores,    2 groups
 distr:  one band on NCORE=   2 cores,    6 groups


--------------------------------------------------------------------------------------------------------


 INCAR:
   SYSTEM = routine with relax: pwdword
   ICHARG = 2
   NPAR = 6
   KPAR = 2
   NCORE = 2
   ADDGRID = T
   PREC = Acc
   ENCUT = 600
   METAGGA = R2SCAN
   LASPH = .TRUE.
   LMIXTAU = .FALSE.
   ALGO = A
   EDIFF = 1E-9
   NELM = 100
   NELMIN = 6
   IALGO = 38
   LREAL = F
   NSW = 0
   ISIF = -1
   ISMEAR = 0
   SIGMA = 0.02

 POTCAR:    PAW_PBE B 06Sep2000                   
 POTCAR:    PAW_PBE Mo_sv 02Feb2006               
 POTCAR:    PAW_PBE Si 05Jan2001                  
 -----------------------------------------------------------------------------
|                                                                             |
|           W    W    AA    RRRRR   N    N  II  N    N   GGGG   !!!           |
|           W    W   A  A   R    R  NN   N  II  NN   N  G    G  !!!           |
|           W    W  A    A  R    R  N N  N  II  N N  N  G       !!!           |
|           W WW W  AAAAAA  RRRRR   N  N N  II  N  N N  G  GGG   !            |
|           WW  WW  A    A  R   R   N   NN  II  N   NN  G    G                |
|           W    W  A    A  R    R  N    N  II  N    N   GGGG   !!!           |
|                                                                             |
|     For optimal performance we recommend to set                             |
|       NCORE = 2 up to number-of-cores-per-socket                            |
|     NCORE specifies how many cores store one orbital (NPAR=cpu/NCORE).      |
|     This setting can greatly improve the performance of VASP for DFT.       |
|     The default, NCORE=1 might be grossly inefficient on modern             |
|     multi-core architectures or massively parallel machines. Do your        |
|     own testing! More info at https://www.vasp.at/wiki/index.php/NCORE      |
|     Unfortunately you need to use the default for GW and RPA                |
|     calculations (for HF NCORE is supported but not extensively tested      |
|     yet).                                                                   |
|                                                                             |
 -----------------------------------------------------------------------------

 POTCAR:    PAW_PBE B 06Sep2000                   
   VRHFIN =B: s2p1                                                                                  
   LEXCH  = PE                                                                                      
   EATOM  =    71.1703 eV,    5.2309 Ry                                                             
                                                                                                    
   TITEL  = PAW_PBE B 06Sep2000                                                                     
   LULTRA =        F    use ultrasoft PP ?                                                          
   IUNSCR =        1    unscreen: 0-lin 1-nonlin 2-no                                               
   RPACOR =    1.200    partial core radius                                                         
   POMASS =   10.811; ZVAL   =    3.000    mass and valenz                                          
   RCORE  =    1.700    outmost cutoff radius                                                       
   RWIGS  =    1.710; RWIGS  =    0.905    wigner-seitz radius (au A)                               
   ENMAX  =  318.614; ENMIN  =  238.960 eV                                                          
   ICORE  =        2    local potential                                                             
   LCOR   =        T    correct aug charges                                                         
   LPAW   =        T    paw PP                                                                      
   EAUG   =  535.514                                                                                
   DEXC   =    0.000                                                                                
   RMAX   =    1.732    core radius for proj-oper                                                   
   RAUG   =    1.300    factor for augmentation sphere                                              
   RDEP   =    1.757    radius for radial grids                                                     
   RDEPT  =    1.436    core radius for aug-charge                                                  
                                                                                                    
   Atomic configuration                                                                             
    4 entries                                                                                       
     n  l   j            E        occ.                                                              
     1  0  0.50      -180.5896   2.0000                                                             
     2  0  0.50        -9.4431   2.0000                                                             
     2  1  0.50        -3.6068   1.0000                                                             
     3  2  1.50        -4.0817   0.0000                                                             
   Description                                                                                      
     l       E           TYP  RCUT    TYP  RCUT                                                     
     0     -9.4430752     23  1.500                                                                 
     0      0.8675899     23  1.500                                                                 
     1     -3.6067955     23  1.700                                                                 
     1      6.1086146     23  1.700                                                                 
     2     -4.0817478      7  1.700                                                                 
  local pseudopotential read in
  partial core-charges read in
  partial kinetic energy density read in
  atomic valenz-charges read in
  non local Contribution for L=           0  read in
    real space projection operators read in
  non local Contribution for L=           0  read in
    real space projection operators read in
  non local Contribution for L=           1  read in
    real space projection operators read in
  non local Contribution for L=           1  read in
    real space projection operators read in
    PAW grid and wavefunctions read in
 
   number of l-projection  operators is LMAX  =           4
   number of lm-projection operators is LMMAX =           8
 
 POTCAR:    PAW_PBE Mo_sv 02Feb2006               
   VRHFIN =Mo: 4p5s4d                                                                               
   LEXCH  = PE                                                                                      
   EATOM  =  1862.2866 eV,  136.8742 Ry                                                             
                                                                                                    
   TITEL  = PAW_PBE Mo_sv 02Feb2006                                                                 
   LULTRA =        F    use ultrasoft PP ?                                                          
   IUNSCR =        1    unscreen: 0-lin 1-nonlin 2-no                                               
   RPACOR =    2.200    partial core radius                                                         
   POMASS =   95.940; ZVAL   =   14.000    mass and valenz                                          
   RCORE  =    2.500    outmost cutoff radius                                                       
   RWIGS  =    2.750; RWIGS  =    1.455    wigner-seitz radius (au A)                               
   ENMAX  =  242.676; ENMIN  =  182.007 eV                                                          
   ICORE  =        3    local potential                                                             
   LCOR   =        T    correct aug charges                                                         
   LPAW   =        T    paw PP                                                                      
   EAUG   =  446.014                                                                                
   DEXC   =    0.000                                                                                
   RMAX   =    2.563    core radius for proj-oper                                                   
   RAUG   =    1.300    factor for augmentation sphere                                              
   RDEP   =    2.641    radius for radial grids                                                     
   RDEPT  =    2.031    core radius for aug-charge                                                  
                                                                                                    
   Atomic configuration                                                                             
   11 entries                                                                                       
     n  l   j            E        occ.                                                              
     1  0  0.50    -19819.0341   2.0000                                                             
     2  0  0.50     -2799.0127   2.0000                                                             
     2  1  1.50     -2502.0276   6.0000                                                             
     3  0  0.50      -476.4449   2.0000                                                             
     3  1  1.50      -379.1496   6.0000                                                             
     3  2  2.50      -220.9367  10.0000                                                             
     4  0  0.50       -64.3378   2.0000                                                             
     5  0  0.50        -4.0862   1.0000                                                             
     4  1  1.50       -38.4773   6.0000                                                             
     4  2  2.50        -3.7535   5.0000                                                             
     4  3  2.50        -1.3606   0.0000                                                             
   Description                                                                                      
     l       E           TYP  RCUT    TYP  RCUT                                                     
     0    -64.3377829     23  2.100                                                                 
     0     -4.0861640     23  2.400                                                                 
     1    -38.4772993     23  2.100                                                                 
     1     13.6058260     23  2.100                                                                 
     2     -3.7534941     23  2.400                                                                 
     2     -5.1140767     23  2.400                                                                 
     3     -4.0817478     23  2.500                                                                 
  local pseudopotential read in
  partial core-charges read in
  partial kinetic energy density read in
  atomic valenz-charges read in
  non local Contribution for L=           0  read in
    real space projection operators read in
  non local Contribution for L=           0  read in
    real space projection operators read in
  non local Contribution for L=           1  read in
    real space projection operators read in
  non local Contribution for L=           1  read in
    real space projection operators read in
  non local Contribution for L=           2  read in
    real space projection operators read in
  non local Contribution for L=           2  read in
    real space projection operators read in
    PAW grid and wavefunctions read in
 
   number of l-projection  operators is LMAX  =           6
   number of lm-projection operators is LMMAX =          18
 
 POTCAR:    PAW_PBE Si 05Jan2001                  
   VRHFIN =Si: s2p2                                                                                 
   LEXCH  = PE                                                                                      
   EATOM  =   103.0669 eV,    7.5752 Ry                                                             
                                                                                                    
   TITEL  = PAW_PBE Si 05Jan2001                                                                    
   LULTRA =        F    use ultrasoft PP ?                                                          
   IUNSCR =        1    unscreen: 0-lin 1-nonlin 2-no                                               
   RPACOR =    1.500    partial core radius                                                         
   POMASS =   28.085; ZVAL   =    4.000    mass and valenz                                          
   RCORE  =    1.900    outmost cutoff radius                                                       
   RWIGS  =    2.480; RWIGS  =    1.312    wigner-seitz radius (au A)                               
   ENMAX  =  245.345; ENMIN  =  184.009 eV                                                          
   ICORE  =        2    local potential                                                             
   LCOR   =        T    correct aug charges                                                         
   LPAW   =        T    paw PP                                                                      
   EAUG   =  322.069                                                                                
   DEXC   =    0.000                                                                                
   RMAX   =    1.950    core radius for proj-oper                                                   
   RAUG   =    1.300    factor for augmentation sphere                                              
   RDEP   =    1.993    radius for radial grids                                                     
   RDEPT  =    1.837    core radius for aug-charge                                                  
                                                                                                    
   Atomic configuration                                                                             
    6 entries                                                                                       
     n  l   j            E        occ.                                                              
     1  0  0.50     -1785.8828   2.0000                                                             
     2  0  0.50      -139.4969   2.0000                                                             
     2  1  1.50       -95.5546   6.0000                                                             
     3  0  0.50       -10.8127   2.0000                                                             
     3  1  0.50        -4.0811   2.0000                                                             
     3  2  1.50        -4.0817   0.0000                                                             
   Description                                                                                      
     l       E           TYP  RCUT    TYP  RCUT                                                     
     0    -10.8127223     23  1.900                                                                 
     0     -7.6451159     23  1.900                                                                 
     1     -4.0811372     23  1.900                                                                 
     1      2.4879257     23  1.900                                                                 
     2     -4.0817478      7  1.900                                                                 
  local pseudopotential read in
  partial core-charges read in
  partial kinetic energy density read in
  atomic valenz-charges read in
  non local Contribution for L=           0  read in
    real space projection operators read in
  non local Contribution for L=           0  read in
    real space projection operators read in
  non local Contribution for L=           1  read in
    real space projection operators read in
  non local Contribution for L=           1  read in
    real space projection operators read in
    PAW grid and wavefunctions read in
 
   number of l-projection  operators is LMAX  =           4
   number of lm-projection operators is LMMAX =           8
 
  PAW_PBE B 06Sep2000                   :
 energy of atom  1       EATOM=  -71.1703
 kinetic energy error for atom=    0.0007 (will be added to EATOM!!)
  PAW_PBE Mo_sv 02Feb2006               :
 energy of atom  2       EATOM=-1862.2866
 kinetic energy error for atom=    0.0041 (will be added to EATOM!!)
  PAW_PBE Si 05Jan2001                  :
 energy of atom  3       EATOM= -103.0669
 kinetic energy error for atom=    0.0003 (will be added to EATOM!!)
 
 
 POSCAR: EA120
  positions in direct lattice
  No initial velocities read in

 METAGGA = R2SCA    LMAXTAU =  6    LMIXTAU =  F

 exchange correlation table for  LEXCH =        8
   RHO(1)=    0.500       N(1)  =     2000
   RHO(2)=  100.500       N(2)  =     4000
 


--------------------------------------------------------------------------------------------------------


 ion  position               nearest neighbor table
   1  0.707  0.207  0.914-   9 1.24  11 1.85  10 2.27   5 2.27   7 2.31   6 2.31  12 2.62
   2  0.293  0.793  0.086-   8 1.24  11 1.85  10 2.27   5 2.27   7 2.31   6 2.31  12 2.62
   3  0.207  0.293  0.500-   6 1.24  12 1.85   5 2.27  10 2.27   8 2.31   9 2.31  11 2.62
   4  0.793  0.707  0.500-   7 1.24  12 1.85  10 2.27   5 2.27   8 2.31   9 2.31  11 2.62
   5  0.500  0.500  0.000-   1 2.27   2 2.27   4 2.27   3 2.27   9 2.39   8 2.39   7 2.39   6 2.39
                            11 3.16  12 3.16  11 3.16  12 3.16
   6  0.345  0.155  0.500-   3 1.24  11 1.39   1 2.31   2 2.31  10 2.39   5 2.39   7 2.77  12 3.09
                             8 3.38   9 3.38   9 3.38   8 3.38
   7  0.655  0.845  0.500-   4 1.24  11 1.39   1 2.31   2 2.31  10 2.39   5 2.39   6 2.77  12 3.09
                             8 3.38   9 3.38   9 3.38   8 3.38
   8  0.155  0.655  0.810-   2 1.24  12 1.39   4 2.31   3 2.31  10 2.39   5 2.39   9 2.77  11 3.09
                             6 3.38   7 3.38   6 3.38   7 3.38
   9  0.845  0.345  0.190-   1 1.24  12 1.39   3 2.31   4 2.31  10 2.39   5 2.39   8 2.77  11 3.09
                             7 3.38   6 3.38   6 3.38   7 3.38
  10  0.000  0.000  0.000-   1 2.27   2 2.27   3 2.27   4 2.27   9 2.39   8 2.39   6 2.39   7 2.39
                            11 3.16  12 3.16  12 3.16  11 3.16
  11  0.500  0.000  0.500-   6 1.39   7 1.39   1 1.85   2 1.85   3 2.62   4 2.62   9 3.09   8 3.09
                            10 3.16   5 3.16   5 3.16  10 3.16
  12  0.000  0.500  0.500-   8 1.39   9 1.39   3 1.85   4 1.85   2 2.62   1 2.62   7 3.09   6 3.09
                            10 3.16   5 3.16  10 3.16   5 3.16
 
 -----------------------------------------------------------------------------
|                                                                             |
|           W    W    AA    RRRRR   N    N  II  N    N   GGGG   !!!           |
|           W    W   A  A   R    R  NN   N  II  NN   N  G    G  !!!           |
|           W    W  A    A  R    R  N N  N  II  N N  N  G       !!!           |
|           W WW W  AAAAAA  RRRRR   N  N N  II  N  N N  G  GGG   !            |
|           WW  WW  A    A  R   R   N   NN  II  N   NN  G    G                |
|           W    W  A    A  R    R  N    N  II  N    N   GGGG   !!!           |
|                                                                             |
|     The distance between some ions is very small. Please check the          |
|     nearest-neighbor list in the OUTCAR file.                               |
|     I HOPE YOU KNOW WHAT YOU ARE DOING!                                     |
|                                                                             |
 -----------------------------------------------------------------------------

  LATTYP: Found a body centered tetragonal cell.
 ALAT       =     6.3236191197
 C/A-ratio  =     1.4217978584
  
  Lattice vectors:
  
 A1 = (   5.4812920495,   0.0000000000,  -3.1872431686)
 A2 = (  -1.8140588109,   5.1724030356,  -3.1872431686)
 A3 = (   0.0000000000,   0.0000000000,   6.3405900000)


Analysis of symmetry for initial positions (statically):
=====================================================================
 Subroutine PRICEL returns:
 Original cell was already a primitive cell.
 

 Routine SETGRP: Setting up the symmetry group for a 
 body centered tetragonal supercell.


 Subroutine GETGRP returns: Found 16 space group operations
 (whereof  8 operations were pure point group operations)
 out of a pool of 16 trial point group operations.


The static configuration has the point symmetry C_4h.
 The point group associated with its full space group is D_4h.


Analysis of symmetry for dynamics (positions and initial velocities):
=====================================================================
 Subroutine PRICEL returns:
 Original cell was already a primitive cell.
 

 Routine SETGRP: Setting up the symmetry group for a 
 body centered tetragonal supercell.


 Subroutine GETGRP returns: Found 16 space group operations
 (whereof  8 operations were pure point group operations)
 out of a pool of 16 trial point group operations.


The dynamic configuration has the point symmetry C_4h.
 The point group associated with its full space group is D_4h.


 Subroutine INISYM returns: Found 16 space group operations
 (whereof  8 operations are pure point group operations),
 and found     1 'primitive' translations


----------------------------------------------------------------------------------------

                                     Primitive cell                                     

  volume of cell :     179.7649

  direct lattice vectors                    reciprocal lattice vectors
     5.481292050  0.000000000 -3.187243169     0.182438737  0.063984689  0.000000000
    -1.814058811  5.172403036 -3.187243169     0.000000000  0.193333735  0.000000000
     0.000000000  0.000000000  6.340590000     0.091707021  0.129347015  0.157714030

  length of vectors
     6.340590000  6.340590000  6.340590000     0.193333735  0.193333735  0.223639315

  position of ions in fractional coordinates (direct lattice)
     0.706980000  0.206980000  0.913960000
     0.293020000  0.793020000  0.086040000
     0.206980000  0.293020000  0.500000000
     0.793020000  0.706980000  0.500000000
     0.500000000  0.500000000  0.000000000
     0.345110000  0.154890000  0.500000000
     0.654890000  0.845110000  0.500000000
     0.154890000  0.654890000  0.809780000
     0.845110000  0.345110000  0.190220000
     0.000000000  0.000000000  0.000000000
     0.500000000  0.000000000  0.500000000
     0.000000000  0.500000000  0.500000000

  ion indices of the primitive-cell ions
   primitive index   ion index
                 1           1
                 2           2
                 3           3
                 4           4
                 5           5
                 6           6
                 7           7
                 8           8
                 9           9
                10          10
                11          11
                12          12

----------------------------------------------------------------------------------------

 
 
 KPOINTS: EA                                      

Automatic generation of k-mesh.
 Grid dimensions read from file:
 generate k-points for:    7    7    8

 Generating k-lattice:

  Cartesian coordinates                     Fractional coordinates (reciprocal lattice)
     0.026062677  0.009140670  0.000000000     0.142857143  0.000000000  0.000000000
     0.000000000  0.027619105  0.000000000     0.000000000  0.142857143  0.000000000
     0.011463378  0.016168377  0.019714254     0.000000000  0.000000000  0.125000000

  Length of vectors
     0.027619105  0.027619105  0.027954914

  Shift w.r.t. Gamma in fractional coordinates (k-lattice)
     0.000000000  0.000000000  0.000000000

 -----------------------------------------------------------------------------
|                                                                             |
|           W    W    AA    RRRRR   N    N  II  N    N   GGGG   !!!           |
|           W    W   A  A   R    R  NN   N  II  NN   N  G    G  !!!           |
|           W    W  A    A  R    R  N N  N  II  N N  N  G       !!!           |
|           W WW W  AAAAAA  RRRRR   N  N N  II  N  N N  G  GGG   !            |
|           WW  WW  A    A  R   R   N   NN  II  N   NN  G    G                |
|           W    W  A    A  R    R  N    N  II  N    N   GGGG   !!!           |
|                                                                             |
|     Your reciprocal lattice and k-lattice belong to different lattice       |
|     classes:                                                                |
|                                                                             |
|        The reciprocal lattice is body-centered tetragonal,                  |
|        whereas your k-lattice is base-centered monoclinic.                  |
|                                                                             |
|     Results are often still useful ...                                      |
|                                                                             |
 -----------------------------------------------------------------------------

 WARNING: IBZKPT: internal override: KBLOWUP is changed to .FALSE.
      ... skipping the blow-up phase ...

 
 Subroutine IBZKPT returns following result:
 ===========================================
 
 Found    116 irreducible k-points:
 
 Following reciprocal coordinates:
            Coordinates               Weight
  0.000000  0.000000  0.000000      1.000000
  0.142857  0.000000  0.000000      4.000000
  0.285714  0.000000  0.000000      4.000000
  0.428571  0.000000  0.000000      4.000000
  0.142857  0.142857  0.000000      2.000000
  0.285714  0.142857  0.000000      4.000000
  0.428571  0.142857  0.000000      4.000000
 -0.428571  0.142857  0.000000      4.000000
 -0.285714  0.142857  0.000000      4.000000
 -0.142857  0.142857  0.000000      2.000000
  0.285714  0.285714  0.000000      2.000000
  0.428571  0.285714  0.000000      4.000000
 -0.428571  0.285714  0.000000      4.000000
 -0.285714  0.285714  0.000000      2.000000
  0.428571  0.428571  0.000000      2.000000
 -0.428571  0.428571  0.000000      2.000000
  0.000000 -0.000000  0.125000      2.000000
  0.142857 -0.000000  0.125000      4.000000
  0.285714  0.000000  0.125000      4.000000
  0.428571  0.000000  0.125000      4.000000
 -0.428571  0.000000  0.125000      4.000000
 -0.285714  0.000000  0.125000      4.000000
 -0.142857  0.000000  0.125000      4.000000
  0.142857  0.142857  0.125000      2.000000
  0.285714  0.142857  0.125000      4.000000
  0.428571  0.142857  0.125000      4.000000
 -0.428571  0.142857  0.125000      4.000000
 -0.285714  0.142857  0.125000      4.000000
 -0.142857  0.142857  0.125000      4.000000
  0.285714  0.285714  0.125000      2.000000
  0.428571  0.285714  0.125000      4.000000
 -0.428571  0.285714  0.125000      4.000000
 -0.285714  0.285714  0.125000      4.000000
 -0.142857  0.285714  0.125000      4.000000
  0.428571  0.428571  0.125000      2.000000
 -0.428571  0.428571  0.125000      4.000000
 -0.285714  0.428571  0.125000      4.000000
 -0.142857  0.428571  0.125000      4.000000
 -0.428571 -0.428571  0.125000      2.000000
 -0.285714 -0.428571  0.125000      4.000000
 -0.142857 -0.428571  0.125000      4.000000
 -0.285714 -0.285714  0.125000      2.000000
 -0.142857 -0.285714  0.125000      4.000000
 -0.142857 -0.142857  0.125000      2.000000
  0.000000 -0.000000  0.250000      2.000000
  0.142857 -0.000000  0.250000      4.000000
  0.285714 -0.000000  0.250000      4.000000
  0.428571 -0.000000  0.250000      4.000000
 -0.428571  0.000000  0.250000      4.000000
 -0.285714  0.000000  0.250000      4.000000
 -0.142857  0.000000  0.250000      4.000000
  0.142857  0.142857  0.250000      2.000000
  0.285714  0.142857  0.250000      4.000000
  0.428571  0.142857  0.250000      4.000000
 -0.428571  0.142857  0.250000      4.000000
 -0.285714  0.142857  0.250000      4.000000
 -0.142857  0.142857  0.250000      4.000000
  0.285714  0.285714  0.250000      2.000000
  0.428571  0.285714  0.250000      4.000000
 -0.428571  0.285714  0.250000      4.000000
 -0.285714  0.285714  0.250000      4.000000
 -0.142857  0.285714  0.250000      4.000000
  0.428571  0.428571  0.250000      2.000000
 -0.428571  0.428571  0.250000      4.000000
 -0.285714  0.428571  0.250000      4.000000
 -0.142857  0.428571  0.250000      4.000000
 -0.428571 -0.428571  0.250000      2.000000
 -0.285714 -0.428571  0.250000      4.000000
 -0.142857 -0.428571  0.250000      4.000000
 -0.285714 -0.285714  0.250000      2.000000
 -0.142857 -0.285714  0.250000      4.000000
 -0.142857 -0.142857  0.250000      2.000000
  0.000000  0.000000  0.375000      2.000000
  0.142857 -0.000000  0.375000      4.000000
  0.285714  0.000000  0.375000      4.000000
  0.428571  0.000000  0.375000      4.000000
 -0.428571 -0.000000  0.375000      4.000000
 -0.285714 -0.000000  0.375000      4.000000
 -0.142857 -0.000000  0.375000      4.000000
  0.142857  0.142857  0.375000      2.000000
  0.285714  0.142857  0.375000      4.000000
  0.428571  0.142857  0.375000      4.000000
 -0.428571  0.142857  0.375000      4.000000
 -0.285714  0.142857  0.375000      4.000000
 -0.142857  0.142857  0.375000      4.000000
  0.285714  0.285714  0.375000      2.000000
  0.428571  0.285714  0.375000      4.000000
 -0.428571  0.285714  0.375000      4.000000
 -0.285714  0.285714  0.375000      4.000000
 -0.142857  0.285714  0.375000      4.000000
  0.428571  0.428571  0.375000      2.000000
 -0.428571  0.428571  0.375000      4.000000
 -0.285714  0.428571  0.375000      4.000000
 -0.142857  0.428571  0.375000      4.000000
 -0.428571 -0.428571  0.375000      2.000000
 -0.285714 -0.428571  0.375000      4.000000
 -0.142857 -0.428571  0.375000      4.000000
 -0.285714 -0.285714  0.375000      2.000000
 -0.142857 -0.285714  0.375000      4.000000
 -0.142857 -0.142857  0.375000      2.000000
  0.000000 -0.000000  0.500000      1.000000
  0.142857  0.000000  0.500000      4.000000
  0.285714  0.000000  0.500000      4.000000
  0.428571  0.000000  0.500000      4.000000
  0.142857  0.142857  0.500000      2.000000
  0.285714  0.142857  0.500000      4.000000
  0.428571  0.142857  0.500000      4.000000
 -0.428571  0.142857  0.500000      4.000000
 -0.285714  0.142857  0.500000      4.000000
 -0.142857  0.142857  0.500000      2.000000
  0.285714  0.285714  0.500000      2.000000
  0.428571  0.285714  0.500000      4.000000
 -0.428571  0.285714  0.500000      4.000000
 -0.285714  0.285714  0.500000      2.000000
  0.428571  0.428571  0.500000      2.000000
 -0.428571  0.428571  0.500000      2.000000
 
 Following cartesian coordinates:
            Coordinates               Weight
  0.000000  0.000000  0.000000      1.000000
  0.026063  0.009141  0.000000      4.000000
  0.052125  0.018281  0.000000      4.000000
  0.078188  0.027422  0.000000      4.000000
  0.026063  0.036760  0.000000      2.000000
  0.052125  0.045900  0.000000      4.000000
  0.078188  0.055041  0.000000      4.000000
 -0.078188  0.000197  0.000000      4.000000
 -0.052125  0.009338  0.000000      4.000000
 -0.026063  0.018478  0.000000      2.000000
  0.052125  0.073520  0.000000      2.000000
  0.078188  0.082660  0.000000      4.000000
 -0.078188  0.027816  0.000000      4.000000
 -0.052125  0.036957  0.000000      2.000000
  0.078188  0.110279  0.000000      2.000000
 -0.078188  0.055435  0.000000      2.000000
  0.011463  0.016168  0.019714      2.000000
  0.037526  0.025309  0.019714      4.000000
  0.063589  0.034450  0.019714      4.000000
  0.089651  0.043590  0.019714      4.000000
 -0.066725 -0.011254  0.019714      4.000000
 -0.040662 -0.002113  0.019714      4.000000
 -0.014599  0.007028  0.019714      4.000000
  0.037526  0.052928  0.019714      2.000000
  0.063589  0.062069  0.019714      4.000000
  0.089651  0.071209  0.019714      4.000000
 -0.066725  0.016365  0.019714      4.000000
 -0.040662  0.025506  0.019714      4.000000
 -0.014599  0.034647  0.019714      4.000000
  0.063589  0.089688  0.019714      2.000000
  0.089651  0.098829  0.019714      4.000000
 -0.066725  0.043985  0.019714      4.000000
 -0.040662  0.053125  0.019714      4.000000
 -0.014599  0.062266  0.019714      4.000000
  0.089651  0.126448  0.019714      2.000000
 -0.066725  0.071604  0.019714      4.000000
 -0.040662  0.080744  0.019714      4.000000
 -0.014599  0.089885  0.019714      4.000000
 -0.066725 -0.094111  0.019714      2.000000
 -0.040662 -0.084970  0.019714      4.000000
 -0.014599 -0.075830  0.019714      4.000000
 -0.040662 -0.057351  0.019714      2.000000
 -0.014599 -0.048211  0.019714      4.000000
 -0.014599 -0.020591  0.019714      2.000000
  0.022927  0.032337  0.039429      2.000000
  0.048989  0.041477  0.039429      4.000000
  0.075052  0.050618  0.039429      4.000000
  0.101115  0.059759  0.039429      4.000000
 -0.055261  0.004915  0.039429      4.000000
 -0.029199  0.014055  0.039429      4.000000
 -0.003136  0.023196  0.039429      4.000000
  0.048989  0.069097  0.039429      2.000000
  0.075052  0.078237  0.039429      4.000000
  0.101115  0.087378  0.039429      4.000000
 -0.055261  0.032534  0.039429      4.000000
 -0.029199  0.041675  0.039429      4.000000
 -0.003136  0.050815  0.039429      4.000000
  0.075052  0.105856  0.039429      2.000000
  0.101115  0.114997  0.039429      4.000000
 -0.055261  0.060153  0.039429      4.000000
 -0.029199  0.069294  0.039429      4.000000
 -0.003136  0.078434  0.039429      4.000000
  0.101115  0.142616  0.039429      2.000000
 -0.055261  0.087772  0.039429      4.000000
 -0.029199  0.096913  0.039429      4.000000
 -0.003136  0.106053  0.039429      4.000000
 -0.055261 -0.077943  0.039429      2.000000
 -0.029199 -0.068802  0.039429      4.000000
 -0.003136 -0.059661  0.039429      4.000000
 -0.029199 -0.041183  0.039429      2.000000
 -0.003136 -0.032042  0.039429      4.000000
 -0.003136 -0.004423  0.039429      2.000000
  0.034390  0.048505  0.059143      2.000000
  0.060453  0.057646  0.059143      4.000000
  0.086515  0.066786  0.059143      4.000000
  0.112578  0.075927  0.059143      4.000000
 -0.043798  0.021083  0.059143      4.000000
 -0.017735  0.030224  0.059143      4.000000
  0.008327  0.039364  0.059143      4.000000
  0.060453  0.085265  0.059143      2.000000
  0.086515  0.094406  0.059143      4.000000
  0.112578  0.103546  0.059143      4.000000
 -0.043798  0.048702  0.059143      4.000000
 -0.017735  0.057843  0.059143      4.000000
  0.008327  0.066984  0.059143      4.000000
  0.086515  0.122025  0.059143      2.000000
  0.112578  0.131165  0.059143      4.000000
 -0.043798  0.076321  0.059143      4.000000
 -0.017735  0.085462  0.059143      4.000000
  0.008327  0.094603  0.059143      4.000000
  0.112578  0.158784  0.059143      2.000000
 -0.043798  0.103940  0.059143      4.000000
 -0.017735  0.113081  0.059143      4.000000
  0.008327  0.122222  0.059143      4.000000
 -0.043798 -0.061774  0.059143      2.000000
 -0.017735 -0.052634  0.059143      4.000000
  0.008327 -0.043493  0.059143      4.000000
 -0.017735 -0.025014  0.059143      2.000000
  0.008327 -0.015874  0.059143      4.000000
  0.008327  0.011745  0.059143      2.000000
  0.045854  0.064674  0.078857      1.000000
  0.071916  0.073814  0.078857      4.000000
  0.097979  0.082955  0.078857      4.000000
  0.124042  0.092096  0.078857      4.000000
  0.071916  0.101433  0.078857      2.000000
  0.097979  0.110574  0.078857      4.000000
  0.124042  0.119715  0.078857      4.000000
 -0.032335  0.064871  0.078857      4.000000
 -0.006272  0.074011  0.078857      4.000000
  0.019791  0.083152  0.078857      2.000000
  0.097979  0.138193  0.078857      2.000000
  0.124042  0.147334  0.078857      4.000000
 -0.032335  0.092490  0.078857      4.000000
 -0.006272  0.101630  0.078857      2.000000
  0.124042  0.174953  0.078857      2.000000
 -0.032335  0.120109  0.078857      2.000000
 


--------------------------------------------------------------------------------------------------------




 Dimension of arrays:
   k-points           NKPTS =    116   k-points in BZ     NKDIM =    116   number of bands    NBANDS=     66
   number of dos      NEDOS =    301   number of ions     NIONS =     12
   non local maximal  LDIM  =      6   non local SUM 2l+1 LMDIM =     18
   total plane-waves  NPLWV = 157464
   max r-space proj   IRMAX =      1   max aug-charges    IRDMAX= 306615
   dimension x,y,z NGX =    54 NGY =   54 NGZ =   54
   dimension x,y,z NGXF=   108 NGYF=  108 NGZF=  108
   support grid    NGXF=   216 NGYF=  216 NGZF=  216
   ions per type =               4   6   2
   NGX,Y,Z   is equivalent  to a cutoff of  14.16, 14.16, 14.16 a.u.
   NGXF,Y,Z  is equivalent  to a cutoff of  28.32, 28.32, 28.32 a.u.

 SYSTEM =  routine with relax: pwdword             
 POSCAR =  EA120                                   

 Startparameter for this run:
   NWRITE =      2    write-flag & timer
   PREC   = acc       normal or accurate (medium, high low for compatibility)
   ISTART =      0    job   : 0-new  1-cont  2-samecut
   ICHARG =      2    charge: 1-file 2-atom 10-const
   ISPIN  =      1    spin polarized calculation?
   LNONCOLLINEAR =      F non collinear calculations
   LSORBIT =      F    spin-orbit coupling
   INIWAV =      1    electr: 0-lowe 1-rand  2-diag
   LASPH  =      T    aspherical Exc in radial PAW
   METAGGA=      F    non-selfconsistent MetaGGA calc.

 Electronic Relaxation 1
   ENCUT  =  600.0 eV  44.10 Ry    6.64 a.u.  12.66 12.66 12.66*2*pi/ulx,y,z
   ENINI  =  600.0     initial cutoff
   ENAUG  =  535.5 eV  augmentation charge cutoff
   NELM   =    100;   NELMIN=  6; NELMDL= -5     # of ELM steps 
   EDIFF  = 0.1E-08   stopping-criterion for ELM
   LREAL  =      F    real-space projection
   NLSPLINE    = F    spline interpolate recip. space projectors
   LCOMPAT=      F    compatible to vasp.4.4
   GGA_COMPAT  = T    GGA compatible to vasp.4.4-vasp.4.6
   LMAXPAW     = -100 max onsite density
   LMAXMIX     =    2 max onsite mixed and CHGCAR
   VOSKOWN=      0    Vosko Wilk Nusair interpolation
   ROPT   =    0.00000   0.00000   0.00000
 Ionic relaxation
   EDIFFG = 0.1E-07   stopping-criterion for IOM
   NSW    =      0    number of steps for IOM
   NBLOCK =      1;   KBLOCK =      1    inner block; outer block 
   IBRION =     -1    ionic relax: 0-MD 1-quasi-New 2-CG
   NFREE  =      0    steps in history (QN), initial steepest desc. (CG)
   ISIF   =     -1    stress and relaxation
   IWAVPR =     10    prediction:  0-non 1-charg 2-wave 3-comb
   ISYM   =      2    0-nonsym 1-usesym 2-fastsym
   LCORR  =      T    Harris-Foulkes like correction to forces

   POTIM  = 0.5000    time-step for ionic-motion
   TEIN   =    0.0    initial temperature
   TEBEG  =    0.0;   TEEND  =   0.0 temperature during run
   SMASS  =  -3.00    Nose mass-parameter (am)
   estimated Nose-frequenzy (Omega)   =  0.10E-29 period in steps = 0.13E+47 mass=  -0.919E-27a.u.
   SCALEE = 1.0000    scale energy and forces
   NPACO  =    256;   APACO  = 16.0  distance and # of slots for P.C.
   PSTRESS=    0.0 pullay stress

  Mass of Ions in am
   POMASS =  10.81 95.94 28.09
  Ionic Valenz
   ZVAL   =   3.00 14.00  4.00
  Atomic Wigner-Seitz radii
   RWIGS  =  -1.00 -1.00 -1.00
  virtual crystal weights 
   VCA    =   1.00  1.00  1.00
   NELECT =     104.0000    total number of electrons
   NUPDOWN=      -1.0000    fix difference up-down

 DOS related values:
   EMIN   =  10.00;   EMAX   =-10.00  energy-range for DOS
   EFERMI =   0.00
   ISMEAR =     0;   SIGMA  =   0.02  broadening in eV -4-tet -1-fermi 0-gaus

 Electronic relaxation 2 (details)
   IALGO  =     58    algorithm
   LDIAG  =      T    sub-space diagonalisation (order eigenvalues)
   LSUBROT=      F    optimize rotation matrix (better conditioning)
   TURBO    =      0    0=normal 1=particle mesh
   IRESTART =      0    0=no restart 2=restart with 2 vectors
   NREBOOT  =      0    no. of reboots
   NMIN     =      0    reboot dimension
   EREF     =   0.00    reference energy to select bands
   IMIX   =      4    mixing-type and parameters
     AMIX     =   0.40;   BMIX     =  1.00
     AMIX_MAG =   1.60;   BMIX_MAG =  1.00
     AMIN     =   0.10
     WC   =   100.;   INIMIX=   1;  MIXPRE=   1;  MAXMIX= -45

 Intra band minimization:
   WEIMIN = 0.0000     energy-eigenvalue tresh-hold
   EBREAK =  0.38E-11  absolut break condition
   DEPER  =   0.30     relativ break condition  

   TIME   =   0.40     timestep for ELM

  volume/ion in A,a.u.               =      14.98       101.09
  Fermi-wavevector in a.u.,A,eV,Ry     =   1.364115  2.577803 25.317850  1.860809
  Thomas-Fermi vector in A             =   2.490459
 
 Write flags
   LWAVE        =      T    write WAVECAR
   LDOWNSAMPLE  =      F    k-point downsampling of WAVECAR
   LCHARG       =      T    write CHGCAR
   LVTOT        =      F    write LOCPOT, total local potential
   LVHAR        =      F    write LOCPOT, Hartree potential only
   LELF         =      F    write electronic localiz. function (ELF)
   LORBIT       =      0    0 simple, 1 ext, 2 COOP (PROOUT), +10 PAW based schemes


 Dipole corrections
   LMONO  =      F    monopole corrections only (constant potential shift)
   LDIPOL =      F    correct potential (dipole corrections)
   IDIPOL =      0    1-x, 2-y, 3-z, 4-all directions 
   EPSILON=  1.0000000 bulk dielectric constant

 Exchange correlation treatment:
   GGA     =    --    GGA type
   LEXCH   =     8    internal setting for exchange type
   VOSKOWN=      0    Vosko Wilk Nusair interpolation
   LHFCALC =     F    Hartree Fock is set to
   LHFONE  =     F    Hartree Fock one center treatment
   AEXX    =    0.0000 exact exchange contribution

 Linear response parameters
   LEPSILON=     F    determine dielectric tensor
   LRPA    =     F    only Hartree local field effects (RPA)
   LNABLA  =     F    use nabla operator in PAW spheres
   LVEL    =     F    velocity operator in full k-point grid
   LINTERFAST=   F  fast interpolation
   KINTER  =     0    interpolate to denser k-point grid
   CSHIFT  =0.1000    complex shift for real part using Kramers Kronig
   OMEGAMAX=  -1.0    maximum frequency
   DEG_THRESHOLD= 0.2000000E-02 threshold for treating states as degnerate
   RTIME   =   -0.100 relaxation time in fs
  (WPLASMAI=    0.000 imaginary part of plasma frequency in eV, 0.658/RTIME)
   DFIELD  = 0.0000000 0.0000000 0.0000000 field for delta impulse in time
 
 Orbital magnetization related:
   ORBITALMAG=     F  switch on orbital magnetization
   LCHIMAG   =     F  perturbation theory with respect to B field
   DQ        =  0.001000  dq finite difference perturbation B field
   LLRAUG    =     F  two centre corrections for induced B field



--------------------------------------------------------------------------------------------------------


 Static calculation
 charge density and potential will be updated during run
 non-spin polarized calculation
 Conjugate gradient for all bands (Freysoldt, et al. PRB 79, 241103 (2009))
 preconditioned conjugated gradient                                        
 perform sub-space diagonalisation
    before iterative eigenvector-optimisation
 modified Broyden-mixing scheme, WC =      100.0
 initial mixing is a Kerker type mixing with AMIX =  0.4000 and BMIX =      1.0000
 Hartree-type preconditioning will be used
 using additional bands           14
 reciprocal scheme for non local part
 use partial core corrections
 no Harris-corrections to forces 
 use gradient corrections 
 use of overlap-Matrix (Vanderbilt PP)
 Gauss-broadening in eV      SIGMA  =   0.02


--------------------------------------------------------------------------------------------------------


  energy-cutoff  :      600.00
  volume of cell :      179.76
      direct lattice vectors                 reciprocal lattice vectors
     5.481292050  0.000000000 -3.187243169     0.182438737  0.063984689  0.000000000
    -1.814058811  5.172403036 -3.187243169     0.000000000  0.193333735  0.000000000
     0.000000000  0.000000000  6.340590000     0.091707021  0.129347015  0.157714030

  length of vectors
     6.340590000  6.340590000  6.340590000     0.193333735  0.193333735  0.223639315


 
 k-points in units of 2pi/SCALE and weight: EA                                      
   0.00000000  0.00000000  0.00000000       0.003
   0.02606268  0.00914067  0.00000000       0.010
   0.05212535  0.01828134  0.00000000       0.010
   0.07818803  0.02742201  0.00000000       0.010
   0.02606268  0.03675977  0.00000000       0.005
   0.05212535  0.04590044  0.00000000       0.010
   0.07818803  0.05504111  0.00000000       0.010
  -0.07818803  0.00019710  0.00000000       0.010
  -0.05212535  0.00933777  0.00000000       0.010
  -0.02606268  0.01847844  0.00000000       0.005
   0.05212535  0.07351955  0.00000000       0.005
   0.07818803  0.08266022  0.00000000       0.010
  -0.07818803  0.02781620  0.00000000       0.010
  -0.05212535  0.03695687  0.00000000       0.005
   0.07818803  0.11027932  0.00000000       0.005
  -0.07818803  0.05543531  0.00000000       0.005
   0.01146338  0.01616838  0.01971425       0.005
   0.03752605  0.02530905  0.01971425       0.010
   0.06358873  0.03444972  0.01971425       0.010
   0.08965141  0.04359039  0.01971425       0.010
  -0.06672465 -0.01125363  0.01971425       0.010
  -0.04066198 -0.00211296  0.01971425       0.010
  -0.01459930  0.00702771  0.01971425       0.010
   0.03752605  0.05292815  0.01971425       0.005
   0.06358873  0.06206882  0.01971425       0.010
   0.08965141  0.07120949  0.01971425       0.010
  -0.06672465  0.01636547  0.01971425       0.010
  -0.04066198  0.02550614  0.01971425       0.010
  -0.01459930  0.03464681  0.01971425       0.010
   0.06358873  0.08968793  0.01971425       0.005
   0.08965141  0.09882860  0.01971425       0.010
  -0.06672465  0.04398458  0.01971425       0.010
  -0.04066198  0.05312525  0.01971425       0.010
  -0.01459930  0.06226592  0.01971425       0.010
   0.08965141  0.12644770  0.01971425       0.005
  -0.06672465  0.07160368  0.01971425       0.010
  -0.04066198  0.08074435  0.01971425       0.010
  -0.01459930  0.08988502  0.01971425       0.010
  -0.06672465 -0.09411095  0.01971425       0.005
  -0.04066198 -0.08497028  0.01971425       0.010
  -0.01459930 -0.07582961  0.01971425       0.010
  -0.04066198 -0.05735117  0.01971425       0.005
  -0.01459930 -0.04821050  0.01971425       0.010
  -0.01459930 -0.02059140  0.01971425       0.005
   0.02292676  0.03233675  0.03942851       0.005
   0.04898943  0.04147742  0.03942851       0.010
   0.07505211  0.05061809  0.03942851       0.010
   0.10111479  0.05975876  0.03942851       0.010
  -0.05526128  0.00491474  0.03942851       0.010
  -0.02919860  0.01405541  0.03942851       0.010
  -0.00313592  0.02319608  0.03942851       0.010
   0.04898943  0.06909653  0.03942851       0.005
   0.07505211  0.07823720  0.03942851       0.010
   0.10111479  0.08737787  0.03942851       0.010
  -0.05526128  0.03253385  0.03942851       0.010
  -0.02919860  0.04167452  0.03942851       0.010
  -0.00313592  0.05081519  0.03942851       0.010
   0.07505211  0.10585630  0.03942851       0.005
   0.10111479  0.11499697  0.03942851       0.010
  -0.05526128  0.06015295  0.03942851       0.010
  -0.02919860  0.06929362  0.03942851       0.010
  -0.00313592  0.07843429  0.03942851       0.010
   0.10111479  0.14261608  0.03942851       0.005
  -0.05526128  0.08777206  0.03942851       0.010
  -0.02919860  0.09691273  0.03942851       0.010
  -0.00313592  0.10605340  0.03942851       0.010
  -0.05526128 -0.07794257  0.03942851       0.005
  -0.02919860 -0.06880190  0.03942851       0.010
  -0.00313592 -0.05966123  0.03942851       0.010
  -0.02919860 -0.04118280  0.03942851       0.005
  -0.00313592 -0.03204213  0.03942851       0.010
  -0.00313592 -0.00442302  0.03942851       0.005
   0.03439013  0.04850513  0.05914276       0.005
   0.06045281  0.05764580  0.05914276       0.010
   0.08651549  0.06678647  0.05914276       0.010
   0.11257816  0.07592714  0.05914276       0.010
  -0.04379790  0.02108312  0.05914276       0.010
  -0.01773522  0.03022379  0.05914276       0.010
   0.00832746  0.03936446  0.05914276       0.010
   0.06045281  0.08526491  0.05914276       0.005
   0.08651549  0.09440558  0.05914276       0.010
   0.11257816  0.10354625  0.05914276       0.010
  -0.04379790  0.04870223  0.05914276       0.010
  -0.01773522  0.05784290  0.05914276       0.010
   0.00832746  0.06698357  0.05914276       0.010
   0.08651549  0.12202468  0.05914276       0.005
   0.11257816  0.13116535  0.05914276       0.010
  -0.04379790  0.07632133  0.05914276       0.010
  -0.01773522  0.08546200  0.05914276       0.010
   0.00832746  0.09460267  0.05914276       0.010
   0.11257816  0.15878446  0.05914276       0.005
  -0.04379790  0.10394044  0.05914276       0.010
  -0.01773522  0.11308111  0.05914276       0.010
   0.00832746  0.12222178  0.05914276       0.010
  -0.04379790 -0.06177419  0.05914276       0.005
  -0.01773522 -0.05263352  0.05914276       0.010
   0.00832746 -0.04349285  0.05914276       0.010
  -0.01773522 -0.02501442  0.05914276       0.005
   0.00832746 -0.01587375  0.05914276       0.010
   0.00832746  0.01174536  0.05914276       0.005
   0.04585351  0.06467351  0.07885701       0.003
   0.07191619  0.07381418  0.07885701       0.010
   0.09797886  0.08295485  0.07885701       0.010
   0.12404154  0.09209552  0.07885701       0.010
   0.07191619  0.10143328  0.07885701       0.005
   0.09797886  0.11057395  0.07885701       0.010
   0.12404154  0.11971462  0.07885701       0.010
  -0.03233452  0.06487060  0.07885701       0.010
  -0.00627184  0.07401127  0.07885701       0.010
   0.01979083  0.08315194  0.07885701       0.005
   0.09797886  0.13819306  0.07885701       0.005
   0.12404154  0.14733373  0.07885701       0.010
  -0.03233452  0.09248971  0.07885701       0.010
  -0.00627184  0.10163038  0.07885701       0.005
   0.12404154  0.17495283  0.07885701       0.005
  -0.03233452  0.12010881  0.07885701       0.005
 
 k-points in reciprocal lattice and weights: EA                                      
   0.00000000  0.00000000  0.00000000       0.003
   0.14285714  0.00000000  0.00000000       0.010
   0.28571429  0.00000000  0.00000000       0.010
   0.42857143  0.00000000  0.00000000       0.010
   0.14285714  0.14285714  0.00000000       0.005
   0.28571429  0.14285714  0.00000000       0.010
   0.42857143  0.14285714  0.00000000       0.010
  -0.42857143  0.14285714  0.00000000       0.010
  -0.28571429  0.14285714  0.00000000       0.010
  -0.14285714  0.14285714  0.00000000       0.005
   0.28571429  0.28571429  0.00000000       0.005
   0.42857143  0.28571429  0.00000000       0.010
  -0.42857143  0.28571429  0.00000000       0.010
  -0.28571429  0.28571429  0.00000000       0.005
   0.42857143  0.42857143  0.00000000       0.005
  -0.42857143  0.42857143  0.00000000       0.005
   0.00000000 -0.00000000  0.12500000       0.005
   0.14285714 -0.00000000  0.12500000       0.010
   0.28571429  0.00000000  0.12500000       0.010
   0.42857143  0.00000000  0.12500000       0.010
  -0.42857143  0.00000000  0.12500000       0.010
  -0.28571429  0.00000000  0.12500000       0.010
  -0.14285714  0.00000000  0.12500000       0.010
   0.14285714  0.14285714  0.12500000       0.005
   0.28571429  0.14285714  0.12500000       0.010
   0.42857143  0.14285714  0.12500000       0.010
  -0.42857143  0.14285714  0.12500000       0.010
  -0.28571429  0.14285714  0.12500000       0.010
  -0.14285714  0.14285714  0.12500000       0.010
   0.28571429  0.28571429  0.12500000       0.005
   0.42857143  0.28571429  0.12500000       0.010
  -0.42857143  0.28571429  0.12500000       0.010
  -0.28571429  0.28571429  0.12500000       0.010
  -0.14285714  0.28571429  0.12500000       0.010
   0.42857143  0.42857143  0.12500000       0.005
  -0.42857143  0.42857143  0.12500000       0.010
  -0.28571429  0.42857143  0.12500000       0.010
  -0.14285714  0.42857143  0.12500000       0.010
  -0.42857143 -0.42857143  0.12500000       0.005
  -0.28571429 -0.42857143  0.12500000       0.010
  -0.14285714 -0.42857143  0.12500000       0.010
  -0.28571429 -0.28571429  0.12500000       0.005
  -0.14285714 -0.28571429  0.12500000       0.010
  -0.14285714 -0.14285714  0.12500000       0.005
   0.00000000 -0.00000000  0.25000000       0.005
   0.14285714 -0.00000000  0.25000000       0.010
   0.28571429 -0.00000000  0.25000000       0.010
   0.42857143 -0.00000000  0.25000000       0.010
  -0.42857143  0.00000000  0.25000000       0.010
  -0.28571429  0.00000000  0.25000000       0.010
  -0.14285714  0.00000000  0.25000000       0.010
   0.14285714  0.14285714  0.25000000       0.005
   0.28571429  0.14285714  0.25000000       0.010
   0.42857143  0.14285714  0.25000000       0.010
  -0.42857143  0.14285714  0.25000000       0.010
  -0.28571429  0.14285714  0.25000000       0.010
  -0.14285714  0.14285714  0.25000000       0.010
   0.28571429  0.28571429  0.25000000       0.005
   0.42857143  0.28571429  0.25000000       0.010
  -0.42857143  0.28571429  0.25000000       0.010
  -0.28571429  0.28571429  0.25000000       0.010
  -0.14285714  0.28571429  0.25000000       0.010
   0.42857143  0.42857143  0.25000000       0.005
  -0.42857143  0.42857143  0.25000000       0.010
  -0.28571429  0.42857143  0.25000000       0.010
  -0.14285714  0.42857143  0.25000000       0.010
  -0.42857143 -0.42857143  0.25000000       0.005
  -0.28571429 -0.42857143  0.25000000       0.010
  -0.14285714 -0.42857143  0.25000000       0.010
  -0.28571429 -0.28571429  0.25000000       0.005
  -0.14285714 -0.28571429  0.25000000       0.010
  -0.14285714 -0.14285714  0.25000000       0.005
   0.00000000  0.00000000  0.37500000       0.005
   0.14285714 -0.00000000  0.37500000       0.010
   0.28571429  0.00000000  0.37500000       0.010
   0.42857143  0.00000000  0.37500000       0.010
  -0.42857143 -0.00000000  0.37500000       0.010
  -0.28571429 -0.00000000  0.37500000       0.010
  -0.14285714 -0.00000000  0.37500000       0.010
   0.14285714  0.14285714  0.37500000       0.005
   0.28571429  0.14285714  0.37500000       0.010
   0.42857143  0.14285714  0.37500000       0.010
  -0.42857143  0.14285714  0.37500000       0.010
  -0.28571429  0.14285714  0.37500000       0.010
  -0.14285714  0.14285714  0.37500000       0.010
   0.28571429  0.28571429  0.37500000       0.005
   0.42857143  0.28571429  0.37500000       0.010
  -0.42857143  0.28571429  0.37500000       0.010
  -0.28571429  0.28571429  0.37500000       0.010
  -0.14285714  0.28571429  0.37500000       0.010
   0.42857143  0.42857143  0.37500000       0.005
  -0.42857143  0.42857143  0.37500000       0.010
  -0.28571429  0.42857143  0.37500000       0.010
  -0.14285714  0.42857143  0.37500000       0.010
  -0.42857143 -0.42857143  0.37500000       0.005
  -0.28571429 -0.42857143  0.37500000       0.010
  -0.14285714 -0.42857143  0.37500000       0.010
  -0.28571429 -0.28571429  0.37500000       0.005
  -0.14285714 -0.28571429  0.37500000       0.010
  -0.14285714 -0.14285714  0.37500000       0.005
   0.00000000 -0.00000000  0.50000000       0.003
   0.14285714  0.00000000  0.50000000       0.010
   0.28571429  0.00000000  0.50000000       0.010
   0.42857143  0.00000000  0.50000000       0.010
   0.14285714  0.14285714  0.50000000       0.005
   0.28571429  0.14285714  0.50000000       0.010
   0.42857143  0.14285714  0.50000000       0.010
  -0.42857143  0.14285714  0.50000000       0.010
  -0.28571429  0.14285714  0.50000000       0.010
  -0.14285714  0.14285714  0.50000000       0.005
   0.28571429  0.28571429  0.50000000       0.005
   0.42857143  0.28571429  0.50000000       0.010
  -0.42857143  0.28571429  0.50000000       0.010
  -0.28571429  0.28571429  0.50000000       0.005
   0.42857143  0.42857143  0.50000000       0.005
  -0.42857143  0.42857143  0.50000000       0.005
 
 position of ions in fractional coordinates (direct lattice) 
   0.70698000  0.20698000  0.91396000
   0.29302000  0.79302000  0.08604000
   0.20698000  0.29302000  0.50000000
   0.79302000  0.70698000  0.50000000
   0.50000000  0.50000000  0.00000000
   0.34511000  0.15489000  0.50000000
   0.65489000  0.84511000  0.50000000
   0.15489000  0.65489000  0.80978000
   0.84511000  0.34511000  0.19022000
   0.00000000  0.00000000  0.00000000
   0.50000000  0.00000000  0.50000000
   0.00000000  0.50000000  0.50000000
 
 position of ions in cartesian coordinates  (Angst):
   3.49968996  1.07058398  2.88203287
   0.16754328  4.10181906 -2.91592921
   0.60296232  1.51561754  1.57667342
   3.06427092  3.65678550 -1.61056975
   1.83361662  2.58620152 -3.18724317
   1.61066913  0.80115351  1.57667342
   2.05656411  4.37124953 -1.61056975
  -0.33901165  3.38735502  2.55351720
   4.00624489  1.78504801 -2.58741353
   0.00000000  0.00000000  0.00000000
   2.74064602  0.00000000  1.57667342
  -0.90702941  2.58620152  1.57667342
 


--------------------------------------------------------------------------------------------------------


 k-point   1 :   0.0000 0.0000 0.0000  plane waves:    5969
 k-point   2 :   0.1429 0.0000 0.0000  plane waves:    6009
 k-point   3 :   0.2857 0.0000 0.0000  plane waves:    6008
 k-point   4 :   0.4286 0.0000 0.0000  plane waves:    6012
 k-point   5 :   0.1429 0.1429 0.0000  plane waves:    6009
 k-point   6 :   0.2857 0.1429 0.0000  plane waves:    6003
 k-point   7 :   0.4286 0.1429 0.0000  plane waves:    6004
 k-point   8 :  -0.4286 0.1429 0.0000  plane waves:    5997
 k-point   9 :  -0.2857 0.1429 0.0000  plane waves:    6007
 k-point  10 :  -0.1429 0.1429 0.0000  plane waves:    6014
 k-point  11 :   0.2857 0.2857 0.0000  plane waves:    5987
 k-point  12 :   0.4286 0.2857 0.0000  plane waves:    5986
 k-point  13 :  -0.4286 0.2857 0.0000  plane waves:    5999
 k-point  14 :  -0.2857 0.2857 0.0000  plane waves:    6010
 k-point  15 :   0.4286 0.4286 0.0000  plane waves:    5983
 k-point  16 :  -0.4286 0.4286 0.0000  plane waves:    5988
 k-point  17 :   0.0000-0.0000 0.1250  plane waves:    6008
 k-point  18 :   0.1429-0.0000 0.1250  plane waves:    6004
 k-point  19 :   0.2857 0.0000 0.1250  plane waves:    6008
 k-point  20 :   0.4286 0.0000 0.1250  plane waves:    6009
 k-point  21 :  -0.4286 0.0000 0.1250  plane waves:    6008
 k-point  22 :  -0.2857 0.0000 0.1250  plane waves:    6008
 k-point  23 :  -0.1429 0.0000 0.1250  plane waves:    6005
 k-point  24 :   0.1429 0.1429 0.1250  plane waves:    6009
 k-point  25 :   0.2857 0.1429 0.1250  plane waves:    5992
 k-point  26 :   0.4286 0.1429 0.1250  plane waves:    5993
 k-point  27 :  -0.4286 0.1429 0.1250  plane waves:    6009
 k-point  28 :  -0.2857 0.1429 0.1250  plane waves:    6010
 k-point  29 :  -0.1429 0.1429 0.1250  plane waves:    6004
 k-point  30 :   0.2857 0.2857 0.1250  plane waves:    5979
 k-point  31 :   0.4286 0.2857 0.1250  plane waves:    5999
 k-point  32 :  -0.4286 0.2857 0.1250  plane waves:    6004
 k-point  33 :  -0.2857 0.2857 0.1250  plane waves:    6003
 k-point  34 :  -0.1429 0.2857 0.1250  plane waves:    6012
 k-point  35 :   0.4286 0.4286 0.1250  plane waves:    5992
 k-point  36 :  -0.4286 0.4286 0.1250  plane waves:    5987
 k-point  37 :  -0.2857 0.4286 0.1250  plane waves:    6000
 k-point  38 :  -0.1429 0.4286 0.1250  plane waves:    6010
 k-point  39 :  -0.4286-0.4286 0.1250  plane waves:    5984
 k-point  40 :  -0.2857-0.4286 0.1250  plane waves:    5999
 k-point  41 :  -0.1429-0.4286 0.1250  plane waves:    6007
 k-point  42 :  -0.2857-0.2857 0.1250  plane waves:    6013
 k-point  43 :  -0.1429-0.2857 0.1250  plane waves:    6005
 k-point  44 :  -0.1429-0.1429 0.1250  plane waves:    6006
 k-point  45 :   0.0000-0.0000 0.2500  plane waves:    6002
 k-point  46 :   0.1429-0.0000 0.2500  plane waves:    6002
 k-point  47 :   0.2857-0.0000 0.2500  plane waves:    5995
 k-point  48 :   0.4286-0.0000 0.2500  plane waves:    5987
 k-point  49 :  -0.4286 0.0000 0.2500  plane waves:    6013
 k-point  50 :  -0.2857 0.0000 0.2500  plane waves:    6010
 k-point  51 :  -0.1429 0.0000 0.2500  plane waves:    6002
 k-point  52 :   0.1429 0.1429 0.2500  plane waves:    6011
 k-point  53 :   0.2857 0.1429 0.2500  plane waves:    5991
 k-point  54 :   0.4286 0.1429 0.2500  plane waves:    5997
 k-point  55 :  -0.4286 0.1429 0.2500  plane waves:    6003
 k-point  56 :  -0.2857 0.1429 0.2500  plane waves:    6010
 k-point  57 :  -0.1429 0.1429 0.2500  plane waves:    6005
 k-point  58 :   0.2857 0.2857 0.2500  plane waves:    5985
 k-point  59 :   0.4286 0.2857 0.2500  plane waves:    5992
 k-point  60 :  -0.4286 0.2857 0.2500  plane waves:    6006
 k-point  61 :  -0.2857 0.2857 0.2500  plane waves:    5983
 k-point  62 :  -0.1429 0.2857 0.2500  plane waves:    6001
 k-point  63 :   0.4286 0.4286 0.2500  plane waves:    5989
 k-point  64 :  -0.4286 0.4286 0.2500  plane waves:    5979
 k-point  65 :  -0.2857 0.4286 0.2500  plane waves:    5990
 k-point  66 :  -0.1429 0.4286 0.2500  plane waves:    5996
 k-point  67 :  -0.4286-0.4286 0.2500  plane waves:    5993
 k-point  68 :  -0.2857-0.4286 0.2500  plane waves:    6004
 k-point  69 :  -0.1429-0.4286 0.2500  plane waves:    6011
 k-point  70 :  -0.2857-0.2857 0.2500  plane waves:    6016
 k-point  71 :  -0.1429-0.2857 0.2500  plane waves:    6002
 k-point  72 :  -0.1429-0.1429 0.2500  plane waves:    6009
 k-point  73 :   0.0000 0.0000 0.3750  plane waves:    6004
 k-point  74 :   0.1429-0.0000 0.3750  plane waves:    5990
 k-point  75 :   0.2857 0.0000 0.3750  plane waves:    5977
 k-point  76 :   0.4286 0.0000 0.3750  plane waves:    5998
 k-point  77 :  -0.4286-0.0000 0.3750  plane waves:    6013
 k-point  78 :  -0.2857-0.0000 0.3750  plane waves:    6009
 k-point  79 :  -0.1429-0.0000 0.3750  plane waves:    6003
 k-point  80 :   0.1429 0.1429 0.3750  plane waves:    5990
 k-point  81 :   0.2857 0.1429 0.3750  plane waves:    5991
 k-point  82 :   0.4286 0.1429 0.3750  plane waves:    5990
 k-point  83 :  -0.4286 0.1429 0.3750  plane waves:    6008
 k-point  84 :  -0.2857 0.1429 0.3750  plane waves:    5994
 k-point  85 :  -0.1429 0.1429 0.3750  plane waves:    6005
 k-point  86 :   0.2857 0.2857 0.3750  plane waves:    5982
 k-point  87 :   0.4286 0.2857 0.3750  plane waves:    5985
 k-point  88 :  -0.4286 0.2857 0.3750  plane waves:    5986
 k-point  89 :  -0.2857 0.2857 0.3750  plane waves:    5981
 k-point  90 :  -0.1429 0.2857 0.3750  plane waves:    5992
 k-point  91 :   0.4286 0.4286 0.3750  plane waves:    5999
 k-point  92 :  -0.4286 0.4286 0.3750  plane waves:    5977
 k-point  93 :  -0.2857 0.4286 0.3750  plane waves:    6000
 k-point  94 :  -0.1429 0.4286 0.3750  plane waves:    6009
 k-point  95 :  -0.4286-0.4286 0.3750  plane waves:    5998
 k-point  96 :  -0.2857-0.4286 0.3750  plane waves:    6007
 k-point  97 :  -0.1429-0.4286 0.3750  plane waves:    6002
 k-point  98 :  -0.2857-0.2857 0.3750  plane waves:    6012
 k-point  99 :  -0.1429-0.2857 0.3750  plane waves:    6006
 k-point 100 :  -0.1429-0.1429 0.3750  plane waves:    6000
 k-point 101 :   0.0000-0.0000 0.5000  plane waves:    5994
 k-point 102 :   0.1429 0.0000 0.5000  plane waves:    5983
 k-point 103 :   0.2857 0.0000 0.5000  plane waves:    5995
 k-point 104 :   0.4286 0.0000 0.5000  plane waves:    6013
 k-point 105 :   0.1429 0.1429 0.5000  plane waves:    6004
 k-point 106 :   0.2857 0.1429 0.5000  plane waves:    5996
 k-point 107 :   0.4286 0.1429 0.5000  plane waves:    6010
 k-point 108 :  -0.4286 0.1429 0.5000  plane waves:    5994
 k-point 109 :  -0.2857 0.1429 0.5000  plane waves:    5992
 k-point 110 :  -0.1429 0.1429 0.5000  plane waves:    5994
 k-point 111 :   0.2857 0.2857 0.5000  plane waves:    6002
 k-point 112 :   0.4286 0.2857 0.5000  plane waves:    6004
 k-point 113 :  -0.4286 0.2857 0.5000  plane waves:    5989
 k-point 114 :  -0.2857 0.2857 0.5000  plane waves:    6002
 k-point 115 :   0.4286 0.4286 0.5000  plane waves:    5996
 k-point 116 :  -0.4286 0.4286 0.5000  plane waves:    5980

 maximum and minimum number of plane-waves per node :      3031     2964

 maximum number of plane-waves:      6016
 maximum index in each direction: 
   IXMAX=   13   IYMAX=   13   IZMAX=   12
   IXMIN=  -13   IYMIN=  -13   IZMIN=  -13


 parallel 3D FFT for wavefunctions:
    minimum data exchange during FFTs selected (reduces bandwidth)
 parallel 3D FFT for charge:
    minimum data exchange during FFTs selected (reduces bandwidth)


 total amount of memory used by VASP MPI-rank0   404660. kBytes
=======================================================================

   base      :      30000. kBytes
   nonl-proj :     152722. kBytes
   fftplans  :      17762. kBytes
   grid      :      13358. kBytes
   one-center:         93. kBytes
   wavefun   :     190725. kBytes
 
     INWAV:  cpu time    0.0001: real time    0.0001
 Broyden mixing: mesh for mixing (old mesh)
   NGX = 25   NGY = 25   NGZ = 25
  (NGX  =108   NGY  =108   NGZ  =108)
  gives a total of  15625 points

 initial charge density was supplied:
 charge density of overlapping atoms calculated
 number of electron     104.0000000 magnetization 
 keeping initial charge density in first step


--------------------------------------------------------------------------------------------------------


 Maximum index for augmentation-charges        24799 (set IRDMAX)


--------------------------------------------------------------------------------------------------------


 First call to EWALD:  gamma=   0.314
 Maximum number of real-space cells 3x 3x 3
 Maximum number of reciprocal cells 3x 3x 3

    FEWALD:  cpu time    0.0014: real time    0.0014


--------------------------------------- Iteration      1(   1)  ---------------------------------------


    POTLOK:  cpu time    0.2204: real time    0.2222
    SETDIJ:  cpu time    0.6698: real time    0.6738
    TRIAL :  cpu time   29.1606: real time   29.4305
    CORREC:  cpu time    0.0023: real time    0.0023
    --------------------------------------------
      LOOP:  cpu time   30.1343: real time   30.4149

 eigenvalue-minimisations  : 16128
 total energy-change (2. order) : 0.1385530E+04  (-0.7308412E+04)
 number of electron     104.0000000 magnetization 
 augmentation part      104.0000000 magnetization 

 Free energy of the ion-electron system (eV)
  ---------------------------------------------------
  alpha Z        PSCENC =       519.72987571
  Ewald energy   TEWEN  =     -6443.98887473
  -Hartree energ DENC   =     -4449.53227215
  -exchange      EXHF   =         0.00000000
  -V(xc)+E(xc)   XCENC  =       504.19380219
  PAW double counting   =      9250.47132855    -9210.50234729
  entropy T*S    EENTRO =        -0.00031409
  eigenvalues    EBANDS =      -449.34791095
  atomic energy  EATOM  =     11664.50664672
  ---------------------------------------------------
  free energy    TOTEN  =      1385.52993396 eV

  energy without entropy =     1385.53024805  energy(sigma->0) =     1385.53009101


--------------------------------------------------------------------------------------------------------




--------------------------------------- Iteration      1(   2)  ---------------------------------------


    TRIAL :  cpu time   30.4880: real time   30.7607
    CORREC:  cpu time    0.0021: real time    0.0021
    --------------------------------------------
      LOOP:  cpu time   30.4927: real time   30.7658

 eigenvalue-minimisations  : 17400
 total energy-change (2. order) :-0.1438888E+04  (-0.1405298E+04)
 number of electron     104.0000000 magnetization 
 augmentation part      104.0000000 magnetization 

 Free energy of the ion-electron system (eV)
  ---------------------------------------------------
  alpha Z        PSCENC =       519.72987571
  Ewald energy   TEWEN  =     -6443.98887473
  -Hartree energ DENC   =     -4449.53227215
  -exchange      EXHF   =         0.00000000
  -V(xc)+E(xc)   XCENC  =       504.19380219
  PAW double counting   =      9250.47132855    -9210.50234729
  entropy T*S    EENTRO =        -0.00111370
  eigenvalues    EBANDS =     -1888.23554149
  atomic energy  EATOM  =     11664.50664672
  ---------------------------------------------------
  free energy    TOTEN  =       -53.35849618 eV

  energy without entropy =      -53.35738248  energy(sigma->0) =      -53.35793933


--------------------------------------------------------------------------------------------------------




--------------------------------------- Iteration      1(   3)  ---------------------------------------


    TRIAL :  cpu time   31.7460: real time   32.0272
    CORREC:  cpu time    0.0023: real time    0.0023
    --------------------------------------------
      LOOP:  cpu time   31.7491: real time   32.0323

 eigenvalue-minimisations  : 18486
 total energy-change (2. order) :-0.5538405E+02  (-0.5432087E+02)
 number of electron     104.0000000 magnetization 
 augmentation part      104.0000000 magnetization 

 Free energy of the ion-electron system (eV)
  ---------------------------------------------------
  alpha Z        PSCENC =       519.72987571
  Ewald energy   TEWEN  =     -6443.98887473
  -Hartree energ DENC   =     -4449.53227215
  -exchange      EXHF   =         0.00000000
  -V(xc)+E(xc)   XCENC  =       504.19380219
  PAW double counting   =      9250.47132855    -9210.50234729
  entropy T*S    EENTRO =        -0.00085514
  eigenvalues    EBANDS =     -1943.61984588
  atomic energy  EATOM  =     11664.50664672
  ---------------------------------------------------
  free energy    TOTEN  =      -108.74254202 eV

  energy without entropy =     -108.74168688  energy(sigma->0) =     -108.74211445


--------------------------------------------------------------------------------------------------------




--------------------------------------- Iteration      1(   4)  ---------------------------------------


    TRIAL :  cpu time   31.4198: real time   31.6943
    CORREC:  cpu time    0.0023: real time    0.0024
    --------------------------------------------
      LOOP:  cpu time   31.4227: real time   31.6996

 eigenvalue-minimisations  : 18312
 total energy-change (2. order) :-0.1135868E+01  (-0.1127931E+01)
 number of electron     104.0000000 magnetization 
 augmentation part      104.0000000 magnetization 

 Free energy of the ion-electron system (eV)
  ---------------------------------------------------
  alpha Z        PSCENC =       519.72987571
  Ewald energy   TEWEN  =     -6443.98887473
  -Hartree energ DENC   =     -4449.53227215
  -exchange      EXHF   =         0.00000000
  -V(xc)+E(xc)   XCENC  =       504.19380219
  PAW double counting   =      9250.47132855    -9210.50234729
  entropy T*S    EENTRO =        -0.00105557
  eigenvalues    EBANDS =     -1944.75551310
  atomic energy  EATOM  =     11664.50664672
  ---------------------------------------------------
  free energy    TOTEN  =      -109.87840967 eV

  energy without entropy =     -109.87735410  energy(sigma->0) =     -109.87788188


--------------------------------------------------------------------------------------------------------




--------------------------------------- Iteration      1(   5)  ---------------------------------------


    TRIAL :  cpu time   30.9963: real time   31.2705
    CORREC:  cpu time    0.0020: real time    0.0020
    CHARGE:  cpu time    2.4870: real time    2.5044
    --------------------------------------------
      LOOP:  cpu time   33.4879: real time   33.7798

 eigenvalue-minimisations  : 17988
 total energy-change (2. order) :-0.2591500E-01  (-0.2589243E-01)
 number of electron     104.0000001 magnetization 
 augmentation part       16.1374007 magnetization 

 Free energy of the ion-electron system (eV)
  ---------------------------------------------------
  alpha Z        PSCENC =       519.72987571
  Ewald energy   TEWEN  =     -6443.98887473
  -Hartree energ DENC   =     -4449.53227215
  -exchange      EXHF   =         0.00000000
  -V(xc)+E(xc)   XCENC  =       504.19380219
  PAW double counting   =      9250.47132855    -9210.50234729
  entropy T*S    EENTRO =        -0.00104066
  eigenvalues    EBANDS =     -1944.78144302
  atomic energy  EATOM  =     11664.50664672
  ---------------------------------------------------
  free energy    TOTEN  =      -109.90432467 eV

  energy without entropy =     -109.90328401  energy(sigma->0) =     -109.90380434


--------------------------------------------------------------------------------------------------------




--------------------------------------- Iteration      1(   6)  ---------------------------------------


    POTLOK:  cpu time    0.1587: real time    0.1595
    SETDIJ:  cpu time    0.6637: real time    0.6673
    TRIAL :  cpu time   23.3990: real time   23.6038
    CORREC:  cpu time    8.3145: real time    8.3821
    CHARGE:  cpu time    2.3410: real time    2.3572
    --------------------------------------------
      LOOP:  cpu time   34.8784: real time   35.1736

 eigenvalue-minimisations  :     0
 total energy-change (2. order) : 0.1756751E+03  (-0.7621314E+02)
 number of electron     104.0000001 magnetization 
 augmentation part       15.7758202 magnetization 

 Free energy of the ion-electron system (eV)
  ---------------------------------------------------
  alpha Z        PSCENC =       519.72987571
  Ewald energy   TEWEN  =     -6443.98887473
  -Hartree energ DENC   =     -5192.22507464
  -exchange      EXHF   =         0.00000000
  -V(xc)+E(xc)   XCENC  =       546.55988732
  PAW double counting   =     57996.76845853   -57931.93972561
  entropy T*S    EENTRO =        -0.00118098
  eigenvalues    EBANDS =     -1093.63939160
  atomic energy  EATOM  =     11664.50664672
  ---------------------------------------------------
  free energy    TOTEN  =        65.77076104 eV

  energy without entropy =       65.77194201  energy(sigma->0) =       65.77135153


--------------------------------------------------------------------------------------------------------




--------------------------------------- Iteration      1(   7)  ---------------------------------------


    POTLOK:  cpu time    0.1471: real time    0.1480
    SETDIJ:  cpu time    0.6553: real time    0.6590
    TRIAL :  cpu time   23.3091: real time   23.5182
    CORREC:  cpu time    8.2810: real time    8.3473
    CHARGE:  cpu time    2.3711: real time    2.3880
    --------------------------------------------
      LOOP:  cpu time   34.7702: real time   35.0682

 eigenvalue-minimisations  :     0
 total energy-change (2. order) :-0.8595225E+02  (-0.1086948E+02)
 number of electron     104.0000001 magnetization 
 augmentation part       15.8726688 magnetization 

 Free energy of the ion-electron system (eV)
  ---------------------------------------------------
  alpha Z        PSCENC =       519.72987571
  Ewald energy   TEWEN  =     -6443.98887473
  -Hartree energ DENC   =     -4853.37898501
  -exchange      EXHF   =         0.00000000
  -V(xc)+E(xc)   XCENC  =       535.55994797
  PAW double counting   =     58197.90860599   -58144.10460094
  entropy T*S    EENTRO =        -0.00134567
  eigenvalues    EBANDS =     -1496.41292041
  atomic energy  EATOM  =     11664.50664672
  ---------------------------------------------------
  free energy    TOTEN  =       -20.18148568 eV

  energy without entropy =      -20.18014001  energy(sigma->0) =      -20.18081284


--------------------------------------------------------------------------------------------------------




--------------------------------------- Iteration      1(   8)  ---------------------------------------


    POTLOK:  cpu time    0.1437: real time    0.1444
    SETDIJ:  cpu time    0.6650: real time    0.6688
    TRIAL :  cpu time   23.1921: real time   23.3935
    CORREC:  cpu time    8.2616: real time    8.3269
    CHARGE:  cpu time    2.4044: real time    2.4207
    --------------------------------------------
      LOOP:  cpu time   34.6709: real time   34.9589

 eigenvalue-minimisations  :     0
 total energy-change (2. order) :-0.1110036E+02  (-0.3622986E+01)
 number of electron     104.0000001 magnetization 
 augmentation part       15.8706667 magnetization 

 Free energy of the ion-electron system (eV)
  ---------------------------------------------------
  alpha Z        PSCENC =       519.72987571
  Ewald energy   TEWEN  =     -6443.98887473
  -Hartree energ DENC   =     -4796.65421545
  -exchange      EXHF   =         0.00000000
  -V(xc)+E(xc)   XCENC  =       533.44315114
  PAW double counting   =     57174.21143502   -57116.08914994
  entropy T*S    EENTRO =        -0.00119707
  eigenvalues    EBANDS =     -1566.43936628
  atomic energy  EATOM  =     11664.50664672
  ---------------------------------------------------
  free energy    TOTEN  =       -31.28184348 eV

  energy without entropy =      -31.28064641  energy(sigma->0) =      -31.28124494


--------------------------------------------------------------------------------------------------------




--------------------------------------- Iteration      1(   9)  ---------------------------------------


    POTLOK:  cpu time    0.1419: real time    0.1429
    SETDIJ:  cpu time    0.6581: real time    0.6626
    TRIAL :  cpu time   23.3705: real time   23.5793
    CORREC:  cpu time    8.3698: real time    8.4370
    CHARGE:  cpu time    2.2986: real time    2.3144
    --------------------------------------------
      LOOP:  cpu time   34.8447: real time   35.1421

 eigenvalue-minimisations  :     0
 total energy-change (2. order) :-0.3618289E+01  (-0.1529908E+01)
 number of electron     104.0000001 magnetization 
 augmentation part       15.9200660 magnetization 

 Free energy of the ion-electron system (eV)
  ---------------------------------------------------
  alpha Z        PSCENC =       519.72987571
  Ewald energy   TEWEN  =     -6443.98887473
  -Hartree energ DENC   =     -4774.08448654
  -exchange      EXHF   =         0.00000000
  -V(xc)+E(xc)   XCENC  =       532.71726004
  PAW double counting   =     57105.47773409   -57045.37491718
  entropy T*S    EENTRO =        -0.00093632
  eigenvalues    EBANDS =     -1593.88217334
  atomic energy  EATOM  =     11664.50664672
  ---------------------------------------------------
  free energy    TOTEN  =       -34.90013231 eV

  energy without entropy =      -34.89919599  energy(sigma->0) =      -34.89966415


--------------------------------------------------------------------------------------------------------




--------------------------------------- Iteration      1(  10)  ---------------------------------------


    POTLOK:  cpu time    0.1499: real time    0.1508
    SETDIJ:  cpu time    0.6526: real time    0.6565
    TRIAL :  cpu time   23.2282: real time   23.4322
[...]
     58       9.4544      0.00000
     59       9.6270      0.00000
     60      10.0252      0.00000
     61      10.1277      0.00000
     62      10.3786      0.00000
     63      10.5479      0.00000
     64      11.0137      0.00000
     65      11.4844      0.00000
     66      12.6298      0.00000

 k-point   110 :      -0.1429    0.1429    0.5000
  band No.  band energies     occupation 
      1     -56.2841      2.00000
      2     -56.2545      2.00000
      3     -55.9676      2.00000
      4     -55.9587      2.00000
      5     -55.2887      2.00000
      6     -55.2658      2.00000
      7     -34.0674      2.00000
      8     -34.0649      2.00000
      9     -32.9472      2.00000
     10     -32.9455      2.00000
     11     -30.4507      2.00000
     12     -30.3137      2.00000
     13     -29.6531      2.00000
     14     -29.0583      2.00000
     15     -29.0206      2.00000
     16     -28.8103      2.00000
     17     -28.7809      2.00000
     18     -28.4070      2.00000
     19     -28.2595      2.00000
     20     -28.2450      2.00000
     21     -28.2064      2.00000
     22     -28.1796      2.00000
     23     -27.7137      2.00000
     24     -27.5592      2.00000
     25      -3.9602      2.00000
     26      -3.8995      2.00000
     27      -2.2881      2.00000
     28      -2.1467      2.00000
     29      -0.8128      2.00000
     30      -0.7181      2.00000
     31      -0.5568      2.00000
     32      -0.0705      2.00000
     33       0.6681      2.00000
     34       0.8923      2.00000
     35       0.9486      2.00000
     36       1.4311      2.00000
     37       1.4558      2.00000
     38       2.0557      2.00000
     39       2.7380      2.00000
     40       3.2813      2.00000
     41       4.0993      2.00000
     42       4.3568      2.00000
     43       4.5327      2.00000
     44       4.8761      2.00000
     45       4.9879      2.00000
     46       5.0665      2.00000
     47       5.4209      2.00000
     48       5.7885      2.00000
     49       6.0736      2.00000
     50       6.3768      2.00000
     51       6.6606      2.00000
     52       6.8827      2.00000
     53       7.0905      2.00000
     54       7.7458      0.00000
     55       9.0532      0.00000
     56       9.1979      0.00000
     57       9.4749      0.00000
     58       9.9775      0.00000
     59      10.1527      0.00000
     60      10.3003      0.00000
     61      10.3592      0.00000
     62      10.6232      0.00000
     63      10.6533      0.00000
     64      10.8720      0.00000
     65      11.4954      0.00000
     66      12.6835      0.00000

 k-point   111 :       0.2857    0.2857    0.5000
  band No.  band energies     occupation 
      1     -56.3353      2.00000
      2     -56.2519      2.00000
      3     -55.9275      2.00000
      4     -55.9148      2.00000
      5     -55.3344      2.00000
      6     -55.2561      2.00000
      7     -34.0493      2.00000
      8     -34.0422      2.00000
      9     -32.9759      2.00000
     10     -32.9725      2.00000
     11     -30.4446      2.00000
     12     -30.1373      2.00000
     13     -29.9243      2.00000
     14     -29.0611      2.00000
     15     -29.0212      2.00000
     16     -28.8360      2.00000
     17     -28.7501      2.00000
     18     -28.2704      2.00000
     19     -28.2418      2.00000
     20     -28.2319      2.00000
     21     -28.1512      2.00000
     22     -28.1317      2.00000
     23     -27.8847      2.00000
     24     -27.5534      2.00000
     25      -3.8028      2.00000
     26      -3.6531      2.00000
     27      -2.7922      2.00000
     28      -2.1575      2.00000
     29      -1.7356      2.00000
     30      -1.1227      2.00000
     31      -0.2297      2.00000
     32       0.1142      2.00000
     33       0.4703      2.00000
     34       0.8729      2.00000
     35       1.1381      2.00000
     36       1.6198      2.00000
     37       2.1144      2.00000
     38       2.5240      2.00000
     39       3.1996      2.00000
     40       3.7219      2.00000
     41       3.9661      2.00000
     42       4.1656      2.00000
     43       4.3939      2.00000
     44       4.7345      2.00000
     45       5.0042      2.00000
     46       5.4607      2.00000
     47       5.4637      2.00000
     48       5.7751      2.00000
     49       6.0201      2.00000
     50       6.9547      2.00000
     51       6.9759      2.00000
     52       7.1278      2.00000
     53       7.4610      0.00000
     54       7.7404      0.00000
     55       8.1984      0.00000
     56       8.8447      0.00000
     57       8.8697      0.00000
     58       9.4091      0.00000
     59       9.4962      0.00000
     60       9.7063      0.00000
     61      10.0164      0.00000
     62      10.0186      0.00000
     63      10.1250      0.00000
     64      10.7752      0.00000
     65      12.2945      0.00000
     66      12.5063      0.00000

 k-point   112 :       0.4286    0.2857    0.5000
  band No.  band energies     occupation 
      1     -56.3517      2.00000
      2     -56.2522      2.00000
      3     -55.9092      2.00000
      4     -55.9005      2.00000
      5     -55.3533      2.00000
      6     -55.2532      2.00000
      7     -34.0414      2.00000
      8     -34.0330      2.00000
      9     -32.9863      2.00000
     10     -32.9844      2.00000
     11     -30.4069      2.00000
     12     -30.3026      2.00000
     13     -29.6600      2.00000
     14     -29.3573      2.00000
     15     -28.8459      2.00000
     16     -28.7370      2.00000
     17     -28.7230      2.00000
     18     -28.4097      2.00000
     19     -28.2724      2.00000
     20     -28.2569      2.00000
     21     -28.2270      2.00000
     22     -28.1423      2.00000
     23     -27.7026      2.00000
     24     -27.5895      2.00000
     25      -3.6966      2.00000
     26      -3.5426      2.00000
     27      -2.9094      2.00000
     28      -2.2218      2.00000
     29      -2.1182      2.00000
     30      -1.1836      2.00000
     31      -0.1168      2.00000
     32       0.2406      2.00000
     33       0.4985      2.00000
     34       0.7596      2.00000
     35       1.0640      2.00000
     36       1.8726      2.00000
     37       2.1134      2.00000
     38       2.6025      2.00000
     39       3.6467      2.00000
     40       3.6927      2.00000
     41       4.1292      2.00000
     42       4.1719      2.00000
     43       4.3822      2.00000
     44       4.5343      2.00000
     45       5.2837      2.00000
     46       5.3987      2.00000
     47       5.5510      2.00000
     48       5.7717      2.00000
     49       6.2794      2.00000
     50       6.5551      2.00000
     51       6.7417      2.00000
     52       7.0950      2.00000
     53       7.5863      0.00000
     54       7.8530      0.00000
     55       8.1864      0.00000
     56       8.3046      0.00000
     57       8.7632      0.00000
     58       9.0003      0.00000
     59       9.5505      0.00000
     60       9.5900      0.00000
     61       9.8733      0.00000
     62      10.0304      0.00000
     63      10.3385      0.00000
     64      10.4854      0.00000
     65      11.9919      0.00000
     66      13.0197      0.00000

 k-point   113 :      -0.4286    0.2857    0.5000
  band No.  band energies     occupation 
      1     -56.3517      2.00000
      2     -56.2522      2.00000
      3     -55.9090      2.00000
      4     -55.9007      2.00000
      5     -55.3533      2.00000
      6     -55.2532      2.00000
      7     -34.0414      2.00000
      8     -34.0329      2.00000
      9     -32.9860      2.00000
     10     -32.9846      2.00000
     11     -30.4068      2.00000
     12     -30.3026      2.00000
     13     -29.6600      2.00000
     14     -29.3574      2.00000
     15     -28.8464      2.00000
     16     -28.7365      2.00000
     17     -28.7231      2.00000
     18     -28.4097      2.00000
     19     -28.2724      2.00000
     20     -28.2566      2.00000
     21     -28.2268      2.00000
     22     -28.1426      2.00000
     23     -27.7025      2.00000
     24     -27.5896      2.00000
     25      -3.6982      2.00000
     26      -3.5443      2.00000
     27      -2.8907      2.00000
     28      -2.2313      2.00000
     29      -2.1196      2.00000
     30      -1.1702      2.00000
     31      -0.1182      2.00000
     32       0.2396      2.00000
     33       0.5115      2.00000
     34       0.7581      2.00000
     35       1.0574      2.00000
     36       1.8779      2.00000
     37       2.1195      2.00000
     38       2.6052      2.00000
     39       3.6273      2.00000
     40       3.6852      2.00000
     41       4.1123      2.00000
     42       4.1508      2.00000
     43       4.4021      2.00000
     44       4.5086      2.00000
     45       5.3252      2.00000
     46       5.4622      2.00000
     47       5.4782      2.00000
     48       5.7546      2.00000
     49       6.2791      2.00000
     50       6.4851      2.00000
     51       6.6920      2.00000
     52       7.0506      2.00000
     53       7.5722      0.00000
     54       7.8777      0.00000
     55       8.1158      0.00000
     56       8.2946      0.00000
     57       8.8695      0.00000
     58       9.0079      0.00000
     59       9.5486      0.00000
     60       9.5851      0.00000
     61       9.8945      0.00000
     62      10.0757      0.00000
     63      10.4663      0.00000
     64      10.5424      0.00000
     65      11.6929      0.00000
     66      13.0111      0.00000

 k-point   114 :      -0.2857    0.2857    0.5000
  band No.  band energies     occupation 
      1     -56.3353      2.00000
      2     -56.2519      2.00000
      3     -55.9273      2.00000
      4     -55.9150      2.00000
      5     -55.3344      2.00000
      6     -55.2561      2.00000
      7     -34.0493      2.00000
      8     -34.0422      2.00000
      9     -32.9756      2.00000
     10     -32.9728      2.00000
     11     -30.4445      2.00000
     12     -30.1373      2.00000
     13     -29.9244      2.00000
     14     -29.0613      2.00000
     15     -29.0212      2.00000
     16     -28.8375      2.00000
     17     -28.7489      2.00000
     18     -28.2703      2.00000
     19     -28.2412      2.00000
     20     -28.2316      2.00000
     21     -28.1520      2.00000
     22     -28.1317      2.00000
     23     -27.8846      2.00000
     24     -27.5535      2.00000
     25      -3.8073      2.00000
     26      -3.6554      2.00000
     27      -2.7403      2.00000
     28      -2.1885      2.00000
     29      -1.7406      2.00000
     30      -1.0887      2.00000
     31      -0.2389      2.00000
     32       0.1117      2.00000
     33       0.5049      2.00000
     34       0.8696      2.00000
     35       1.1154      2.00000
     36       1.6424      2.00000
     37       2.1326      2.00000
     38       2.5127      2.00000
     39       3.1652      2.00000
     40       3.7306      2.00000
     41       3.8624      2.00000
     42       4.1101      2.00000
     43       4.4900      2.00000
     44       4.6967      2.00000
     45       5.1347      2.00000
     46       5.3897      2.00000
     47       5.5253      2.00000
     48       5.5459      2.00000
     49       6.2115      2.00000
     50       6.4883      2.00000
     51       6.9394      2.00000
     52       7.1890      2.00000
     53       7.4440      0.00000
     54       7.8830      0.00000
     55       7.9915      0.00000
     56       8.9125      0.00000
     57       9.0382      0.00000
     58       9.3410      0.00000
     59       9.4343      0.00000
     60       9.8967      0.00000
     61       9.9979      0.00000
     62      10.1249      0.00000
     63      10.1897      0.00000
     64      11.0284      0.00000
     65      11.3020      0.00000
     66      12.9098      0.00000

 k-point   115 :       0.4286    0.4286    0.5000
  band No.  band energies     occupation 
      1     -56.3691      2.00000
      2     -56.2497      2.00000
      3     -55.8900      2.00000
      4     -55.8874      2.00000
      5     -55.3762      2.00000
      6     -55.2479      2.00000
      7     -34.0334      2.00000
      8     -34.0233      2.00000
      9     -32.9967      2.00000
     10     -32.9957      2.00000
     11     -30.4396      2.00000
     12     -30.4042      2.00000
     13     -29.3662      2.00000
     14     -29.0621      2.00000
     15     -29.0216      2.00000
     16     -28.8574      2.00000
     17     -28.7198      2.00000
     18     -28.7158      2.00000
     19     -28.2768      2.00000
     20     -28.2729      2.00000
     21     -28.2233      2.00000
     22     -28.1311      2.00000
     23     -27.5873      2.00000
     24     -27.5488      2.00000
     25      -3.4924      2.00000
     26      -3.4159      2.00000
     27      -3.0446      2.00000
     28      -2.6156      2.00000
     29      -2.2713      2.00000
     30      -1.2508      2.00000
     31       0.2180      2.00000
     32       0.3842      2.00000
     33       0.5655      2.00000
     34       0.6498      2.00000
     35       0.8577      2.00000
     36       1.9444      2.00000
     37       2.3533      2.00000
     38       2.4470      2.00000
     39       3.7994      2.00000
     40       3.9565      2.00000
     41       4.1308      2.00000
     42       4.2541      2.00000
     43       4.3725      2.00000
     44       4.4980      2.00000
     45       5.1402      2.00000
     46       5.6000      2.00000
     47       5.8191      2.00000
     48       6.0009      2.00000
     49       6.4815      2.00000
     50       6.6401      2.00000
     51       6.7429      2.00000
     52       6.7859      2.00000
     53       7.3326      0.00001
     54       7.7204      0.00000
     55       7.8023      0.00000
     56       7.9724      0.00000
     57       8.2944      0.00000
     58       8.7721      0.00000
     59       9.6016      0.00000
     60       9.6998      0.00000
     61       9.7603      0.00000
     62       9.9504      0.00000
     63      10.1502      0.00000
     64      10.9741      0.00000
     65      12.3620      0.00000
     66      13.0055      0.00000

 k-point   116 :      -0.4286    0.4286    0.5000
  band No.  band energies     occupation 
      1     -56.3691      2.00000
      2     -56.2497      2.00000
      3     -55.8898      2.00000
      4     -55.8876      2.00000
      5     -55.3762      2.00000
      6     -55.2479      2.00000
      7     -34.0334      2.00000
      8     -34.0233      2.00000
      9     -32.9963      2.00000
     10     -32.9961      2.00000
     11     -30.4395      2.00000
     12     -30.4042      2.00000
     13     -29.3662      2.00000
     14     -29.0622      2.00000
     15     -29.0216      2.00000
     16     -28.8576      2.00000
     17     -28.7197      2.00000
     18     -28.7158      2.00000
     19     -28.2769      2.00000
     20     -28.2726      2.00000
     21     -28.2232      2.00000
     22     -28.1312      2.00000
     23     -27.5872      2.00000
     24     -27.5489      2.00000
     25      -3.4932      2.00000
     26      -3.4168      2.00000
     27      -3.0378      2.00000
     28      -2.6159      2.00000
     29      -2.2740      2.00000
     30      -1.2455      2.00000
     31       0.2194      2.00000
     32       0.3888      2.00000
     33       0.5645      2.00000
     34       0.6491      2.00000
     35       0.8549      2.00000
     36       1.9460      2.00000
     37       2.3558      2.00000
     38       2.4490      2.00000
     39       3.8008      2.00000
     40       3.9550      2.00000
     41       4.1247      2.00000
     42       4.2601      2.00000
     43       4.3625      2.00000
     44       4.4831      2.00000
     45       5.1246      2.00000
     46       5.5696      2.00000
     47       5.8731      2.00000
     48       6.0006      2.00000
     49       6.4484      2.00000
     50       6.6300      2.00000
     51       6.7554      2.00000
     52       6.7580      2.00000
     53       7.3282      0.00003
     54       7.7086      0.00000
     55       7.7857      0.00000
     56       7.9451      0.00000
     57       8.2805      0.00000
     58       8.8522      0.00000
     59       9.6008      0.00000
     60       9.6992      0.00000
     61       9.7595      0.00000
     62       9.9685      0.00000
     63      10.2278      0.00000
     64      11.0208      0.00000
     65      11.8707      0.00000
     66      13.0519      0.00000


--------------------------------------------------------------------------------------------------------


 soft charge-density along one line, spin component           1
         0         1         2         3         4         5         6         7         8         9
 total charge-density along one line
 
 pseudopotential strength for first ion, spin component:           1
  6.558   9.971   0.086   0.105   0.061   0.127   0.155   0.090
  9.971  15.155   0.130   0.158   0.092   0.192   0.234   0.136
  0.086   0.130  -2.128  -0.067  -0.034  -3.605  -0.136  -0.070
  0.105   0.158  -0.067  -2.151  -0.048  -0.136  -3.653  -0.097
  0.061   0.092  -0.034  -0.048  -2.104  -0.070  -0.097  -3.556
  0.127   0.192  -3.605  -0.136  -0.070  -5.898  -0.269  -0.140
  0.155   0.234  -0.136  -3.653  -0.097  -0.269  -5.993  -0.190
  0.090   0.136  -0.070  -0.097  -3.556  -0.140  -0.190  -5.800
 total augmentation occupancy for first ion, spin component:           1
  7.736  -3.372   2.249   2.742   1.595  -1.366  -1.666  -0.969
 -3.372   1.923  -1.214  -1.480  -0.861   0.860   1.049   0.610
  2.249  -1.214   5.929   2.407   1.087  -2.007  -1.198  -0.598
  2.742  -1.480   2.407   6.668   1.706  -1.198  -2.416  -0.850
  1.595  -0.861   1.087   1.706   5.166  -0.598  -0.850  -1.588
 -1.366   0.860  -2.007  -1.198  -0.598   0.854   0.672   0.358
 -1.666   1.049  -1.198  -2.416  -0.850   0.672   1.099   0.476
 -0.969   0.610  -0.598  -0.850  -1.588   0.358   0.476   0.602


------------------------ aborting loop because EDIFF is reached ----------------------------------------




--------------------------------------------------------------------------------------------------------



  FREE ENERGIE OF THE ION-ELECTRON SYSTEM (eV)
  ---------------------------------------------------
  free  energy   TOTEN  =       -37.46463697 eV

  energy  without entropy=      -37.46338426  energy(sigma->0) =      -37.46401061
 


--------------------------------------------------------------------------------------------------------


    POTLOK:  cpu time    0.8840: real time    0.8901


--------------------------------------------------------------------------------------------------------


 writing wavefunctions
     LOOP+:  cpu time 1175.8457: real time 1186.5086
    4ORBIT:  cpu time    0.0000: real time    0.0000

 total amount of memory used by VASP MPI-rank0   404660. kBytes
=======================================================================

   base      :      30000. kBytes
   nonl-proj :     152722. kBytes
   fftplans  :      17762. kBytes
   grid      :      13358. kBytes
   one-center:         93. kBytes
   wavefun   :     190725. kBytes
 
  
  
 General timing and accounting informations for this job:
 ========================================================
  
                  Total CPU time used (sec):     1181.443
                            User time (sec):     1177.619
                          System time (sec):        3.824
                         Elapsed time (sec):     1193.199
  
                   Maximum memory used (kb):      614324.
                   Average memory used (kb):          N/A
  
                          Minor page faults:      1477568
                          Major page faults:           26
                 Voluntary context switches:         1182
