<?xml version="1.0" encoding="ISO-8859-1"?>
<modeling>
 <generator>
  <i name="program" type="string">vasp </i>
  <i name="version" type="string">6.2.0  </i>
  <i name="subversion" type="string">18Jan21 (build Jan 05 2022 15:41:44) complex                          parallel </i>
  <i name="platform" type="string">LinuxIFC </i>
  <i name="date" type="string">2025 05 07 </i>
  <i name="time" type="string">17:27:06 </i>
 </generator>
 <incar>
  <i type="string" name="SYSTEM">routine with relax: pwdword</i>
  <i type="string" name="PREC">Acc</i>
  <i type="int" name="IALGO">    38</i>
  <i type="string" name="ALGO">A</i>
  <i type="logical" name="ADDGRID"> T  </i>
  <i type="int" name="ICHARG">     2</i>
  <i type="int" name="NELM">   100</i>
  <i type="int" name="NELMIN">     6</i>
  <i name="EDIFF">      0.00000000</i>
  <i type="int" name="NSW">     0</i>
  <i type="int" name="ISIF">    -1</i>
  <i name="ENCUT">    600.00000000</i>
  <i type="logical" name="LREAL"> F  </i>
  <i type="int" name="ISMEAR">     0</i>
  <i name="SIGMA">      0.02000000</i>
  <i type="logical" name="LASPH"> T  </i>
  <i type="string" name="METAGGA">R2SCAN</i>
  <i type="logical" name="LMIXTAU"> F  </i>
 </incar>
 <primitive_cell>
  <structure name="primitive_cell" >
   <crystal>
    <varray name="basis" >
     <v>       5.48129205       0.00000000      -3.18724317 </v>
     <v>      -1.81405881       5.17240304      -3.18724317 </v>
     <v>       0.00000000       0.00000000       6.34059000 </v>
    </varray>
    <i name="volume">    179.76493073 </i>
    <varray name="rec_basis" >
     <v>       0.18243874       0.06398469       0.00000000 </v>
     <v>       0.00000000       0.19333374       0.00000000 </v>
     <v>       0.09170702       0.12934702       0.15771403 </v>
    </varray>
   </crystal>
   <varray name="positions" >
    <v>       0.70698000       0.20698000       0.91396000 </v>
    <v>       0.29302000       0.79302000       0.08604000 </v>
    <v>       0.20698000       0.29302000       0.50000000 </v>
    <v>       0.79302000       0.70698000       0.50000000 </v>
    <v>       0.50000000       0.50000000       0.00000000 </v>
    <v>       0.34511000       0.15489000       0.50000000 </v>
    <v>       0.65489000       0.84511000       0.50000000 </v>
    <v>       0.15489000       0.65489000       0.80978000 </v>
    <v>       0.84511000       0.34511000       0.19022000 </v>
    <v>       0.00000000       0.00000000       0.00000000 </v>
    <v>       0.50000000       0.00000000       0.50000000 </v>
    <v>       0.00000000       0.50000000       0.50000000 </v>
   </varray>
  </structure>
  <varray name="primitive_index" >
   <v type="int" >        1 </v>
   <v type="int" >        2 </v>
   <v type="int" >        3 </v>
   <v type="int" >        4 </v>
   <v type="int" >        5 </v>
   <v type="int" >        6 </v>
   <v type="int" >        7 </v>
   <v type="int" >        8 </v>
   <v type="int" >        9 </v>
   <v type="int" >       10 </v>
   <v type="int" >       11 </v>
   <v type="int" >       12 </v>
  </varray>
 </primitive_cell>
 <kpoints>
  <generation param="Gamma">
   <v type="int" name="divisions">       7        7        8 </v>
   <v name="usershift">      0.00000000       0.00000000       0.00000000 </v>
   <v name="genvec1">      0.14285714       0.00000000       0.00000000 </v>
   <v name="genvec2">      0.00000000       0.14285714       0.00000000 </v>
   <v name="genvec3">      0.00000000       0.00000000       0.12500000 </v>
   <v name="shift">      0.00000000       0.00000000       0.00000000 </v>
  </generation>
  <varray name="kpointlist" >
   <v>       0.00000000       0.00000000       0.00000000 </v>
   <v>       0.14285714       0.00000000       0.00000000 </v>
   <v>       0.28571429       0.00000000       0.00000000 </v>
   <v>       0.42857143       0.00000000       0.00000000 </v>
   <v>       0.14285714       0.14285714       0.00000000 </v>
   <v>       0.28571429       0.14285714       0.00000000 </v>
   <v>       0.42857143       0.14285714       0.00000000 </v>
   <v>      -0.42857143       0.14285714       0.00000000 </v>
   <v>      -0.28571429       0.14285714       0.00000000 </v>
   <v>      -0.14285714       0.14285714       0.00000000 </v>
   <v>       0.28571429       0.28571429       0.00000000 </v>
   <v>       0.42857143       0.28571429       0.00000000 </v>
   <v>      -0.42857143       0.28571429       0.00000000 </v>
   <v>      -0.28571429       0.28571429       0.00000000 </v>
   <v>       0.42857143       0.42857143       0.00000000 </v>
   <v>      -0.42857143       0.42857143       0.00000000 </v>
   <v>       0.00000000      -0.00000000       0.12500000 </v>
   <v>       0.14285714      -0.00000000       0.12500000 </v>
   <v>       0.28571429       0.00000000       0.12500000 </v>
   <v>       0.42857143       0.00000000       0.12500000 </v>
   <v>      -0.42857143       0.00000000       0.12500000 </v>
   <v>      -0.28571429       0.00000000       0.12500000 </v>
   <v>      -0.14285714       0.00000000       0.12500000 </v>
   <v>       0.14285714       0.14285714       0.12500000 </v>
   <v>       0.28571429       0.14285714       0.12500000 </v>
   <v>       0.42857143       0.14285714       0.12500000 </v>
   <v>      -0.42857143       0.14285714       0.12500000 </v>
   <v>      -0.28571429       0.14285714       0.12500000 </v>
   <v>      -0.14285714       0.14285714       0.12500000 </v>
   <v>       0.28571429       0.28571429       0.12500000 </v>
   <v>       0.42857143       0.28571429       0.12500000 </v>
   <v>      -0.42857143       0.28571429       0.12500000 </v>
   <v>      -0.28571429       0.28571429       0.12500000 </v>
   <v>      -0.14285714       0.28571429       0.12500000 </v>
   <v>       0.42857143       0.42857143       0.12500000 </v>
   <v>      -0.42857143       0.42857143       0.12500000 </v>
   <v>      -0.28571429       0.42857143       0.12500000 </v>
   <v>      -0.14285714       0.42857143       0.12500000 </v>
   <v>      -0.42857143      -0.42857143       0.12500000 </v>
   <v>      -0.28571429      -0.42857143       0.12500000 </v>
   <v>      -0.14285714      -0.42857143       0.12500000 </v>
   <v>      -0.28571429      -0.28571429       0.12500000 </v>
   <v>      -0.14285714      -0.28571429       0.12500000 </v>
   <v>      -0.14285714      -0.14285714       0.12500000 </v>
   <v>       0.00000000      -0.00000000       0.25000000 </v>
   <v>       0.14285714      -0.00000000       0.25000000 </v>
   <v>       0.28571429      -0.00000000       0.25000000 </v>
   <v>       0.42857143      -0.00000000       0.25000000 </v>
   <v>      -0.42857143       0.00000000       0.25000000 </v>
   <v>      -0.28571429       0.00000000       0.25000000 </v>
   <v>      -0.14285714       0.00000000       0.25000000 </v>
   <v>       0.14285714       0.14285714       0.25000000 </v>
   <v>       0.28571429       0.14285714       0.25000000 </v>
   <v>       0.42857143       0.14285714       0.25000000 </v>
   <v>      -0.42857143       0.14285714       0.25000000 </v>
   <v>      -0.28571429       0.14285714       0.25000000 </v>
   <v>      -0.14285714       0.14285714       0.25000000 </v>
   <v>       0.28571429       0.28571429       0.25000000 </v>
   <v>       0.42857143       0.28571429       0.25000000 </v>
   <v>      -0.42857143       0.28571429       0.25000000 </v>
   <v>      -0.28571429       0.28571429       0.25000000 </v>
   <v>      -0.14285714       0.28571429       0.25000000 </v>
   <v>       0.42857143       0.42857143       0.25000000 </v>
   <v>      -0.42857143       0.42857143       0.25000000 </v>
   <v>      -0.28571429       0.42857143       0.25000000 </v>
   <v>      -0.14285714       0.42857143       0.25000000 </v>
   <v>      -0.42857143      -0.42857143       0.25000000 </v>
   <v>      -0.28571429      -0.42857143       0.25000000 </v>
   <v>      -0.14285714      -0.42857143       0.25000000 </v>
   <v>      -0.28571429      -0.28571429       0.25000000 </v>
   <v>      -0.14285714      -0.28571429       0.25000000 </v>
   <v>      -0.14285714      -0.14285714       0.25000000 </v>
   <v>       0.00000000       0.00000000       0.37500000 </v>
   <v>       0.14285714      -0.00000000       0.37500000 </v>
   <v>       0.28571429       0.00000000       0.37500000 </v>
   <v>       0.42857143       0.00000000       0.37500000 </v>
   <v>      -0.42857143      -0.00000000       0.37500000 </v>
   <v>      -0.28571429      -0.00000000       0.37500000 </v>
   <v>      -0.14285714      -0.00000000       0.37500000 </v>
   <v>       0.14285714       0.14285714       0.37500000 </v>
   <v>       0.28571429       0.14285714       0.37500000 </v>
   <v>       0.42857143       0.14285714       0.37500000 </v>
   <v>      -0.42857143       0.14285714       0.37500000 </v>
   <v>      -0.28571429       0.14285714       0.37500000 </v>
   <v>      -0.14285714       0.14285714       0.37500000 </v>
   <v>       0.28571429       0.28571429       0.37500000 </v>
   <v>       0.42857143       0.28571429       0.37500000 </v>
   <v>      -0.42857143       0.28571429       0.37500000 </v>
   <v>      -0.28571429       0.28571429       0.37500000 </v>
   <v>      -0.14285714       0.28571429       0.37500000 </v>
   <v>       0.42857143       0.42857143       0.37500000 </v>
   <v>      -0.42857143       0.42857143       0.37500000 </v>
   <v>      -0.28571429       0.42857143       0.37500000 </v>
   <v>      -0.14285714       0.42857143       0.37500000 </v>
   <v>      -0.42857143      -0.42857143       0.37500000 </v>
   <v>      -0.28571429      -0.42857143       0.37500000 </v>
   <v>      -0.14285714      -0.42857143       0.37500000 </v>
   <v>      -0.28571429      -0.28571429       0.37500000 </v>
   <v>      -0.14285714      -0.28571429       0.37500000 </v>
   <v>      -0.14285714      -0.14285714       0.37500000 </v>
   <v>       0.00000000      -0.00000000       0.50000000 </v>
   <v>       0.14285714       0.00000000       0.50000000 </v>
   <v>       0.28571429       0.00000000       0.50000000 </v>
   <v>       0.42857143       0.00000000       0.50000000 </v>
   <v>       0.14285714       0.14285714       0.50000000 </v>
   <v>       0.28571429       0.14285714       0.50000000 </v>
   <v>       0.42857143       0.14285714       0.50000000 </v>
   <v>      -0.42857143       0.14285714       0.50000000 </v>
   <v>      -0.28571429       0.14285714       0.50000000 </v>
   <v>      -0.14285714       0.14285714       0.50000000 </v>
   <v>       0.28571429       0.28571429       0.50000000 </v>
   <v>       0.42857143       0.28571429       0.50000000 </v>
   <v>      -0.42857143       0.28571429       0.50000000 </v>
   <v>      -0.28571429       0.28571429       0.50000000 </v>
   <v>       0.42857143       0.42857143       0.50000000 </v>
   <v>      -0.42857143       0.42857143       0.50000000 </v>
  </varray>
  <varray name="weights" >
   <v>       0.00255102 </v>
   <v>       0.01020408 </v>
   <v>       0.01020408 </v>
   <v>       0.01020408 </v>
   <v>       0.00510204 </v>
   <v>       0.01020408 </v>
   <v>       0.01020408 </v>
   <v>       0.01020408 </v>
   <v>       0.01020408 </v>
   <v>       0.00510204 </v>
   <v>       0.00510204 </v>
   <v>       0.01020408 </v>
   <v>       0.01020408 </v>
   <v>       0.00510204 </v>
   <v>       0.00510204 </v>
   <v>       0.00510204 </v>
   <v>       0.00510204 </v>
   <v>       0.01020408 </v>
   <v>       0.01020408 </v>
   <v>       0.01020408 </v>
   <v>       0.01020408 </v>
   <v>       0.01020408 </v>
   <v>       0.01020408 </v>
   <v>       0.00510204 </v>
   <v>       0.01020408 </v>
   <v>       0.01020408 </v>
   <v>       0.01020408 </v>
   <v>       0.01020408 </v>
   <v>       0.01020408 </v>
   <v>       0.00510204 </v>
   <v>       0.01020408 </v>
   <v>       0.01020408 </v>
   <v>       0.01020408 </v>
   <v>       0.01020408 </v>
   <v>       0.00510204 </v>
   <v>       0.01020408 </v>
   <v>       0.01020408 </v>
   <v>       0.01020408 </v>
   <v>       0.00510204 </v>
   <v>       0.01020408 </v>
   <v>       0.01020408 </v>
   <v>       0.00510204 </v>
   <v>       0.01020408 </v>
   <v>       0.00510204 </v>
   <v>       0.00510204 </v>
   <v>       0.01020408 </v>
   <v>       0.01020408 </v>
   <v>       0.01020408 </v>
   <v>       0.01020408 </v>
   <v>       0.01020408 </v>
   <v>       0.01020408 </v>
   <v>       0.00510204 </v>
   <v>       0.01020408 </v>
   <v>       0.01020408 </v>
   <v>       0.01020408 </v>
   <v>       0.01020408 </v>
   <v>       0.01020408 </v>
   <v>       0.00510204 </v>
   <v>       0.01020408 </v>
   <v>       0.01020408 </v>
   <v>       0.01020408 </v>
   <v>       0.01020408 </v>
   <v>       0.00510204 </v>
   <v>       0.01020408 </v>
   <v>       0.01020408 </v>
   <v>       0.01020408 </v>
   <v>       0.00510204 </v>
   <v>       0.01020408 </v>
   <v>       0.01020408 </v>
   <v>       0.00510204 </v>
   <v>       0.01020408 </v>
   <v>       0.00510204 </v>
   <v>       0.00510204 </v>
   <v>       0.01020408 </v>
   <v>       0.01020408 </v>
   <v>       0.01020408 </v>
   <v>       0.01020408 </v>
   <v>       0.01020408 </v>
   <v>       0.01020408 </v>
   <v>       0.00510204 </v>
   <v>       0.01020408 </v>
   <v>       0.01020408 </v>
   <v>       0.01020408 </v>
   <v>       0.01020408 </v>
   <v>       0.01020408 </v>
   <v>       0.00510204 </v>
   <v>       0.01020408 </v>
   <v>       0.01020408 </v>
   <v>       0.01020408 </v>
   <v>       0.01020408 </v>
   <v>       0.00510204 </v>
   <v>       0.01020408 </v>
   <v>       0.01020408 </v>
   <v>       0.01020408 </v>
   <v>       0.00510204 </v>
   <v>       0.01020408 </v>
   <v>       0.01020408 </v>
   <v>       0.00510204 </v>
   <v>       0.01020408 </v>
   <v>       0.00510204 </v>
   <v>       0.00255102 </v>
   <v>       0.01020408 </v>
   <v>       0.01020408 </v>
   <v>       0.01020408 </v>
   <v>       0.00510204 </v>
   <v>       0.01020408 </v>
   <v>       0.01020408 </v>
   <v>       0.01020408 </v>
   <v>       0.01020408 </v>
   <v>       0.00510204 </v>
   <v>       0.00510204 </v>
   <v>       0.01020408 </v>
   <v>       0.01020408 </v>
   <v>       0.00510204 </v>
   <v>       0.00510204 </v>
   <v>       0.00510204 </v>
  </varray>
 </kpoints>
 <parameters>
  <separator name="general" >
   <i type="string" name="SYSTEM">routine with relax: pwdword</i>
   <i type="logical" name="LCOMPAT"> F  </i>
  </separator>
  <separator name="electronic" >
   <i type="string" name="PREC">acc</i>
   <i name="ENMAX">    600.00000000</i>
   <i name="ENAUG">    535.51400000</i>
   <i name="EDIFF">      0.00000000</i>
   <i type="int" name="IALGO">    58</i>
   <i type="int" name="IWAVPR">    10</i>
   <i type="int" name="NBANDS">    66</i>
   <i type="int" name="NBANDSLOW">    -1</i>
   <i type="int" name="NBANDSHIGH">    -1</i>
   <i name="NELECT">    104.00000000</i>
   <i type="int" name="TURBO">     0</i>
   <i type="int" name="IRESTART">     0</i>
   <i type="int" name="NREBOOT">     0</i>
   <i type="int" name="NMIN">     0</i>
   <i name="EREF">      0.00000000</i>
   <separator name="electronic smearing" >
    <i type="int" name="ISMEAR">     0</i>
    <i name="SIGMA">      0.02000000</i>
    <i name="KSPACING">      0.50000000</i>
    <i type="logical" name="KGAMMA"> T  </i>
    <i type="logical" name="KBLOWUP"> F  </i>
   </separator>
   <separator name="electronic projectors" >
    <i type="logical" name="LREAL"> F  </i>
    <v name="ROPT">      0.00000000      0.00000000      0.00000000</v>
    <i type="int" name="LMAXPAW">  -100</i>
    <i type="int" name="LMAXMIX">     2</i>
    <i type="logical" name="NLSPLINE"> F  </i>
   </separator>
   <separator name="electronic startup" >
    <i type="int" name="ISTART">     0</i>
    <i type="int" name="ICHARG">     2</i>
    <i type="int" name="INIWAV">     1</i>
   </separator>
   <separator name="electronic spin" >
    <i type="int" name="ISPIN">     1</i>
    <i type="logical" name="LNONCOLLINEAR"> F  </i>
    <v name="MAGMOM">      1.00000000      1.00000000      1.00000000      1.00000000      1.00000000      1.00000000      1.00000000      1.00000000      1.00000000      1.00000000      1.00000000      1.00000000</v>
    <i name="NUPDOWN">     -1.00000000</i>
    <i type="logical" name="LSORBIT"> F  </i>
    <v name="SAXIS">      0.00000000      0.00000000      1.00000000</v>
    <i type="logical" name="LSPIRAL"> F  </i>
    <v name="QSPIRAL">      0.00000000      0.00000000      0.00000000</v>
    <i type="logical" name="LZEROZ"> F  </i>
   </separator>
   <separator name="electronic exchange-correlation" >
    <i type="logical" name="LASPH"> T  </i>
    <i type="logical" name="LMETAGGA"> F  </i>
   </separator>
   <separator name="electronic convergence" >
    <i type="int" name="NELM">   100</i>
    <i type="int" name="NELMDL">    -5</i>
    <i type="int" name="NELMIN">     6</i>
    <i name="ENINI">    600.00000000</i>
    <separator name="electronic convergence detail" >
     <i type="logical" name="LDIAG"> T  </i>
     <i type="logical" name="LSUBROT"> F  </i>
     <i name="WEIMIN">      0.00000000</i>
     <i name="EBREAK">      0.00000000</i>
     <i name="DEPER">      0.30000000</i>
     <i type="int" name="NRMM">     4</i>
     <i name="TIME">      0.40000000</i>
    </separator>
   </separator>
   <separator name="electronic mixer" >
    <i name="AMIX">      0.40000000</i>
    <i name="BMIX">      1.00000000</i>
    <i name="AMIN">      0.10000000</i>
    <i name="AMIX_MAG">      1.60000000</i>
    <i name="BMIX_MAG">      1.00000000</i>
    <separator name="electronic mixer details" >
     <i type="int" name="IMIX">     4</i>
     <i type="logical" name="MIXFIRST"> F  </i>
     <i type="int" name="MAXMIX">   -45</i>
     <i name="WC">    100.00000000</i>
     <i type="int" name="INIMIX">     1</i>
     <i type="int" name="MIXPRE">     1</i>
     <i type="int" name="MREMOVE">     5</i>
    </separator>
   </separator>
   <separator name="electronic dipolcorrection" >
    <i type="logical" name="LDIPOL"> F  </i>
    <i type="logical" name="LMONO"> F  </i>
    <i type="int" name="IDIPOL">     0</i>
    <i name="EPSILON">      1.00000000</i>
    <v name="DIPOL">   -100.00000000   -100.00000000   -100.00000000</v>
    <i name="EFIELD">      0.00000000</i>
   </separator>
  </separator>
  <separator name="grids" >
   <i type="int" name="NGX">    54</i>
   <i type="int" name="NGY">    54</i>
   <i type="int" name="NGZ">    54</i>
   <i type="int" name="NGXF">   108</i>
   <i type="int" name="NGYF">   108</i>
   <i type="int" name="NGZF">   108</i>
   <i type="logical" name="ADDGRID"> T  </i>
  </separator>
  <separator name="ionic" >
   <i type="int" name="NSW">     0</i>
   <i type="int" name="IBRION">    -1</i>
   <i type="int" name="MDALGO">     0</i>
   <i type="int" name="ISIF">    -1</i>
   <i name="PSTRESS">      0.00000000</i>
   <i name="EDIFFG">      0.00000001</i>
   <i type="int" name="NFREE">     0</i>
   <i name="POTIM">      0.50000000</i>
   <i name="SMASS">     -3.00000000</i>
   <i name="SCALEE">      1.00000000</i>
  </separator>
  <separator name="ionic md" >
   <i name="TEBEG">      0.00010000</i>
   <i name="TEEND">      0.00010000</i>
   <i type="int" name="NBLOCK">     1</i>
   <i type="int" name="KBLOCK">     1</i>
   <i type="int" name="NPACO">   256</i>
   <i name="APACO">     16.00000000</i>
  </separator>
  <separator name="symmetry" >
   <i type="int" name="ISYM">     2</i>
   <i name="SYMPREC">      0.00001000</i>
  </separator>
  <separator name="dos" >
   <i type="int" name="LORBIT">     0</i>
   <v name="RWIGS">     -1.00000000     -1.00000000     -1.00000000</v>
   <i type="int" name="NEDOS">   301</i>
   <i name="EMIN">     10.00000000</i>
   <i name="EMAX">    -10.00000000</i>
   <i name="EFERMI">      0.00000000</i>
  </separator>
  <separator name="writing" >
   <i type="int" name="NWRITE">     2</i>
   <i type="logical" name="LWAVE"> T  </i>
   <i type="logical" name="LDOWNSAMPLE"> F  </i>
   <i type="logical" name="LCHARG"> T  </i>
   <i type="logical" name="LPARD"> F  </i>
   <i type="logical" name="LVTOT"> F  </i>
   <i type="logical" name="LVHAR"> F  </i>
   <i type="logical" name="LELF"> F  </i>
   <i type="logical" name="LOPTICS"> F  </i>
   <v name="STM">      0.00000000      0.00000000      0.00000000      0.00000000      0.00000000      0.00000000      0.00000000</v>
  </separator>
  <separator name="performance" >
   <i type="int" name="NPAR">     6</i>
   <i type="int" name="NSIM">     4</i>
   <i type="int" name="NBLK">    -1</i>
   <i type="logical" name="LPLANE"> T  </i>
   <i type="logical" name="LSCALAPACK"> T  </i>
   <i type="logical" name="LSCAAWARE"> F  </i>
   <i type="logical" name="LSCALU"> F  </i>
   <i type="logical" name="LASYNC"> F  </i>
   <i type="logical" name="LORBITALREAL"> F  </i>
  </separator>
  <separator name="miscellaneous" >
   <i type="int" name="IDIOT">     3</i>
   <i type="int" name="PHON_NSTRUCT">    -1</i>
   <i type="logical" name="LMUSIC"> F  </i>
   <v name="POMASS">     10.81100000     95.94000000     28.08500000</v>
   <v name="DARWINR">      0.00000000      0.00000000      0.00000000</v>
   <v name="DARWINV">      1.00000000      1.00000000      1.00000000</v>
   <i type="logical" name="LCORR"> T  </i>
  </separator>
  <i type="logical" name="GGA_COMPAT"> T  </i>
  <i type="logical" name="LBERRY"> F  </i>
  <i type="int" name="ICORELEVEL">     0</i>
  <i type="logical" name="LDAU"> F  </i>
  <i type="int" name="I_CONSTRAINED_M">     0</i>
  <separator name="electronic exchange-correlation" >
   <i type="string" name="GGA">--</i>
   <i type="int" name="VOSKOWN">     0</i>
   <i type="logical" name="LHFCALC"> F  </i>
   <i type="string" name="PRECFOCK"></i>
   <i type="logical" name="LSYMGRAD"> F  </i>
   <i type="logical" name="LHFONE"> F  </i>
   <i type="logical" name="LRHFCALC"> F  </i>
   <i type="logical" name="LTHOMAS"> F  </i>
   <i type="logical" name="LMODELHF"> F  </i>
   <i type="logical" name="LFOCKACE"> F  </i>
   <i name="ENCUT4O">     -1.00000000</i>
   <i type="int" name="EXXOEP">     0</i>
   <i type="int" name="FOURORBIT">     0</i>
   <i name="AEXX">      0.00000000</i>
   <i name="HFALPHA">      0.00000000</i>
   <i name="MCALPHA">      0.00000000</i>
   <i name="ALDAX">      1.00000000</i>
   <i name="AGGAX">      1.00000000</i>
   <i name="ALDAC">      1.00000000</i>
   <i name="AGGAC">      1.00000000</i>
   <i type="int" name="NKREDX">     1</i>
   <i type="int" name="NKREDY">     1</i>
   <i type="int" name="NKREDZ">     1</i>
   <i type="logical" name="SHIFTRED"> F  </i>
   <i type="logical" name="ODDONLY"> F  </i>
   <i type="logical" name="EVENONLY"> F  </i>
   <i type="int" name="LMAXFOCK">     0</i>
   <i type="int" name="NMAXFOCKAE">     0</i>
   <i type="logical" name="LFOCKAEDFT"> F  </i>
   <i name="HFSCREEN">      0.00000000</i>
   <i name="HFSCREENC">      0.00000000</i>
   <i type="int" name="NBANDSGWLOW">     0</i>
  </separator>
  <separator name="vdW DFT" >
   <i type="logical" name="LUSE_VDW"> F  </i>
   <i name="Zab_VDW">     -0.84910000</i>
   <i name="PARAM1">      0.12340000</i>
   <i name="PARAM2">      1.00000000</i>
   <i name="PARAM3">      0.00000000</i>
  </separator>
  <separator name="model GW" >
   <i type="int" name="MODEL_GW">     0</i>
   <i name="MODEL_EPS0">      8.98824654</i>
   <i name="MODEL_ALPHA">      1.00000000</i>
  </separator>
  <separator name="linear response parameters" >
   <i type="logical" name="LEPSILON"> F  </i>
   <i type="logical" name="LRPA"> F  </i>
   <i type="logical" name="LNABLA"> F  </i>
   <i type="logical" name="LVEL"> F  </i>
   <i type="int" name="KINTER">     0</i>
   <i name="CSHIFT">      0.10000000</i>
   <i name="OMEGAMAX">     -1.00000000</i>
   <i name="DEG_THRESHOLD">      0.00200000</i>
   <i name="RTIME">     -0.10000000</i>
   <i name="WPLASMAI">      0.00000000</i>
   <v name="DFIELD">      0.00000000      0.00000000      0.00000000</v>
   <v name="WPLASMA">      0.00000000      0.00000000      0.00000000      0.00000000      0.00000000      0.00000000      0.00000000      0.00000000      0.00000000</v>
  </separator>
  <separator name="orbital magnetization" >
   <i type="logical" name="NUCIND"> F  </i>
   <v name="MAGPOS">      0.00000000      0.00000000      0.00000000</v>
   <i type="logical" name="LNICSALL"> T  </i>
   <i type="logical" name="ORBITALMAG"> F  </i>
   <i type="logical" name="LMAGBLOCH"> F  </i>
   <i type="logical" name="LCHIMAG"> F  </i>
   <i type="logical" name="LGAUGE"> T  </i>
   <i type="int" name="MAGATOM">     0</i>
   <v name="MAGDIPOL">      0.00000000      0.00000000      0.00000000</v>
   <v name="AVECCONST">      0.00000000      0.00000000      0.00000000</v>
  </separator>
  <separator name="response functions" >
   <i type="logical" name="LFINITE_TEMPERATURE"> F  </i>
   <i type="logical" name="LADDER"> F  </i>
   <i type="logical" name="LRPAFORCE"> F  </i>
   <i type="logical" name="LFXC"> F  </i>
   <i type="logical" name="LHARTREE"> T  </i>
   <i type="int" name="IBSE">     0</i>
   <v type="int" name="KPOINT">    -1     0     0     0</v>
   <i type="logical" name="LTCTC"> F  </i>
   <i type="logical" name="LTCTE"> F  </i>
   <i type="logical" name="LTETE"> F  </i>
   <i type="logical" name="LTRIPLET"> F  </i>
   <i type="logical" name="LFXCEPS"> F  </i>
   <i type="logical" name="LFXHEG"> F  </i>
   <i type="int" name="NATURALO">     2</i>
   <i type="logical" name="LHOLEGF"> F  </i>
   <i type="logical" name="L2ORDER"> F  </i>
   <i type="logical" name="LDMP1"> F  </i>
   <i type="logical" name="LMP2LT"> F  </i>
   <i type="logical" name="LSMP2LT"> F  </i>
   <i type="logical" name="LGWLF"> F  </i>
   <i name="ENCUTGW">     -2.00000000</i>
   <i name="ENCUTGWSOFT">     -2.00000000</i>
   <i name="ENCUTLF">     -1.00000000</i>
   <i type="logical" name="LESF_SPLINES"> F  </i>
   <i type="int" name="LMAXMP2">    -1</i>
   <i name="SCISSOR">      0.00000000</i>
   <i type="int" name="NOMEGA">     0</i>
   <i type="int" name="NOMEGAR">     0</i>
   <i type="int" name="NBANDSGW">    -1</i>
   <i type="int" name="NBANDSO">    -1</i>
   <i type="int" name="NBANDSV">    -1</i>
   <i type="int" name="NELM">   100</i>
   <i type="int" name="NELMHF">     1</i>
   <i type="int" name="DIM">     3</i>
   <i type="int" name="IESPILON">     4</i>
   <i type="int" name="ANTIRES">     0</i>
   <i name="OMEGAMAX">    -30.00000000</i>
   <i name="OMEGAMIN">    -30.00000000</i>
   <i name="OMEGATL">   -200.00000000</i>
   <i type="int" name="OMEGAGRID">     0</i>
   <i name="CSHIFT">     -0.10000000</i>
   <i type="logical" name="LSELFENERGY"> F  </i>
   <i type="logical" name="LSPECTRAL"> F  </i>
   <i type="logical" name="LSPECTRALGW"> F  </i>
   <i type="logical" name="LSINGLES"> F  </i>
   <i type="logical" name="LFERMIGW"> F  </i>
   <i type="logical" name="ODDONLYGW"> F  </i>
   <i type="logical" name="EVENONLYGW"> F  </i>
   <i type="int" name="NKREDLFX">     1</i>
   <i type="int" name="NKREDLFY">     1</i>
   <i type="int" name="NKREDLFZ">     1</i>
   <i type="int" name="MAXMEM">  2800</i>
   <i type="int" name="TELESCOPE">     0</i>
   <i type="int" name="NTAUPAR">    -1</i>
   <i type="int" name="NOMEGAPAR">    -1</i>
   <i name="DAMP_NEWTON">      0.80000001</i>
   <i name="LAMBDA">      1.00000000</i>
  </separator>
  <separator name="External order field" >
   <i name="OFIELD_KAPPA">      0.00000000</i>
   <v name="OFIELD_K">      0.00000000      0.00000000      0.00000000</v>
   <i name="OFIELD_Q6_NEAR">      0.00000000</i>
   <i name="OFIELD_Q6_FAR">      0.00000000</i>
   <i name="OFIELD_A">      0.00000000</i>
  </separator>
 </parameters>
 <atominfo>
  <atoms>      12 </atoms>
  <types>       3 </types>
  <array name="atoms" >
   <dimension dim="1">ion</dimension>
   <field type="string">element</field>
   <field type="int">atomtype</field>
   <set>
    <rc><c>B </c><c>   1</c></rc>
    <rc><c>B </c><c>   1</c></rc>
    <rc><c>B </c><c>   1</c></rc>
    <rc><c>B </c><c>   1</c></rc>
    <rc><c>Mo</c><c>   2</c></rc>
    <rc><c>Mo</c><c>   2</c></rc>
    <rc><c>Mo</c><c>   2</c></rc>
    <rc><c>Mo</c><c>   2</c></rc>
    <rc><c>Mo</c><c>   2</c></rc>
    <rc><c>Mo</c><c>   2</c></rc>
    <rc><c>Si</c><c>   3</c></rc>
    <rc><c>Si</c><c>   3</c></rc>
   </set>
  </array>
  <array name="atomtypes" >
   <dimension dim="1">type</dimension>
   <field type="int">atomspertype</field>
   <field type="string">element</field>
   <field>mass</field>
   <field>valence</field>
   <field type="string">pseudopotential</field>
   <set>
    <rc><c>   4</c><c>B </c><c>     10.81100000</c><c>      3.00000000</c><c>  PAW_PBE B 06Sep2000                   </c></rc>
    <rc><c>   6</c><c>Mo</c><c>     95.94000000</c><c>     14.00000000</c><c>  PAW_PBE Mo_sv 02Feb2006               </c></rc>
    <rc><c>   2</c><c>Si</c><c>     28.08500000</c><c>      4.00000000</c><c>  PAW_PBE Si 05Jan2001                  </c></rc>
   </set>
  </array>
 </atominfo>
 <structure name="initialpos" >
  <crystal>
   <varray name="basis" >
    <v>       5.48129205       0.00000000      -3.18724317 </v>
    <v>      -1.81405881       5.17240304      -3.18724317 </v>
    <v>       0.00000000       0.00000000       6.34059000 </v>
   </varray>
   <i name="volume">    179.76493073 </i>
   <varray name="rec_basis" >
    <v>       0.18243874       0.06398469       0.00000000 </v>
    <v>       0.00000000       0.19333374       0.00000000 </v>
    <v>       0.09170702       0.12934702       0.15771403 </v>
   </varray>
  </crystal>
  <varray name="positions" >
   <v>       0.70698000       0.20698000       0.91396000 </v>
   <v>       0.29302000       0.79302000       0.08604000 </v>
   <v>       0.20698000       0.29302000       0.50000000 </v>
   <v>       0.79302000       0.70698000       0.50000000 </v>
   <v>       0.50000000       0.50000000       0.00000000 </v>
   <v>       0.34511000       0.15489000       0.50000000 </v>
   <v>       0.65489000       0.84511000       0.50000000 </v>
   <v>       0.15489000       0.65489000       0.80978000 </v>
   <v>       0.84511000       0.34511000       0.19022000 </v>
   <v>       0.00000000       0.00000000       0.00000000 </v>
   <v>       0.50000000       0.00000000       0.50000000 </v>
   <v>       0.00000000       0.50000000       0.50000000 </v>
  </varray>
 </structure>
 <calculation>
  <scstep>
   <time name="total">   30.13   30.41</time>
   <energy>
    <i name="alphaZ">    519.72987571 </i>
    <i name="ewald">  -6443.98887473 </i>
    <i name="hartreedc">  -4449.53227215 </i>
    <i name="XCdc">    504.19380219 </i>
    <i name="pawpsdc">   9250.47132855 </i>
    <i name="pawaedc">  -9210.50234729 </i>
    <i name="eentropy">     -0.00031409 </i>
    <i name="bandstr">   -449.34791095 </i>
    <i name="atom">  11664.50664672 </i>
    <i name="e_fr_energy">   1385.52993396 </i>
    <i name="e_wo_entrp">   1385.53024805 </i>
    <i name="e_0_energy">   1385.53009101 </i>
   </energy>
  </scstep>
  <scstep>
   <time name="total">   30.49   30.77</time>
   <energy>
    <i name="e_fr_energy">    -53.35849618 </i>
    <i name="e_wo_entrp">    -53.35738248 </i>
    <i name="e_0_energy">    -53.35793933 </i>
   </energy>
  </scstep>
  <scstep>
   <time name="total">   31.75   32.03</time>
   <energy>
    <i name="e_fr_energy">   -108.74254202 </i>
    <i name="e_wo_entrp">   -108.74168688 </i>
    <i name="e_0_energy">   -108.74211445 </i>
   </energy>
  </scstep>
  <scstep>
   <time name="total">   31.42   31.70</time>
   <energy>
    <i name="e_fr_energy">   -109.87840967 </i>
    <i name="e_wo_entrp">   -109.87735410 </i>
    <i name="e_0_energy">   -109.87788188 </i>
   </energy>
  </scstep>
  <scstep>
   <time name="total">   33.49   33.78</time>
   <energy>
    <i name="e_fr_energy">   -109.90432467 </i>
    <i name="e_wo_entrp">   -109.90328401 </i>
    <i name="e_0_energy">   -109.90380434 </i>
   </energy>
  </scstep>
  <scstep>
   <time name="total">   34.88   35.17</time>
   <energy>
    <i name="e_fr_energy">     65.77076104 </i>
    <i name="e_wo_entrp">     65.77194201 </i>
    <i name="e_0_energy">     65.77135153 </i>
   </energy>
  </scstep>
  <scstep>
   <time name="total">   34.77   35.07</time>
   <energy>
    <i name="e_fr_energy">    -20.18148568 </i>
    <i name="e_wo_entrp">    -20.18014001 </i>
    <i name="e_0_energy">    -20.18081284 </i>
   </energy>
  </scstep>
  <scstep>
   <time name="total">   34.67   34.96</time>
   <energy>
    <i name="e_fr_energy">    -31.28184348 </i>
    <i name="e_wo_entrp">    -31.28064641 </i>
    <i name="e_0_energy">    -31.28124494 </i>
   </energy>
  </scstep>
  <scstep>
   <time name="total">   34.84   35.14</time>
   <energy>
    <i name="e_fr_energy">    -34.90013231 </i>
    <i name="e_wo_entrp">    -34.89919599 </i>
    <i name="e_0_energy">    -34.89966415 </i>
   </energy>
  </scstep>
  <scstep>
   <time name="total">   34.64   34.93</time>
   <energy>
    <i name="e_fr_energy">    -36.42841474 </i>
    <i name="e_wo_entrp">    -36.42708605 </i>
    <i name="e_0_energy">    -36.42775040 </i>
   </energy>
  </scstep>
  <scstep>
   <time name="total">   34.93   35.22</time>
   <energy>
    <i name="e_fr_energy">    -37.02108128 </i>
    <i name="e_wo_entrp">    -37.01938064 </i>
    <i name="e_0_energy">    -37.02023096 </i>
   </energy>
  </scstep>
  <scstep>
   <time name="total">   34.64   34.93</time>
   <energy>
    <i name="e_fr_energy">    -37.28203387 </i>
    <i name="e_wo_entrp">    -37.28087892 </i>
    <i name="e_0_energy">    -37.28145639 </i>
   </energy>
  </scstep>
  <scstep>
   <time name="total">   34.66   34.97</time>
   <energy>
    <i name="e_fr_energy">    -37.38423796 </i>
    <i name="e_wo_entrp">    -37.38319228 </i>
    <i name="e_0_energy">    -37.38371512 </i>
   </energy>
  </scstep>
  <scstep>
   <time name="total">   35.04   35.34</time>
   <energy>
    <i name="e_fr_energy">    -37.43428132 </i>
    <i name="e_wo_entrp">    -37.43316239 </i>
    <i name="e_0_energy">    -37.43372185 </i>
   </energy>
  </scstep>
  <scstep>
   <time name="total">   34.89   35.20</time>
   <energy>
    <i name="e_fr_energy">    -37.45220241 </i>
    <i name="e_wo_entrp">    -37.45103767 </i>
    <i name="e_0_energy">    -37.45162004 </i>
   </energy>
  </scstep>
  <scstep>
   <time name="total">   34.81   35.11</time>
   <energy>
    <i name="e_fr_energy">    -37.46005043 </i>
    <i name="e_wo_entrp">    -37.45885927 </i>
    <i name="e_0_energy">    -37.45945485 </i>
   </energy>
  </scstep>
  <scstep>
   <time name="total">   34.66   34.95</time>
   <energy>
    <i name="e_fr_energy">    -37.46281697 </i>
    <i name="e_wo_entrp">    -37.46160008 </i>
    <i name="e_0_energy">    -37.46220852 </i>
   </energy>
  </scstep>
  <scstep>
   <time name="total">   34.84   35.14</time>
   <energy>
    <i name="e_fr_energy">    -37.46392514 </i>
    <i name="e_wo_entrp">    -37.46269367 </i>
    <i name="e_0_energy">    -37.46330941 </i>
   </energy>
  </scstep>
  <scstep>
   <time name="total">   34.65   34.95</time>
   <energy>
    <i name="e_fr_energy">    -37.46437188 </i>
    <i name="e_wo_entrp">    -37.46313242 </i>
    <i name="e_0_energy">    -37.46375215 </i>
   </energy>
  </scstep>
  <scstep>
   <time name="total">   35.02   35.31</time>
   <energy>
    <i name="e_fr_energy">    -37.46453304 </i>
    <i name="e_wo_entrp">    -37.46328667 </i>
    <i name="e_0_energy">    -37.46390985 </i>
   </energy>
  </scstep>
  <scstep>
   <time name="total">   34.75   35.03</time>
   <energy>
    <i name="e_fr_energy">    -37.46459666 </i>
    <i name="e_wo_entrp">    -37.46334707 </i>
    <i name="e_0_energy">    -37.46397186 </i>
   </energy>
  </scstep>
  <scstep>
   <time name="total">   34.72   35.01</time>
   <energy>
    <i name="e_fr_energy">    -37.46462311 </i>
    <i name="e_wo_entrp">    -37.46337248 </i>
    <i name="e_0_energy">    -37.46399779 </i>
   </energy>
  </scstep>
  <scstep>
   <time name="total">   34.91   35.19</time>
   <energy>
    <i name="e_fr_energy">    -37.46463116 </i>
    <i name="e_wo_entrp">    -37.46337939 </i>
    <i name="e_0_energy">    -37.46400528 </i>
   </energy>
  </scstep>
  <scstep>
   <time name="total">   34.64   34.93</time>
   <energy>
    <i name="e_fr_energy">    -37.46463440 </i>
    <i name="e_wo_entrp">    -37.46338202 </i>
    <i name="e_0_energy">    -37.46400821 </i>
   </energy>
  </scstep>
  <scstep>
   <time name="total">   34.88   35.17</time>
   <energy>
    <i name="e_fr_energy">    -37.46463602 </i>
    <i name="e_wo_entrp">    -37.46338336 </i>
    <i name="e_0_energy">    -37.46400969 </i>
   </energy>
  </scstep>
  <scstep>
   <time name="total">   34.82   35.12</time>
   <energy>
    <i name="e_fr_energy">    -37.46463625 </i>
    <i name="e_wo_entrp">    -37.46338336 </i>
    <i name="e_0_energy">    -37.46400981 </i>
   </energy>
  </scstep>
  <scstep>
   <time name="total">   34.70   34.99</time>
   <energy>
    <i name="e_fr_energy">    -37.46463673 </i>
    <i name="e_wo_entrp">    -37.46338387 </i>
    <i name="e_0_energy">    -37.46401030 </i>
   </energy>
  </scstep>
  <scstep>
   <time name="total">   34.86   35.15</time>
   <energy>
    <i name="e_fr_energy">    -37.46463689 </i>
    <i name="e_wo_entrp">    -37.46338413 </i>
    <i name="e_0_energy">    -37.46401051 </i>
   </energy>
  </scstep>
  <scstep>
   <time name="total">   34.76   35.05</time>
   <energy>
    <i name="e_fr_energy">    -37.46463694 </i>
    <i name="e_wo_entrp">    -37.46338419 </i>
    <i name="e_0_energy">    -37.46401057 </i>
   </energy>
  </scstep>
  <scstep>
   <time name="total">   34.79   35.06</time>
   <energy>
    <i name="e_fr_energy">    -37.46463696 </i>
    <i name="e_wo_entrp">    -37.46338420 </i>
    <i name="e_0_energy">    -37.46401058 </i>
   </energy>
  </scstep>
  <scstep>
   <time name="total">   34.63   34.91</time>
   <energy>
    <i name="e_fr_energy">    -37.46463696 </i>
    <i name="e_wo_entrp">    -37.46338422 </i>
    <i name="e_0_energy">    -37.46401059 </i>
   </energy>
  </scstep>
  <scstep>
   <time name="total">   34.98   35.27</time>
   <energy>
    <i name="e_fr_energy">    -37.46463696 </i>
    <i name="e_wo_entrp">    -37.46338423 </i>
    <i name="e_0_energy">    -37.46401060 </i>
   </energy>
  </scstep>
  <scstep>
   <time name="total">   35.07   35.36</time>
   <energy>
    <i name="e_fr_energy">    -37.46463697 </i>
    <i name="e_wo_entrp">    -37.46338425 </i>
    <i name="e_0_energy">    -37.46401061 </i>
   </energy>
  </scstep>
  <scstep>
   <time name="total">   40.13   40.47</time>
   <energy>
    <i name="alphaZ">    519.72987571 </i>
    <i name="ewald">  -6443.98887473 </i>
    <i name="hartreedc">  -4759.00113742 </i>
    <i name="XCdc">    532.51104959 </i>
    <i name="pawpsdc">  56876.34494024 </i>
    <i name="pawaedc"> -56815.78001773 </i>
    <i name="eentropy">     -0.00125271 </i>
    <i name="bandstr">  -1611.78586663 </i>
    <i name="atom">  11664.50664672 </i>
    <i name="e_fr_energy">    -37.46463697 </i>
    <i name="e_wo_entrp">    -37.46338426 </i>
    <i name="e_0_energy">    -37.46401061 </i>
   </energy>
  </scstep>
  <structure>
   <crystal>
    <varray name="basis" >
     <v>       5.48129205       0.00000000      -3.18724317 </v>
     <v>      -1.81405881       5.17240304      -3.18724317 </v>
     <v>       0.00000000       0.00000000       6.34059000 </v>
    </varray>
    <i name="volume">    179.76493073 </i>
    <varray name="rec_basis" >
     <v>       0.18243874       0.06398469       0.00000000 </v>
     <v>       0.00000000       0.19333374       0.00000000 </v>
     <v>       0.09170702       0.12934702       0.15771403 </v>
    </varray>
   </crystal>
   <varray name="positions" >
    <v>       0.70698000       0.20698000       0.91396000 </v>
    <v>       0.29302000       0.79302000       0.08604000 </v>
    <v>       0.20698000       0.29302000       0.50000000 </v>
    <v>       0.79302000       0.70698000       0.50000000 </v>
    <v>       0.50000000       0.50000000       0.00000000 </v>
    <v>       0.34511000       0.15489000       0.50000000 </v>
    <v>       0.65489000       0.84511000       0.50000000 </v>
    <v>       0.15489000       0.65489000       0.80978000 </v>
    <v>       0.84511000       0.34511000       0.19022000 </v>
    <v>       0.00000000       0.00000000       0.00000000 </v>
    <v>       0.50000000       0.00000000       0.50000000 </v>
    <v>       0.00000000       0.50000000       0.50000000 </v>
   </varray>
  </structure>
  <varray name="forces" >
   <v>       0.00000000       0.00000000       0.00000000 </v>
   <v>       0.00000000       0.00000000       0.00000000 </v>
   <v>       0.00000000       0.00000000       0.00000000 </v>
   <v>       0.00000000       0.00000000       0.00000000 </v>
   <v>       0.00000000       0.00000000       0.00000000 </v>
   <v>       0.00000000       0.00000000       0.00000000 </v>
   <v>       0.00000000       0.00000000       0.00000000 </v>
   <v>       0.00000000       0.00000000       0.00000000 </v>
   <v>       0.00000000       0.00000000       0.00000000 </v>
   <v>       0.00000000       0.00000000       0.00000000 </v>
   <v>       0.00000000       0.00000000       0.00000000 </v>
   <v>       0.00000000       0.00000000       0.00000000 </v>
  </varray>
  <varray name="stress" >
   <v>       0.00000000       0.00000000       0.00000000 </v>
   <v>       0.00000000       0.00000000       0.00000000 </v>
   <v>       0.00000000       0.00000000       0.00000000 </v>
  </varray>
  <energy>
   <i name="e_fr_energy">    -37.46463697 </i>
   <i name="e_wo_entrp">    -37.46338426 </i>
   <i name="e_0_energy">    -37.46401061 </i>
  </energy>
  <time name="totalsc"> 1175.85 1186.51</time>
  <eigenvalues>
   <array>
    <dimension dim="1">band</dimension>
    <dimension dim="2">kpoint</dimension>
    <dimension dim="3">spin</dimension>
    <field>eigene</field>
    <field>occ</field>
    <set>
     <set comment="spin 1">
      <set comment="kpoint 1">
       <r>  -56.3737    1.0000 </r>
       <r>  -56.2494    1.0000 </r>
       <r>  -55.8840    1.0000 </r>
       <r>  -55.8838    1.0000 </r>
       <r>  -55.3827    1.0000 </r>
       <r>  -55.2468    1.0000 </r>
       <r>  -34.0309    1.0000 </r>
       <r>  -34.0207    1.0000 </r>
       <r>  -32.9995    1.0000 </r>
       <r>  -32.9992    1.0000 </r>
       <r>  -30.4390    1.0000 </r>
       <r>  -30.4390    1.0000 </r>
       <r>  -29.1288    1.0000 </r>
       <r>  -29.0215    1.0000 </r>
       <r>  -29.0215    1.0000 </r>
       <r>  -28.9975    1.0000 </r>
       <r>  -28.8566    1.0000 </r>
       <r>  -28.7181    1.0000 </r>
       <r>  -28.2789    1.0000 </r>
       <r>  -28.2787    1.0000 </r>
       <r>  -28.2228    1.0000 </r>
       <r>  -28.1261    1.0000 </r>
       <r>  -27.5482    1.0000 </r>
       <r>  -27.5481    1.0000 </r>
       <r>   -3.3554    1.0000 </r>
       <r>   -3.3554    1.0000 </r>
       <r>   -3.2142    1.0000 </r>
       <r>   -2.8071    1.0000 </r>
       <r>   -2.2380    1.0000 </r>
       <r>   -1.3727    1.0000 </r>
       <r>    0.2908    1.0000 </r>
       <r>    0.2910    1.0000 </r>
       <r>    0.6399    1.0000 </r>
       <r>    0.6835    1.0000 </r>
       <r>    0.8220    1.0000 </r>
       <r>    1.9357    1.0000 </r>
       <r>    2.3594    1.0000 </r>
       <r>    2.3594    1.0000 </r>
       <r>    3.7795    1.0000 </r>
       <r>    3.9271    1.0000 </r>
       <r>    4.2542    1.0000 </r>
       <r>    4.2543    1.0000 </r>
       <r>    4.7390    1.0000 </r>
       <r>    4.7390    1.0000 </r>
       <r>    5.4407    1.0000 </r>
       <r>    5.4633    1.0000 </r>
       <r>    6.1266    1.0000 </r>
       <r>    6.2966    1.0000 </r>
       <r>    6.4371    1.0000 </r>
       <r>    6.4371    1.0000 </r>
       <r>    6.9610    1.0000 </r>
       <r>    7.3567    0.0000 </r>
       <r>    7.3567    0.0000 </r>
       <r>    7.5878    0.0000 </r>
       <r>    7.6052    0.0000 </r>
       <r>    8.0897    0.0000 </r>
       <r>    8.8802    0.0000 </r>
       <r>    8.8802    0.0000 </r>
       <r>    9.2995    0.0000 </r>
       <r>    9.5780    0.0000 </r>
       <r>    9.5780    0.0000 </r>
       <r>    9.8330    0.0000 </r>
       <r>    9.9263    0.0000 </r>
       <r>   10.1348    0.0000 </r>
       <r>   11.9479    0.0000 </r>
       <r>   11.9801    0.0000 </r>
      </set>
      <set comment="kpoint 2">
       <r>  -56.3647    1.0000 </r>
       <r>  -56.2504    1.0000 </r>
       <r>  -55.8951    1.0000 </r>
       <r>  -55.8908    1.0000 </r>
       <r>  -55.3699    1.0000 </r>
       <r>  -55.2494    1.0000 </r>
       <r>  -34.0355    1.0000 </r>
       <r>  -34.0260    1.0000 </r>
       <r>  -32.9937    1.0000 </r>
       <r>  -32.9929    1.0000 </r>
       <r>  -30.4056    1.0000 </r>
       <r>  -30.4045    1.0000 </r>
       <r>  -29.3913    1.0000 </r>
       <r>  -29.3299    1.0000 </r>
       <r>  -28.8511    1.0000 </r>
       <r>  -28.7512    1.0000 </r>
       <r>  -28.7271    1.0000 </r>
       <r>  -28.6887    1.0000 </r>
       <r>  -28.2762    1.0000 </r>
       <r>  -28.2699    1.0000 </r>
       <r>  -28.2248    1.0000 </r>
       <r>  -28.1322    1.0000 </r>
       <r>  -27.5899    1.0000 </r>
       <r>  -27.5858    1.0000 </r>
       <r>   -3.5534    1.0000 </r>
       <r>   -3.4344    1.0000 </r>
       <r>   -3.1259    1.0000 </r>
       <r>   -2.4624    1.0000 </r>
       <r>   -2.2029    1.0000 </r>
       <r>   -1.3232    1.0000 </r>
       <r>    0.0748    1.0000 </r>
       <r>    0.3631    1.0000 </r>
       <r>    0.4761    1.0000 </r>
       <r>    0.6912    1.0000 </r>
       <r>    0.9829    1.0000 </r>
       <r>    1.9041    1.0000 </r>
       <r>    2.2282    1.0000 </r>
       <r>    2.4849    1.0000 </r>
       <r>    3.8252    1.0000 </r>
       <r>    3.9634    1.0000 </r>
       <r>    4.1970    1.0000 </r>
       <r>    4.2286    1.0000 </r>
       <r>    4.4682    1.0000 </r>
       <r>    4.6392    1.0000 </r>
       <r>    5.2983    1.0000 </r>
       <r>    5.3160    1.0000 </r>
       <r>    5.9699    1.0000 </r>
       <r>    6.2307    1.0000 </r>
       <r>    6.4631    1.0000 </r>
       <r>    6.4706    1.0000 </r>
       <r>    6.5432    1.0000 </r>
       <r>    7.4265    0.0000 </r>
       <r>    7.6523    0.0000 </r>
       <r>    7.9231    0.0000 </r>
       <r>    7.9451    0.0000 </r>
       <r>    8.2544    0.0000 </r>
       <r>    8.8186    0.0000 </r>
       <r>    8.8921    0.0000 </r>
       <r>    9.4263    0.0000 </r>
       <r>    9.5622    0.0000 </r>
       <r>    9.6991    0.0000 </r>
       <r>    9.7495    0.0000 </r>
       <r>    9.9404    0.0000 </r>
       <r>   10.1937    0.0000 </r>
       <r>   11.8825    0.0000 </r>
       <r>   12.2844    0.0000 </r>
      </set>
      <set comment="kpoint 3">
       <r>  -56.3399    1.0000 </r>
       <r>  -56.2568    1.0000 </r>
       <r>  -55.9177    1.0000 </r>
       <r>  -55.9080    1.0000 </r>
       <r>  -55.3392    1.0000 </r>
       <r>  -55.2585    1.0000 </r>
       <r>  -34.0452    1.0000 </r>
       <r>  -34.0382    1.0000 </r>
       <r>  -32.9807    1.0000 </r>
       <r>  -32.9792    1.0000 </r>
       <r>  -30.3071    1.0000 </r>
       <r>  -30.3016    1.0000 </r>
       <r>  -29.6794    1.0000 </r>
       <r>  -29.6341    1.0000 </r>
       <r>  -28.8353    1.0000 </r>
       <r>  -28.7506    1.0000 </r>
       <r>  -28.4411    1.0000 </r>
       <r>  -28.3830    1.0000 </r>
       <r>  -28.2688    1.0000 </r>
       <r>  -28.2496    1.0000 </r>
       <r>  -28.2275    1.0000 </r>
       <r>  -28.1496    1.0000 </r>
       <r>  -27.7118    1.0000 </r>
       <r>  -27.6965    1.0000 </r>
       <r>   -3.7556    1.0000 </r>
       <r>   -3.6040    1.0000 </r>
       <r>   -2.8851    1.0000 </r>
       <r>   -2.1784    1.0000 </r>
       <r>   -1.8441    1.0000 </r>
       <r>   -1.1778    1.0000 </r>
       <r>   -0.2874    1.0000 </r>
       <r>    0.0103    1.0000 </r>
       <r>    0.5654    1.0000 </r>
       <r>    0.8485    1.0000 </r>
       <r>    1.1418    1.0000 </r>
       <r>    1.8524    1.0000 </r>
       <r>    1.9165    1.0000 </r>
       <r>    2.6785    1.0000 </r>
       <r>    3.4563    1.0000 </r>
       <r>    3.7858    1.0000 </r>
       <r>    4.1422    1.0000 </r>
       <r>    4.1504    1.0000 </r>
       <r>    4.5284    1.0000 </r>
       <r>    4.5780    1.0000 </r>
       <r>    5.0351    1.0000 </r>
       <r>    5.0475    1.0000 </r>
       <r>    5.6796    1.0000 </r>
       <r>    5.9010    1.0000 </r>
       <r>    6.5104    1.0000 </r>
       <r>    6.6737    1.0000 </r>
       <r>    6.7193    1.0000 </r>
       <r>    7.3889    0.0000 </r>
       <r>    7.7187    0.0000 </r>
       <r>    7.7801    0.0000 </r>
       <r>    8.4013    0.0000 </r>
       <r>    8.6984    0.0000 </r>
       <r>    8.8183    0.0000 </r>
       <r>    9.0731    0.0000 </r>
       <r>    9.5018    0.0000 </r>
       <r>    9.5540    0.0000 </r>
       <r>    9.7401    0.0000 </r>
       <r>    9.8576    0.0000 </r>
       <r>   10.1820    0.0000 </r>
       <r>   10.7569    0.0000 </r>
       <r>   11.7146    0.0000 </r>
       <r>   12.5157    0.0000 </r>
      </set>
      <set comment="kpoint 4">
       <r>  -56.3064    1.0000 </r>
       <r>  -56.2754    1.0000 </r>
       <r>  -55.9310    1.0000 </r>
       <r>  -55.9255    1.0000 </r>
       <r>  -55.3049    1.0000 </r>
       <r>  -55.2767    1.0000 </r>
       <r>  -34.0515    1.0000 </r>
       <r>  -34.0489    1.0000 </r>
       <r>  -32.9698    1.0000 </r>
       <r>  -32.9690    1.0000 </r>
       <r>  -30.1480    1.0000 </r>
       <r>  -30.1333    1.0000 </r>
       <r>  -29.9356    1.0000 </r>
       <r>  -29.9068    1.0000 </r>
       <r>  -28.8108    1.0000 </r>
       <r>  -28.7809    1.0000 </r>
       <r>  -28.2584    1.0000 </r>
       <r>  -28.2480    1.0000 </r>
       <r>  -28.2072    1.0000 </r>
       <r>  -28.1762    1.0000 </r>
       <r>  -28.1528    1.0000 </r>
       <r>  -28.1066    1.0000 </r>
       <r>  -27.9040    1.0000 </r>
       <r>  -27.8734    1.0000 </r>
       <r>   -3.8215    1.0000 </r>
       <r>   -3.7575    1.0000 </r>
       <r>   -2.5655    1.0000 </r>
       <r>   -2.2927    1.0000 </r>
       <r>   -1.1723    1.0000 </r>
       <r>   -0.9459    1.0000 </r>
       <r>   -0.6411    1.0000 </r>
       <r>   -0.5465    1.0000 </r>
       <r>    0.8438    1.0000 </r>
       <r>    1.0856    1.0000 </r>
       <r>    1.1230    1.0000 </r>
       <r>    1.4953    1.0000 </r>
       <r>    1.9752    1.0000 </r>
       <r>    2.3592    1.0000 </r>
       <r>    3.3733    1.0000 </r>
       <r>    3.6553    1.0000 </r>
       <r>    3.9515    1.0000 </r>
       <r>    4.0177    1.0000 </r>
       <r>    4.7540    1.0000 </r>
       <r>    4.8431    1.0000 </r>
       <r>    4.9637    1.0000 </r>
       <r>    4.9865    1.0000 </r>
       <r>    5.3673    1.0000 </r>
       <r>    5.4054    1.0000 </r>
       <r>    6.8156    1.0000 </r>
       <r>    6.8682    1.0000 </r>
       <r>    6.9175    1.0000 </r>
       <r>    7.2156    0.9999 </r>
       <r>    7.6047    0.0000 </r>
       <r>    7.7137    0.0000 </r>
       <r>    8.6516    0.0000 </r>
       <r>    8.6621    0.0000 </r>
       <r>    8.7730    0.0000 </r>
       <r>    9.1105    0.0000 </r>
       <r>    9.4051    0.0000 </r>
       <r>    9.4329    0.0000 </r>
       <r>   10.0795    0.0000 </r>
       <r>   10.3401    0.0000 </r>
       <r>   10.5652    0.0000 </r>
       <r>   10.9748    0.0000 </r>
       <r>   11.8528    0.0000 </r>
       <r>   12.3019    0.0000 </r>
      </set>
      <set comment="kpoint 5">
       <r>  -56.3559    1.0000 </r>
       <r>  -56.2506    1.0000 </r>
       <r>  -55.9060    1.0000 </r>
       <r>  -55.8980    1.0000 </r>
       <r>  -55.3584    1.0000 </r>
       <r>  -55.2514    1.0000 </r>
       <r>  -34.0400    1.0000 </r>
       <r>  -34.0312    1.0000 </r>
       <r>  -32.9883    1.0000 </r>
       <r>  -32.9860    1.0000 </r>
       <r>  -30.4418    1.0000 </r>
       <r>  -30.3022    1.0000 </r>
       <r>  -29.6595    1.0000 </r>
       <r>  -29.0623    1.0000 </r>
       <r>  -29.0213    1.0000 </r>
       <r>  -28.8465    1.0000 </r>
       <r>  -28.7346    1.0000 </r>
       <r>  -28.4110    1.0000 </r>
       <r>  -28.2749    1.0000 </r>
       <r>  -28.2604    1.0000 </r>
       <r>  -28.2270    1.0000 </r>
       <r>  -28.1379    1.0000 </r>
       <r>  -27.7019    1.0000 </r>
       <r>  -27.5507    1.0000 </r>
       <r>   -3.6580    1.0000 </r>
       <r>   -3.5109    1.0000 </r>
       <r>   -3.0295    1.0000 </r>
       <r>   -2.2120    1.0000 </r>
       <r>   -2.1767    1.0000 </r>
       <r>   -1.2660    1.0000 </r>
       <r>   -0.0166    1.0000 </r>
       <r>    0.3460    1.0000 </r>
       <r>    0.3704    1.0000 </r>
       <r>    0.7342    1.0000 </r>
       <r>    1.0754    1.0000 </r>
       <r>    1.8276    1.0000 </r>
       <r>    2.1906    1.0000 </r>
       <r>    2.5048    1.0000 </r>
       <r>    3.8068    1.0000 </r>
       <r>    3.9719    1.0000 </r>
       <r>    4.0594    1.0000 </r>
       <r>    4.1941    1.0000 </r>
       <r>    4.2276    1.0000 </r>
       <r>    4.6138    1.0000 </r>
       <r>    5.1909    1.0000 </r>
       <r>    5.3546    1.0000 </r>
       <r>    5.7213    1.0000 </r>
       <r>    6.1142    1.0000 </r>
       <r>    6.1265    1.0000 </r>
       <r>    6.8716    1.0000 </r>
       <r>    6.9541    1.0000 </r>
       <r>    7.1596    1.0000 </r>
       <r>    7.6545    0.0000 </r>
       <r>    7.6808    0.0000 </r>
       <r>    8.2508    0.0000 </r>
       <r>    8.4660    0.0000 </r>
       <r>    8.7266    0.0000 </r>
       <r>    9.0475    0.0000 </r>
       <r>    9.5367    0.0000 </r>
       <r>    9.5461    0.0000 </r>
       <r>    9.7314    0.0000 </r>
       <r>    9.8636    0.0000 </r>
       <r>    9.9024    0.0000 </r>
       <r>   10.3914    0.0000 </r>
       <r>   12.0892    0.0000 </r>
       <r>   12.5407    0.0000 </r>
      </set>
      <set comment="kpoint 6">
       <r>  -56.3318    1.0000 </r>
       <r>  -56.2549    1.0000 </r>
       <r>  -55.9279    1.0000 </r>
       <r>  -55.9160    1.0000 </r>
       <r>  -55.3305    1.0000 </r>
       <r>  -55.2587    1.0000 </r>
       <r>  -34.0496    1.0000 </r>
       <r>  -34.0431    1.0000 </r>
       <r>  -32.9751    1.0000 </r>
       <r>  -32.9722    1.0000 </r>
       <r>  -30.4097    1.0000 </r>
       <r>  -30.1378    1.0000 </r>
       <r>  -29.9241    1.0000 </r>
       <r>  -29.3577    1.0000 </r>
       <r>  -28.8322    1.0000 </r>
       <r>  -28.7549    1.0000 </r>
       <r>  -28.7206    1.0000 </r>
       <r>  -28.2686    1.0000 </r>
       <r>  -28.2426    1.0000 </r>
       <r>  -28.2293    1.0000 </r>
       <r>  -28.1539    1.0000 </r>
       <r>  -28.1311    1.0000 </r>
       <r>  -27.8853    1.0000 </r>
       <r>  -27.5922    1.0000 </r>
       <r>   -3.8066    1.0000 </r>
       <r>   -3.6647    1.0000 </r>
       <r>   -2.7892    1.0000 </r>
       <r>   -2.1588    1.0000 </r>
       <r>   -1.6627    1.0000 </r>
       <r>   -1.1201    1.0000 </r>
       <r>   -0.3055    1.0000 </r>
       <r>    0.0073    1.0000 </r>
       <r>    0.5328    1.0000 </r>
       <r>    0.9061    1.0000 </r>
       <r>    1.1488    1.0000 </r>
       <r>    1.6780    1.0000 </r>
       <r>    1.9630    1.0000 </r>
       <r>    2.5848    1.0000 </r>
       <r>    3.1969    1.0000 </r>
       <r>    3.7448    1.0000 </r>
       <r>    4.0323    1.0000 </r>
       <r>    4.1774    1.0000 </r>
       <r>    4.4116    1.0000 </r>
       <r>    4.7441    1.0000 </r>
       <r>    4.9317    1.0000 </r>
       <r>    5.2470    1.0000 </r>
       <r>    5.4945    1.0000 </r>
       <r>    5.8766    1.0000 </r>
       <r>    6.2187    1.0000 </r>
       <r>    6.7686    1.0000 </r>
       <r>    6.9976    1.0000 </r>
       <r>    7.3609    0.0000 </r>
       <r>    7.5290    0.0000 </r>
       <r>    7.6551    0.0000 </r>
       <r>    8.3933    0.0000 </r>
       <r>    8.7419    0.0000 </r>
       <r>    8.8081    0.0000 </r>
       <r>    9.4289    0.0000 </r>
       <r>    9.5128    0.0000 </r>
       <r>    9.6374    0.0000 </r>
       <r>    9.8963    0.0000 </r>
       <r>   10.0283    0.0000 </r>
       <r>   10.2344    0.0000 </r>
       <r>   10.8192    0.0000 </r>
       <r>   11.9937    0.0000 </r>
       <r>   12.6223    0.0000 </r>
      </set>
      <set comment="kpoint 7">
       <r>  -56.2997    1.0000 </r>
       <r>  -56.2709    1.0000 </r>
       <r>  -55.9408    1.0000 </r>
       <r>  -55.9345    1.0000 </r>
       <r>  -55.2995    1.0000 </r>
       <r>  -55.2744    1.0000 </r>
       <r>  -34.0560    1.0000 </r>
       <r>  -34.0535    1.0000 </r>
       <r>  -32.9637    1.0000 </r>
       <r>  -32.9622    1.0000 </r>
       <r>  -30.3092    1.0000 </r>
       <r>  -30.1445    1.0000 </r>
       <r>  -29.9186    1.0000 </r>
       <r>  -29.6545    1.0000 </r>
       <r>  -28.8100    1.0000 </r>
       <r>  -28.7816    1.0000 </r>
       <r>  -28.4104    1.0000 </r>
       <r>  -28.2584    1.0000 </r>
       <r>  -28.2474    1.0000 </r>
       <r>  -28.2060    1.0000 </r>
       <r>  -28.1781    1.0000 </r>
       <r>  -28.1266    1.0000 </r>
       <r>  -27.8923    1.0000 </r>
       <r>  -27.7088    1.0000 </r>
       <r>   -3.8605    1.0000 </r>
       <r>   -3.8023    1.0000 </r>
       <r>   -2.4795    1.0000 </r>
       <r>   -2.2701    1.0000 </r>
       <r>   -1.0344    1.0000 </r>
       <r>   -0.8976    1.0000 </r>
       <r>   -0.6344    1.0000 </r>
       <r>   -0.4591    1.0000 </r>
       <r>    0.8075    1.0000 </r>
       <r>    1.0258    1.0000 </r>
       <r>    1.2010    1.0000 </r>
       <r>    1.5736    1.0000 </r>
       <r>    1.7366    1.0000 </r>
       <r>    2.0918    1.0000 </r>
       <r>    3.2498    1.0000 </r>
       <r>    3.5769    1.0000 </r>
       <r>    3.9747    1.0000 </r>
       <r>    4.1074    1.0000 </r>
       <r>    4.6937    1.0000 </r>
       <r>    4.7714    1.0000 </r>
       <r>    4.9096    1.0000 </r>
       <r>    5.1013    1.0000 </r>
       <r>    5.3862    1.0000 </r>
       <r>    5.5544    1.0000 </r>
       <r>    6.5134    1.0000 </r>
       <r>    6.8364    1.0000 </r>
       <r>    6.8967    1.0000 </r>
       <r>    7.2068    1.0000 </r>
       <r>    7.4122    0.0000 </r>
       <r>    7.6188    0.0000 </r>
       <r>    8.6036    0.0000 </r>
       <r>    8.8425    0.0000 </r>
       <r>    9.0167    0.0000 </r>
       <r>    9.2444    0.0000 </r>
       <r>    9.5835    0.0000 </r>
       <r>    9.7920    0.0000 </r>
       <r>   10.1936    0.0000 </r>
       <r>   10.3640    0.0000 </r>
       <r>   10.6916    0.0000 </r>
       <r>   10.9669    0.0000 </r>
       <r>   11.9030    0.0000 </r>
       <r>   12.3015    0.0000 </r>
      </set>
      <set comment="kpoint 8">
       <r>  -56.2997    1.0000 </r>
       <r>  -56.2709    1.0000 </r>
       <r>  -55.9406    1.0000 </r>
       <r>  -55.9347    1.0000 </r>
       <r>  -55.2994    1.0000 </r>
       <r>  -55.2744    1.0000 </r>
       <r>  -34.0559    1.0000 </r>
       <r>  -34.0536    1.0000 </r>
       <r>  -32.9634    1.0000 </r>
       <r>  -32.9624    1.0000 </r>
       <r>  -30.3092    1.0000 </r>
       <r>  -30.1445    1.0000 </r>
       <r>  -29.9187    1.0000 </r>
       <r>  -29.6544    1.0000 </r>
       <r>  -28.8086    1.0000 </r>
       <r>  -28.7830    1.0000 </r>
       <r>  -28.4104    1.0000 </r>
       <r>  -28.2587    1.0000 </r>
       <r>  -28.2473    1.0000 </r>
       <r>  -28.2066    1.0000 </r>
       <r>  -28.1773    1.0000 </r>
       <r>  -28.1265    1.0000 </r>
       <r>  -27.8922    1.0000 </r>
       <r>  -27.7089    1.0000 </r>
       <r>   -3.8586    1.0000 </r>
       <r>   -3.8020    1.0000 </r>
       <r>   -2.5306    1.0000 </r>
       <r>   -2.2247    1.0000 </r>
       <r>   -1.0293    1.0000 </r>
       <r>   -0.9275    1.0000 </r>
       <r>   -0.6133    1.0000 </r>
       <r>   -0.4616    1.0000 </r>
       <r>    0.7651    1.0000 </r>
       <r>    1.0674    1.0000 </r>
       <r>    1.2049    1.0000 </r>
       <r>    1.5609    1.0000 </r>
       <r>    1.7088    1.0000 </r>
       <r>    2.1311    1.0000 </r>
       <r>    3.2305    1.0000 </r>
       <r>    3.6087    1.0000 </r>
       <r>    4.0199    1.0000 </r>
       <r>    4.1375    1.0000 </r>
       <r>    4.6228    1.0000 </r>
       <r>    4.6953    1.0000 </r>
       <r>    4.8603    1.0000 </r>
       <r>    5.1235    1.0000 </r>
       <r>    5.3240    1.0000 </r>
       <r>    5.8109    1.0000 </r>
       <r>    6.5623    1.0000 </r>
       <r>    6.6885    1.0000 </r>
       <r>    6.9906    1.0000 </r>
       <r>    7.1444    1.0000 </r>
       <r>    7.5110    0.0000 </r>
       <r>    7.6641    0.0000 </r>
       <r>    8.6787    0.0000 </r>
       <r>    8.8051    0.0000 </r>
       <r>    8.9602    0.0000 </r>
       <r>    9.2176    0.0000 </r>
       <r>    9.6780    0.0000 </r>
       <r>    9.7887    0.0000 </r>
       <r>   10.0272    0.0000 </r>
       <r>   10.4419    0.0000 </r>
       <r>   10.5936    0.0000 </r>
       <r>   11.1493    0.0000 </r>
       <r>   11.6596    0.0000 </r>
       <r>   12.2405    0.0000 </r>
      </set>
      <set comment="kpoint 9">
       <r>  -56.3318    1.0000 </r>
       <r>  -56.2549    1.0000 </r>
       <r>  -55.9277    1.0000 </r>
       <r>  -55.9162    1.0000 </r>
       <r>  -55.3305    1.0000 </r>
       <r>  -55.2588    1.0000 </r>
       <r>  -34.0495    1.0000 </r>
       <r>  -34.0432    1.0000 </r>
       <r>  -32.9748    1.0000 </r>
       <r>  -32.9725    1.0000 </r>
       <r>  -30.4097    1.0000 </r>
       <r>  -30.1379    1.0000 </r>
       <r>  -29.9240    1.0000 </r>
       <r>  -29.3577    1.0000 </r>
       <r>  -28.8310    1.0000 </r>
       <r>  -28.7560    1.0000 </r>
       <r>  -28.7206    1.0000 </r>
       <r>  -28.2690    1.0000 </r>
       <r>  -28.2426    1.0000 </r>
       <r>  -28.2296    1.0000 </r>
       <r>  -28.1533    1.0000 </r>
       <r>  -28.1310    1.0000 </r>
       <r>  -27.8853    1.0000 </r>
       <r>  -27.5923    1.0000 </r>
       <r>   -3.8035    1.0000 </r>
       <r>   -3.6627    1.0000 </r>
       <r>   -2.8326    1.0000 </r>
       <r>   -2.1285    1.0000 </r>
       <r>   -1.6585    1.0000 </r>
       <r>   -1.1501    1.0000 </r>
       <r>   -0.2966    1.0000 </r>
       <r>    0.0089    1.0000 </r>
       <r>    0.5028    1.0000 </r>
       <r>    0.9089    1.0000 </r>
       <r>    1.1732    1.0000 </r>
       <r>    1.6563    1.0000 </r>
       <r>    1.9514    1.0000 </r>
       <r>    2.5947    1.0000 </r>
       <r>    3.2180    1.0000 </r>
       <r>    3.8623    1.0000 </r>
       <r>    4.0458    1.0000 </r>
       <r>    4.2196    1.0000 </r>
       <r>    4.2703    1.0000 </r>
       <r>    4.7471    1.0000 </r>
       <r>    4.8478    1.0000 </r>
       <r>    5.1894    1.0000 </r>
       <r>    5.5671    1.0000 </r>
       <r>    6.1140    1.0000 </r>
       <r>    6.2561    1.0000 </r>
       <r>    6.6971    1.0000 </r>
       <r>    7.0167    1.0000 </r>
       <r>    7.2970    0.0226 </r>
       <r>    7.6558    0.0000 </r>
       <r>    7.8368    0.0000 </r>
       <r>    8.5303    0.0000 </r>
       <r>    8.6649    0.0000 </r>
       <r>    8.8050    0.0000 </r>
       <r>    9.3982    0.0000 </r>
       <r>    9.5275    0.0000 </r>
       <r>    9.5830    0.0000 </r>
       <r>    9.7848    0.0000 </r>
       <r>   10.0449    0.0000 </r>
       <r>   10.1912    0.0000 </r>
       <r>   10.9361    0.0000 </r>
       <r>   11.5785    0.0000 </r>
       <r>   12.5754    0.0000 </r>
      </set>
      <set comment="kpoint 10">
       <r>  -56.3559    1.0000 </r>
       <r>  -56.2506    1.0000 </r>
       <r>  -55.9058    1.0000 </r>
       <r>  -55.8982    1.0000 </r>
       <r>  -55.3583    1.0000 </r>
       <r>  -55.2514    1.0000 </r>
       <r>  -34.0400    1.0000 </r>
       <r>  -34.0312    1.0000 </r>
       <r>  -32.9880    1.0000 </r>
       <r>  -32.9864    1.0000 </r>
       <r>  -30.4418    1.0000 </r>
       <r>  -30.3023    1.0000 </r>
       <r>  -29.6594    1.0000 </r>
       <r>  -29.0624    1.0000 </r>
       <r>  -29.0212    1.0000 </r>
       <r>  -28.8458    1.0000 </r>
       <r>  -28.7352    1.0000 </r>
       <r>  -28.4109    1.0000 </r>
       <r>  -28.2754    1.0000 </r>
       <r>  -28.2604    1.0000 </r>
       <r>  -28.2271    1.0000 </r>
       <r>  -28.1375    1.0000 </r>
       <r>  -27.7018    1.0000 </r>
       <r>  -27.5508    1.0000 </r>
       <r>   -3.6555    1.0000 </r>
       <r>   -3.5087    1.0000 </r>
       <r>   -3.0541    1.0000 </r>
       <r>   -2.2102    1.0000 </r>
       <r>   -2.1629    1.0000 </r>
       <r>   -1.2847    1.0000 </r>
       <r>   -0.0170    1.0000 </r>
       <r>    0.3511    1.0000 </r>
       <r>    0.3525    1.0000 </r>
       <r>    0.7361    1.0000 </r>
       <r>    1.0860    1.0000 </r>
       <r>    1.8196    1.0000 </r>
       <r>    2.1807    1.0000 </r>
       <r>    2.5010    1.0000 </r>
       <r>    3.8874    1.0000 </r>
       <r>    4.0033    1.0000 </r>
       <r>    4.0693    1.0000 </r>
       <r>    4.1011    1.0000 </r>
       <r>    4.2521    1.0000 </r>
       <r>    4.6318    1.0000 </r>
       <r>    5.1368    1.0000 </r>
       <r>    5.3744    1.0000 </r>
       <r>    5.7375    1.0000 </r>
       <r>    6.0912    1.0000 </r>
       <r>    6.2833    1.0000 </r>
       <r>    6.8683    1.0000 </r>
       <r>    6.9544    1.0000 </r>
       <r>    7.0960    1.0000 </r>
       <r>    7.6085    0.0000 </r>
       <r>    7.9827    0.0000 </r>
       <r>    8.1978    0.0000 </r>
       <r>    8.5561    0.0000 </r>
       <r>    8.7887    0.0000 </r>
       <r>    9.1156    0.0000 </r>
       <r>    9.4648    0.0000 </r>
       <r>    9.5187    0.0000 </r>
       <r>    9.7456    0.0000 </r>
       <r>    9.7951    0.0000 </r>
       <r>    9.8116    0.0000 </r>
       <r>   10.4119    0.0000 </r>
       <r>   11.7641    0.0000 </r>
       <r>   12.5147    0.0000 </r>
      </set>
      <set comment="kpoint 11">
       <r>  -56.3101    1.0000 </r>
       <r>  -56.2532    1.0000 </r>
       <r>  -55.9494    1.0000 </r>
       <r>  -55.9361    1.0000 </r>
       <r>  -55.3096    1.0000 </r>
       <r>  -55.2613    1.0000 </r>
       <r>  -34.0590    1.0000 </r>
       <r>  -34.0543    1.0000 </r>
       <r>  -32.9613    1.0000 </r>
       <r>  -32.9579    1.0000 </r>
       <r>  -30.4479    1.0000 </r>
       <r>  -30.1460    1.0000 </r>
       <r>  -29.9176    1.0000 </r>
       <r>  -29.0596    1.0000 </r>
       <r>  -29.0209    1.0000 </r>
       <r>  -28.8221    1.0000 </r>
       <r>  -28.7675    1.0000 </r>
       <r>  -28.2651    1.0000 </r>
       <r>  -28.2385    1.0000 </r>
       <r>  -28.2229    1.0000 </r>
       <r>  -28.1654    1.0000 </r>
       <r>  -28.1244    1.0000 </r>
       <r>  -27.8946    1.0000 </r>
       <r>  -27.5564    1.0000 </r>
       <r>   -3.8976    1.0000 </r>
       <r>   -3.7891    1.0000 </r>
       <r>   -2.5687    1.0000 </r>
       <r>   -2.1230    1.0000 </r>
       <r>   -1.2182    1.0000 </r>
       <r>   -0.9877    1.0000 </r>
       <r>   -0.4079    1.0000 </r>
       <r>   -0.0371    1.0000 </r>
       <r>    0.5514    1.0000 </r>
       <r>    1.0755    1.0000 </r>
       <r>    1.0922    1.0000 </r>
       <r>    1.3014    1.0000 </r>
       <r>    2.0659    1.0000 </r>
       <r>    2.1672    1.0000 </r>
       <r>    2.7918    1.0000 </r>
       <r>    3.6299    1.0000 </r>
       <r>    3.9923    1.0000 </r>
       <r>    4.1641    1.0000 </r>
       <r>    4.5670    1.0000 </r>
       <r>    4.6926    1.0000 </r>
       <r>    4.9632    1.0000 </r>
       <r>    5.2686    1.0000 </r>
       <r>    5.6445    1.0000 </r>
       <r>    5.7539    1.0000 </r>
       <r>    5.8359    1.0000 </r>
       <r>    6.8095    1.0000 </r>
       <r>    6.8882    1.0000 </r>
       <r>    7.0695    1.0000 </r>
       <r>    7.4122    0.0000 </r>
       <r>    7.5850    0.0000 </r>
       <r>    8.5605    0.0000 </r>
       <r>    9.0504    0.0000 </r>
       <r>    9.4143    0.0000 </r>
       <r>    9.4671    0.0000 </r>
       <r>    9.6817    0.0000 </r>
       <r>    9.7923    0.0000 </r>
       <r>   10.1354    0.0000 </r>
       <r>   10.3856    0.0000 </r>
       <r>   10.5504    0.0000 </r>
       <r>   11.0735    0.0000 </r>
       <r>   12.0873    0.0000 </r>
       <r>   12.3928    0.0000 </r>
      </set>
      <set comment="kpoint 12">
       <r>  -56.2824    1.0000 </r>
       <r>  -56.2609    1.0000 </r>
       <r>  -55.9629    1.0000 </r>
       <r>  -55.9564    1.0000 </r>
       <r>  -55.2869    1.0000 </r>
       <r>  -55.2699    1.0000 </r>
       <r>  -34.0656    1.0000 </r>
       <r>  -34.0638    1.0000 </r>
       <r>  -32.9494    1.0000 </r>
       <r>  -32.9476    1.0000 </r>
       <r>  -30.4154    1.0000 </r>
       <r>  -30.3130    1.0000 </r>
       <r>  -29.6533    1.0000 </r>
       <r>  -29.3566    1.0000 </r>
       <r>  -28.8064    1.0000 </r>
       <r>  -28.7852    1.0000 </r>
       <r>  -28.7179    1.0000 </r>
       <r>  -28.4074    1.0000 </r>
       <r>  -28.2574    1.0000 </r>
       <r>  -28.2476    1.0000 </r>
       <r>  -28.2024    1.0000 </r>
       <r>  -28.1826    1.0000 </r>
       <r>  -27.7131    1.0000 </r>
       <r>  -27.5978    1.0000 </r>
       <r>   -3.9399    1.0000 </r>
       <r>   -3.8961    1.0000 </r>
       <r>   -2.2991    1.0000 </r>
       <r>   -2.1864    1.0000 </r>
       <r>   -0.7993    1.0000 </r>
       <r>   -0.6871    1.0000 </r>
       <r>   -0.6137    1.0000 </r>
       <r>   -0.2380    1.0000 </r>
       <r>    0.7268    1.0000 </r>
       <r>    0.8885    1.0000 </r>
       <r>    1.1405    1.0000 </r>
       <r>    1.4274    1.0000 </r>
       <r>    1.5070    1.0000 </r>
       <r>    1.8425    1.0000 </r>
       <r>    2.9521    1.0000 </r>
       <r>    3.2886    1.0000 </r>
       <r>    4.1527    1.0000 </r>
       <r>    4.2711    1.0000 </r>
       <r>    4.5793    1.0000 </r>
       <r>    4.7942    1.0000 </r>
       <r>    4.9610    1.0000 </r>
       <r>    4.9969    1.0000 </r>
       <r>    5.5486    1.0000 </r>
       <r>    5.7627    1.0000 </r>
       <r>    6.1481    1.0000 </r>
       <r>    6.5766    1.0000 </r>
       <r>    6.6503    1.0000 </r>
       <r>    6.9084    1.0000 </r>
       <r>    7.1591    1.0000 </r>
       <r>    7.5558    0.0000 </r>
       <r>    9.0151    0.0000 </r>
       <r>    9.2242    0.0000 </r>
       <r>    9.3593    0.0000 </r>
       <r>    9.6459    0.0000 </r>
       <r>   10.1538    0.0000 </r>
       <r>   10.2942    0.0000 </r>
       <r>   10.4618    0.0000 </r>
       <r>   10.5126    0.0000 </r>
       <r>   10.8339    0.0000 </r>
       <r>   11.0188    0.0000 </r>
       <r>   11.6088    0.0000 </r>
       <r>   12.3911    0.0000 </r>
      </set>
      <set comment="kpoint 13">
       <r>  -56.2825    1.0000 </r>
       <r>  -56.2609    1.0000 </r>
       <r>  -55.9627    1.0000 </r>
       <r>  -55.9566    1.0000 </r>
       <r>  -55.2868    1.0000 </r>
       <r>  -55.2700    1.0000 </r>
       <r>  -34.0656    1.0000 </r>
       <r>  -34.0639    1.0000 </r>
       <r>  -32.9490    1.0000 </r>
       <r>  -32.9480    1.0000 </r>
       <r>  -30.4155    1.0000 </r>
       <r>  -30.3129    1.0000 </r>
       <r>  -29.6534    1.0000 </r>
       <r>  -29.3565    1.0000 </r>
       <r>  -28.8038    1.0000 </r>
       <r>  -28.7877    1.0000 </r>
       <r>  -28.7179    1.0000 </r>
       <r>  -28.4075    1.0000 </r>
       <r>  -28.2579    1.0000 </r>
       <r>  -28.2476    1.0000 </r>
       <r>  -28.2031    1.0000 </r>
       <r>  -28.1816    1.0000 </r>
       <r>  -27.7131    1.0000 </r>
       <r>  -27.5979    1.0000 </r>
       <r>   -3.9347    1.0000 </r>
       <r>   -3.8988    1.0000 </r>
       <r>   -2.3910    1.0000 </r>
       <r>   -2.1021    1.0000 </r>
       <r>   -0.8479    1.0000 </r>
       <r>   -0.6730    1.0000 </r>
       <r>   -0.5773    1.0000 </r>
       <r>   -0.2421    1.0000 </r>
       <r>    0.6563    1.0000 </r>
       <r>    0.9644    1.0000 </r>
       <r>    1.0749    1.0000 </r>
       <r>    1.4443    1.0000 </r>
       <r>    1.5639    1.0000 </r>
       <r>    1.8255    1.0000 </r>
       <r>    2.9214    1.0000 </r>
       <r>    3.3458    1.0000 </r>
       <r>    4.2295    1.0000 </r>
       <r>    4.2810    1.0000 </r>
       <r>    4.4812    1.0000 </r>
       <r>    4.5873    1.0000 </r>
       <r>    5.0121    1.0000 </r>
       <r>    5.2159    1.0000 </r>
       <r>    5.3635    1.0000 </r>
       <r>    6.0214    1.0000 </r>
       <r>    6.2479    1.0000 </r>
       <r>    6.3265    1.0000 </r>
       <r>    6.6396    1.0000 </r>
       <r>    7.0830    1.0000 </r>
       <r>    7.1853    1.0000 </r>
       <r>    7.6217    0.0000 </r>
       <r>    9.0851    0.0000 </r>
       <r>    9.1671    0.0000 </r>
       <r>    9.3201    0.0000 </r>
       <r>    9.6404    0.0000 </r>
       <r>    9.9233    0.0000 </r>
       <r>   10.1984    0.0000 </r>
       <r>   10.5439    0.0000 </r>
       <r>   10.6035    0.0000 </r>
       <r>   10.7795    0.0000 </r>
       <r>   11.1542    0.0000 </r>
       <r>   11.3914    0.0000 </r>
       <r>   12.5069    0.0000 </r>
      </set>
      <set comment="kpoint 14">
       <r>  -56.3101    1.0000 </r>
       <r>  -56.2532    1.0000 </r>
       <r>  -55.9492    1.0000 </r>
       <r>  -55.9363    1.0000 </r>
       <r>  -55.3096    1.0000 </r>
       <r>  -55.2613    1.0000 </r>
       <r>  -34.0590    1.0000 </r>
       <r>  -34.0544    1.0000 </r>
       <r>  -32.9609    1.0000 </r>
       <r>  -32.9582    1.0000 </r>
       <r>  -30.4480    1.0000 </r>
       <r>  -30.1459    1.0000 </r>
       <r>  -29.9178    1.0000 </r>
       <r>  -29.0596    1.0000 </r>
       <r>  -29.0207    1.0000 </r>
       <r>  -28.8200    1.0000 </r>
       <r>  -28.7695    1.0000 </r>
       <r>  -28.2657    1.0000 </r>
       <r>  -28.2387    1.0000 </r>
       <r>  -28.2233    1.0000 </r>
       <r>  -28.1644    1.0000 </r>
       <r>  -28.1244    1.0000 </r>
       <r>  -27.8945    1.0000 </r>
       <r>  -27.5565    1.0000 </r>
       <r>   -3.8919    1.0000 </r>
       <r>   -3.7888    1.0000 </r>
       <r>   -2.6459    1.0000 </r>
       <r>   -2.0625    1.0000 </r>
       <r>   -1.2078    1.0000 </r>
       <r>   -1.0358    1.0000 </r>
       <r>   -0.3859    1.0000 </r>
       <r>   -0.0337    1.0000 </r>
       <r>    0.4988    1.0000 </r>
       <r>    1.0851    1.0000 </r>
       <r>    1.1386    1.0000 </r>
       <r>    1.2535    1.0000 </r>
       <r>    2.0403    1.0000 </r>
       <r>    2.2294    1.0000 </r>
       <r>    2.7823    1.0000 </r>
       <r>    3.7098    1.0000 </r>
       <r>    4.1296    1.0000 </r>
       <r>    4.2583    1.0000 </r>
       <r>    4.2612    1.0000 </r>
       <r>    4.5512    1.0000 </r>
       <r>    4.9875    1.0000 </r>
       <r>    5.4980    1.0000 </r>
       <r>    5.5775    1.0000 </r>
       <r>    5.6061    1.0000 </r>
       <r>    6.2504    1.0000 </r>
       <r>    6.5622    1.0000 </r>
       <r>    6.9526    1.0000 </r>
       <r>    7.3751    0.0000 </r>
       <r>    7.4223    0.0000 </r>
       <r>    7.7156    0.0000 </r>
       <r>    8.8124    0.0000 </r>
       <r>    8.9407    0.0000 </r>
       <r>    9.1611    0.0000 </r>
       <r>    9.2080    0.0000 </r>
       <r>    9.6754    0.0000 </r>
       <r>    9.9220    0.0000 </r>
       <r>   10.1108    0.0000 </r>
       <r>   10.3305    0.0000 </r>
       <r>   10.6652    0.0000 </r>
       <r>   11.1745    0.0000 </r>
       <r>   11.3948    0.0000 </r>
       <r>   13.0043    0.0000 </r>
      </set>
      <set comment="kpoint 15">
       <r>  -56.2636    1.0000 </r>
       <r>  -56.2553    1.0000 </r>
       <r>  -55.9799    1.0000 </r>
       <r>  -55.9767    1.0000 </r>
       <r>  -55.2748    1.0000 </r>
       <r>  -55.2688    1.0000 </r>
       <r>  -34.0730    1.0000 </r>
       <r>  -34.0722    1.0000 </r>
       <r>  -32.9375    1.0000 </r>
       <r>  -32.9366    1.0000 </r>
       <r>  -30.4528    1.0000 </r>
       <r>  -30.4181    1.0000 </r>
       <r>  -29.3559    1.0000 </r>
       <r>  -29.0572    1.0000 </r>
       <r>  -29.0205    1.0000 </r>
       <r>  -28.8006    1.0000 </r>
       <r>  -28.7908    1.0000 </r>
       <r>  -28.7168    1.0000 </r>
       <r>  -28.2547    1.0000 </r>
       <r>  -28.2503    1.0000 </r>
       <r>  -28.1960    1.0000 </r>
       <r>  -28.1892    1.0000 </r>
       <r>  -27.6004    1.0000 </r>
       <r>  -27.5610    1.0000 </r>
       <r>   -3.9919    1.0000 </r>
       <r>   -3.9714    1.0000 </r>
       <r>   -2.1400    1.0000 </r>
       <r>   -2.1088    1.0000 </r>
       <r>   -0.6935    1.0000 </r>
       <r>   -0.6275    1.0000 </r>
       <r>   -0.2607    1.0000 </r>
       <r>   -0.0070    1.0000 </r>
       <r>    0.6744    1.0000 </r>
       <r>    0.7189    1.0000 </r>
       <r>    0.7390    1.0000 </r>
       <r>    0.8529    1.0000 </r>
       <r>    1.7827    1.0000 </r>
       <r>    2.0409    1.0000 </r>
       <r>    2.7162    1.0000 </r>
       <r>    2.9223    1.0000 </r>
       <r>    4.1072    1.0000 </r>
       <r>    4.3523    1.0000 </r>
       <r>    4.8384    1.0000 </r>
       <r>    4.8517    1.0000 </r>
       <r>    5.0235    1.0000 </r>
       <r>    5.1789    1.0000 </r>
       <r>    5.3795    1.0000 </r>
       <r>    5.6375    1.0000 </r>
       <r>    6.1829    1.0000 </r>
       <r>    6.2349    1.0000 </r>
       <r>    6.2565    1.0000 </r>
       <r>    6.7649    1.0000 </r>
       <r>    6.9748    1.0000 </r>
       <r>    7.6052    0.0000 </r>
       <r>    9.3207    0.0000 </r>
       <r>    9.5276    0.0000 </r>
       <r>    9.7736    0.0000 </r>
       <r>   10.0597    0.0000 </r>
       <r>   10.4061    0.0000 </r>
       <r>   10.6360    0.0000 </r>
       <r>   10.6396    0.0000 </r>
       <r>   10.7897    0.0000 </r>
       <r>   10.9629    0.0000 </r>
       <r>   11.0613    0.0000 </r>
       <r>   11.3595    0.0000 </r>
       <r>   12.4852    0.0000 </r>
      </set>
      <set comment="kpoint 16">
       <r>  -56.2637    1.0000 </r>
       <r>  -56.2553    1.0000 </r>
       <r>  -55.9797    1.0000 </r>
       <r>  -55.9769    1.0000 </r>
       <r>  -55.2747    1.0000 </r>
       <r>  -55.2689    1.0000 </r>
       <r>  -34.0729    1.0000 </r>
       <r>  -34.0723    1.0000 </r>
       <r>  -32.9372    1.0000 </r>
       <r>  -32.9369    1.0000 </r>
       <r>  -30.4530    1.0000 </r>
       <r>  -30.4180    1.0000 </r>
       <r>  -29.3560    1.0000 </r>
       <r>  -29.0572    1.0000 </r>
       <r>  -29.0203    1.0000 </r>
       <r>  -28.7975    1.0000 </r>
       <r>  -28.7939    1.0000 </r>
       <r>  -28.7168    1.0000 </r>
       <r>  -28.2550    1.0000 </r>
       <r>  -28.2503    1.0000 </r>
       <r>  -28.1967    1.0000 </r>
       <r>  -28.1884    1.0000 </r>
       <r>  -27.6003    1.0000 </r>
       <r>  -27.5611    1.0000 </r>
       <r>   -3.9852    1.0000 </r>
       <r>   -3.9770    1.0000 </r>
       <r>   -2.2216    1.0000 </r>
       <r>   -2.0308    1.0000 </r>
       <r>   -0.7384    1.0000 </r>
       <r>   -0.5881    1.0000 </r>
       <r>   -0.2403    1.0000 </r>
       <r>   -0.0070    1.0000 </r>
       <r>    0.5834    1.0000 </r>
       <r>    0.6335    1.0000 </r>
       <r>    0.8234    1.0000 </r>
       <r>    0.9337    1.0000 </r>
       <r>    1.8011    1.0000 </r>
       <r>    2.0057    1.0000 </r>
       <r>    2.7042    1.0000 </r>
       <r>    2.9589    1.0000 </r>
       <r>    4.1515    1.0000 </r>
[...]
       <r>    4.3725    1.0000 </r>
       <r>    4.4980    1.0000 </r>
       <r>    5.1402    1.0000 </r>
       <r>    5.6000    1.0000 </r>
       <r>    5.8191    1.0000 </r>
       <r>    6.0009    1.0000 </r>
       <r>    6.4815    1.0000 </r>
       <r>    6.6401    1.0000 </r>
       <r>    6.7429    1.0000 </r>
       <r>    6.7859    1.0000 </r>
       <r>    7.3326    0.0000 </r>
       <r>    7.7204    0.0000 </r>
       <r>    7.8023    0.0000 </r>
       <r>    7.9724    0.0000 </r>
       <r>    8.2944    0.0000 </r>
       <r>    8.7721    0.0000 </r>
       <r>    9.6016    0.0000 </r>
       <r>    9.6998    0.0000 </r>
       <r>    9.7603    0.0000 </r>
       <r>    9.9504    0.0000 </r>
       <r>   10.1502    0.0000 </r>
       <r>   10.9741    0.0000 </r>
       <r>   12.3620    0.0000 </r>
       <r>   13.0055    0.0000 </r>
      </set>
      <set comment="kpoint 116">
       <r>  -56.3691    1.0000 </r>
       <r>  -56.2497    1.0000 </r>
       <r>  -55.8898    1.0000 </r>
       <r>  -55.8876    1.0000 </r>
       <r>  -55.3762    1.0000 </r>
       <r>  -55.2479    1.0000 </r>
       <r>  -34.0334    1.0000 </r>
       <r>  -34.0233    1.0000 </r>
       <r>  -32.9963    1.0000 </r>
       <r>  -32.9961    1.0000 </r>
       <r>  -30.4395    1.0000 </r>
       <r>  -30.4042    1.0000 </r>
       <r>  -29.3662    1.0000 </r>
       <r>  -29.0622    1.0000 </r>
       <r>  -29.0216    1.0000 </r>
       <r>  -28.8576    1.0000 </r>
       <r>  -28.7197    1.0000 </r>
       <r>  -28.7158    1.0000 </r>
       <r>  -28.2769    1.0000 </r>
       <r>  -28.2726    1.0000 </r>
       <r>  -28.2232    1.0000 </r>
       <r>  -28.1312    1.0000 </r>
       <r>  -27.5872    1.0000 </r>
       <r>  -27.5489    1.0000 </r>
       <r>   -3.4932    1.0000 </r>
       <r>   -3.4168    1.0000 </r>
       <r>   -3.0378    1.0000 </r>
       <r>   -2.6159    1.0000 </r>
       <r>   -2.2740    1.0000 </r>
       <r>   -1.2455    1.0000 </r>
       <r>    0.2194    1.0000 </r>
       <r>    0.3888    1.0000 </r>
       <r>    0.5645    1.0000 </r>
       <r>    0.6491    1.0000 </r>
       <r>    0.8549    1.0000 </r>
       <r>    1.9460    1.0000 </r>
       <r>    2.3558    1.0000 </r>
       <r>    2.4490    1.0000 </r>
       <r>    3.8008    1.0000 </r>
       <r>    3.9550    1.0000 </r>
       <r>    4.1247    1.0000 </r>
       <r>    4.2601    1.0000 </r>
       <r>    4.3625    1.0000 </r>
       <r>    4.4831    1.0000 </r>
       <r>    5.1246    1.0000 </r>
       <r>    5.5696    1.0000 </r>
       <r>    5.8731    1.0000 </r>
       <r>    6.0006    1.0000 </r>
       <r>    6.4484    1.0000 </r>
       <r>    6.6300    1.0000 </r>
       <r>    6.7554    1.0000 </r>
       <r>    6.7580    1.0000 </r>
       <r>    7.3282    0.0000 </r>
       <r>    7.7086    0.0000 </r>
       <r>    7.7857    0.0000 </r>
       <r>    7.9451    0.0000 </r>
       <r>    8.2805    0.0000 </r>
       <r>    8.8522    0.0000 </r>
       <r>    9.6008    0.0000 </r>
       <r>    9.6992    0.0000 </r>
       <r>    9.7595    0.0000 </r>
       <r>    9.9685    0.0000 </r>
       <r>   10.2278    0.0000 </r>
       <r>   11.0208    0.0000 </r>
       <r>   11.8707    0.0000 </r>
       <r>   13.0519    0.0000 </r>
      </set>
     </set>
    </set>
   </array>
  </eigenvalues>
  <separator name="orbital magnetization" >
   <v name="MAGDIPOLOUT">      0.00000000      0.00000000      0.00000000</v>
  </separator>
  <dos>
   <i name="efermi">      7.26864810 </i>
   <total>
    <array>
     <dimension dim="1">gridpoints</dimension>
     <dimension dim="2">spin</dimension>
     <field>energy</field>
     <field>total</field>
     <field>integrated</field>
     <set>
      <set comment="spin 1">
       <r>   -59.8467     0.0000     0.0000 </r>
       <r>   -59.5920     0.0000     0.0000 </r>
       <r>   -59.3373     0.0000     0.0000 </r>
       <r>   -59.0826     0.0000     0.0000 </r>
       <r>   -58.8280     0.0000     0.0000 </r>
       <r>   -58.5733     0.0000     0.0000 </r>
       <r>   -58.3186     0.0000     0.0000 </r>
       <r>   -58.0639     0.0000     0.0000 </r>
       <r>   -57.8092     0.0000     0.0000 </r>
       <r>   -57.5545     0.0000     0.0000 </r>
       <r>   -57.2998     0.0000     0.0000 </r>
       <r>   -57.0451     0.0000     0.0000 </r>
       <r>   -56.7904     0.0000     0.0000 </r>
       <r>   -56.5358     0.0000     0.0000 </r>
       <r>   -56.2811     7.2839     1.8551 </r>
       <r>   -56.0264     0.0005     4.0001 </r>
       <r>   -55.7717     7.9328     8.0000 </r>
       <r>   -55.5170     0.0000     8.0000 </r>
       <r>   -55.2623    11.9308    11.0387 </r>
       <r>   -55.0076     0.0000    12.0000 </r>
       <r>   -54.7529     0.0000    12.0000 </r>
       <r>   -54.4982     0.0000    12.0000 </r>
       <r>   -54.2436     0.0000    12.0000 </r>
       <r>   -53.9889     0.0000    12.0000 </r>
       <r>   -53.7342     0.0000    12.0000 </r>
       <r>   -53.4795     0.0000    12.0000 </r>
       <r>   -53.2248     0.0000    12.0000 </r>
       <r>   -52.9701     0.0000    12.0000 </r>
       <r>   -52.7154     0.0000    12.0000 </r>
       <r>   -52.4607     0.0000    12.0000 </r>
       <r>   -52.2060     0.0000    12.0000 </r>
       <r>   -51.9513     0.0000    12.0000 </r>
       <r>   -51.6967     0.0000    12.0000 </r>
       <r>   -51.4420     0.0000    12.0000 </r>
       <r>   -51.1873     0.0000    12.0000 </r>
       <r>   -50.9326     0.0000    12.0000 </r>
       <r>   -50.6779     0.0000    12.0000 </r>
       <r>   -50.4232     0.0000    12.0000 </r>
       <r>   -50.1685     0.0000    12.0000 </r>
       <r>   -49.9138     0.0000    12.0000 </r>
       <r>   -49.6591     0.0000    12.0000 </r>
       <r>   -49.4045     0.0000    12.0000 </r>
       <r>   -49.1498     0.0000    12.0000 </r>
       <r>   -48.8951     0.0000    12.0000 </r>
       <r>   -48.6404     0.0000    12.0000 </r>
       <r>   -48.3857     0.0000    12.0000 </r>
       <r>   -48.1310     0.0000    12.0000 </r>
       <r>   -47.8763     0.0000    12.0000 </r>
       <r>   -47.6216     0.0000    12.0000 </r>
       <r>   -47.3669     0.0000    12.0000 </r>
       <r>   -47.1123     0.0000    12.0000 </r>
       <r>   -46.8576     0.0000    12.0000 </r>
       <r>   -46.6029     0.0000    12.0000 </r>
       <r>   -46.3482     0.0000    12.0000 </r>
       <r>   -46.0935     0.0000    12.0000 </r>
       <r>   -45.8388     0.0000    12.0000 </r>
       <r>   -45.5841     0.0000    12.0000 </r>
       <r>   -45.3294     0.0000    12.0000 </r>
       <r>   -45.0747     0.0000    12.0000 </r>
       <r>   -44.8201     0.0000    12.0000 </r>
       <r>   -44.5654     0.0000    12.0000 </r>
       <r>   -44.3107     0.0000    12.0000 </r>
       <r>   -44.0560     0.0000    12.0000 </r>
       <r>   -43.8013     0.0000    12.0000 </r>
       <r>   -43.5466     0.0000    12.0000 </r>
       <r>   -43.2919     0.0000    12.0000 </r>
       <r>   -43.0372     0.0000    12.0000 </r>
       <r>   -42.7825     0.0000    12.0000 </r>
       <r>   -42.5278     0.0000    12.0000 </r>
       <r>   -42.2732     0.0000    12.0000 </r>
       <r>   -42.0185     0.0000    12.0000 </r>
       <r>   -41.7638     0.0000    12.0000 </r>
       <r>   -41.5091     0.0000    12.0000 </r>
       <r>   -41.2544     0.0000    12.0000 </r>
       <r>   -40.9997     0.0000    12.0000 </r>
       <r>   -40.7450     0.0000    12.0000 </r>
       <r>   -40.4903     0.0000    12.0000 </r>
       <r>   -40.2356     0.0000    12.0000 </r>
       <r>   -39.9810     0.0000    12.0000 </r>
       <r>   -39.7263     0.0000    12.0000 </r>
       <r>   -39.4716     0.0000    12.0000 </r>
       <r>   -39.2169     0.0000    12.0000 </r>
       <r>   -38.9622     0.0000    12.0000 </r>
       <r>   -38.7075     0.0000    12.0000 </r>
       <r>   -38.4528     0.0000    12.0000 </r>
       <r>   -38.1981     0.0000    12.0000 </r>
       <r>   -37.9434     0.0000    12.0000 </r>
       <r>   -37.6888     0.0000    12.0000 </r>
       <r>   -37.4341     0.0000    12.0000 </r>
       <r>   -37.1794     0.0000    12.0000 </r>
       <r>   -36.9247     0.0000    12.0000 </r>
       <r>   -36.6700     0.0000    12.0000 </r>
       <r>   -36.4153     0.0000    12.0000 </r>
       <r>   -36.1606     0.0000    12.0000 </r>
       <r>   -35.9059     0.0000    12.0000 </r>
       <r>   -35.6512     0.0000    12.0000 </r>
       <r>   -35.3966     0.0000    12.0000 </r>
       <r>   -35.1419     0.0000    12.0000 </r>
       <r>   -34.8872     0.0000    12.0000 </r>
       <r>   -34.6325     0.0000    12.0000 </r>
       <r>   -34.3778     0.0000    12.0000 </r>
       <r>   -34.1231     0.0003    12.0001 </r>
       <r>   -33.8684     0.7011    16.0000 </r>
       <r>   -33.6137     0.0000    16.0000 </r>
       <r>   -33.3590     0.0000    16.0000 </r>
       <r>   -33.1043     0.0000    16.0000 </r>
       <r>   -32.8497    15.7054    20.0000 </r>
       <r>   -32.5950     0.0000    20.0000 </r>
       <r>   -32.3403     0.0000    20.0000 </r>
       <r>   -32.0856     0.0000    20.0000 </r>
       <r>   -31.8309     0.0000    20.0000 </r>
       <r>   -31.5762     0.0000    20.0000 </r>
       <r>   -31.3215     0.0000    20.0000 </r>
       <r>   -31.0668     0.0000    20.0000 </r>
       <r>   -30.8121     0.0000    20.0000 </r>
       <r>   -30.5575     0.0000    20.0000 </r>
       <r>   -30.3028     9.3625    22.3845 </r>
       <r>   -30.0481     4.0567    23.9618 </r>
       <r>   -29.7934     3.6418    25.1418 </r>
       <r>   -29.5387     3.3791    26.2178 </r>
       <r>   -29.2840     3.4918    27.2669 </r>
       <r>   -29.0293     2.3070    28.0876 </r>
       <r>   -28.7746    12.1240    31.5878 </r>
       <r>   -28.5199     1.1285    33.7874 </r>
       <r>   -28.2653     8.6237    36.1453 </r>
       <r>   -28.0106     7.9188    43.9709 </r>
       <r>   -27.7559     4.0806    45.2536 </r>
       <r>   -27.5012     7.0111    47.9999 </r>
       <r>   -27.2465     0.0000    48.0000 </r>
       <r>   -26.9918     0.0000    48.0000 </r>
       <r>   -26.7371     0.0000    48.0000 </r>
       <r>   -26.4824     0.0000    48.0000 </r>
       <r>   -26.2277     0.0000    48.0000 </r>
       <r>   -25.9731     0.0000    48.0000 </r>
       <r>   -25.7184     0.0000    48.0000 </r>
       <r>   -25.4637     0.0000    48.0000 </r>
       <r>   -25.2090     0.0000    48.0000 </r>
       <r>   -24.9543     0.0000    48.0000 </r>
       <r>   -24.6996     0.0000    48.0000 </r>
       <r>   -24.4449     0.0000    48.0000 </r>
       <r>   -24.1902     0.0000    48.0000 </r>
       <r>   -23.9355     0.0000    48.0000 </r>
       <r>   -23.6808     0.0000    48.0000 </r>
       <r>   -23.4262     0.0000    48.0000 </r>
       <r>   -23.1715     0.0000    48.0000 </r>
       <r>   -22.9168     0.0000    48.0000 </r>
       <r>   -22.6621     0.0000    48.0000 </r>
       <r>   -22.4074     0.0000    48.0000 </r>
       <r>   -22.1527     0.0000    48.0000 </r>
       <r>   -21.8980     0.0000    48.0000 </r>
       <r>   -21.6433     0.0000    48.0000 </r>
       <r>   -21.3886     0.0000    48.0000 </r>
       <r>   -21.1340     0.0000    48.0000 </r>
       <r>   -20.8793     0.0000    48.0000 </r>
       <r>   -20.6246     0.0000    48.0000 </r>
       <r>   -20.3699     0.0000    48.0000 </r>
       <r>   -20.1152     0.0000    48.0000 </r>
       <r>   -19.8605     0.0000    48.0000 </r>
       <r>   -19.6058     0.0000    48.0000 </r>
       <r>   -19.3511     0.0000    48.0000 </r>
       <r>   -19.0964     0.0000    48.0000 </r>
       <r>   -18.8418     0.0000    48.0000 </r>
       <r>   -18.5871     0.0000    48.0000 </r>
       <r>   -18.3324     0.0000    48.0000 </r>
       <r>   -18.0777     0.0000    48.0000 </r>
       <r>   -17.8230     0.0000    48.0000 </r>
       <r>   -17.5683     0.0000    48.0000 </r>
       <r>   -17.3136     0.0000    48.0000 </r>
       <r>   -17.0589     0.0000    48.0000 </r>
       <r>   -16.8042     0.0000    48.0000 </r>
       <r>   -16.5495     0.0000    48.0000 </r>
       <r>   -16.2949     0.0000    48.0000 </r>
       <r>   -16.0402     0.0000    48.0000 </r>
       <r>   -15.7855     0.0000    48.0000 </r>
       <r>   -15.5308     0.0000    48.0000 </r>
       <r>   -15.2761     0.0000    48.0000 </r>
       <r>   -15.0214     0.0000    48.0000 </r>
       <r>   -14.7667     0.0000    48.0000 </r>
       <r>   -14.5120     0.0000    48.0000 </r>
       <r>   -14.2573     0.0000    48.0000 </r>
       <r>   -14.0027     0.0000    48.0000 </r>
       <r>   -13.7480     0.0000    48.0000 </r>
       <r>   -13.4933     0.0000    48.0000 </r>
       <r>   -13.2386     0.0000    48.0000 </r>
       <r>   -12.9839     0.0000    48.0000 </r>
       <r>   -12.7292     0.0000    48.0000 </r>
       <r>   -12.4745     0.0000    48.0000 </r>
       <r>   -12.2198     0.0000    48.0000 </r>
       <r>   -11.9651     0.0000    48.0000 </r>
       <r>   -11.7105     0.0000    48.0000 </r>
       <r>   -11.4558     0.0000    48.0000 </r>
       <r>   -11.2011     0.0000    48.0000 </r>
       <r>   -10.9464     0.0000    48.0000 </r>
       <r>   -10.6917     0.0000    48.0000 </r>
       <r>   -10.4370     0.0000    48.0000 </r>
       <r>   -10.1823     0.0000    48.0000 </r>
       <r>    -9.9276     0.0000    48.0000 </r>
       <r>    -9.6729     0.0000    48.0000 </r>
       <r>    -9.4183     0.0000    48.0000 </r>
       <r>    -9.1636     0.0000    48.0000 </r>
       <r>    -8.9089     0.0000    48.0000 </r>
       <r>    -8.6542     0.0000    48.0000 </r>
       <r>    -8.3995     0.0000    48.0000 </r>
       <r>    -8.1448     0.0000    48.0000 </r>
       <r>    -7.8901     0.0000    48.0000 </r>
       <r>    -7.6354     0.0000    48.0000 </r>
       <r>    -7.3807     0.0000    48.0000 </r>
       <r>    -7.1260     0.0000    48.0000 </r>
       <r>    -6.8714     0.0000    48.0000 </r>
       <r>    -6.6167     0.0000    48.0000 </r>
       <r>    -6.3620     0.0000    48.0000 </r>
       <r>    -6.1073     0.0000    48.0000 </r>
       <r>    -5.8526     0.0000    48.0000 </r>
       <r>    -5.5979     0.0000    48.0000 </r>
       <r>    -5.3432     0.0000    48.0000 </r>
       <r>    -5.0885     0.0000    48.0000 </r>
       <r>    -4.8338     0.0000    48.0000 </r>
       <r>    -4.5792     0.0000    48.0000 </r>
       <r>    -4.3245     0.0000    48.0000 </r>
       <r>    -4.0698     0.0000    48.0000 </r>
       <r>    -3.8151     6.4098    49.8264 </r>
       <r>    -3.5604     2.8116    51.4712 </r>
       <r>    -3.3057     0.8414    52.0000 </r>
       <r>    -3.0510     0.6353    52.1669 </r>
       <r>    -2.7963     1.3425    52.6123 </r>
       <r>    -2.5416     2.1099    53.2925 </r>
       <r>    -2.2870     2.6923    54.1959 </r>
       <r>    -2.0323     4.7519    56.3684 </r>
       <r>    -1.7776     0.3315    56.5181 </r>
       <r>    -1.5229     0.6575    56.7950 </r>
       <r>    -1.2682     1.0901    57.1297 </r>
       <r>    -1.0135     2.6783    58.2740 </r>
       <r>    -0.7588     2.7598    59.4172 </r>
       <r>    -0.5041     3.5852    60.9590 </r>
       <r>    -0.2494     2.3802    61.9633 </r>
       <r>     0.0052     2.4915    63.1141 </r>
       <r>     0.2599     1.0838    63.6434 </r>
       <r>     0.5146     2.5032    64.5049 </r>
       <r>     0.7693     5.4116    66.2354 </r>
       <r>     1.0240     5.5143    68.2055 </r>
       <r>     1.2787     3.5528    70.0936 </r>
       <r>     1.5334     2.6623    71.0403 </r>
       <r>     1.7881     2.7230    72.1374 </r>
       <r>     2.0428     4.1926    73.9709 </r>
       <r>     2.2975     1.7674    74.8991 </r>
       <r>     2.5521     1.9751    75.5847 </r>
       <r>     2.8068     1.3207    76.2752 </r>
       <r>     3.0615     1.8558    76.8400 </r>
       <r>     3.3162     2.6111    77.6242 </r>
       <r>     3.5709     1.4195    78.2493 </r>
       <r>     3.8256     3.7997    79.6106 </r>
       <r>     4.0803     5.0756    81.2366 </r>
       <r>     4.3350     6.0427    84.1461 </r>
       <r>     4.5897     3.9325    85.5424 </r>
       <r>     4.8443     5.6877    87.8874 </r>
       <r>     5.0990     5.0069    89.9538 </r>
       <r>     5.3537     4.0671    91.7807 </r>
       <r>     5.6084     4.8704    93.8221 </r>
       <r>     5.8631     3.7115    95.2004 </r>
       <r>     6.1178     2.6638    96.1938 </r>
       <r>     6.3725     4.2490    97.7097 </r>
       <r>     6.6272     4.7090    99.3779 </r>
       <r>     6.8819     4.2442   101.1575 </r>
       <r>     7.1365     4.6109   103.1131 </r>
       <r>     7.3912     3.8195   104.7891 </r>
       <r>     7.6459     4.0848   106.3975 </r>
       <r>     7.9006     3.2484   107.8630 </r>
       <r>     8.1553     1.0910   108.4666 </r>
       <r>     8.4100     1.9720   109.0941 </r>
       <r>     8.6647     3.1278   110.1232 </r>
       <r>     8.9194     4.9813   111.9932 </r>
       <r>     9.1741     3.5128   113.3845 </r>
       <r>     9.4288     4.7821   115.1771 </r>
       <r>     9.6834     7.1620   117.9057 </r>
       <r>     9.9381     5.0513   120.0569 </r>
       <r>    10.1928     5.1487   122.0154 </r>
       <r>    10.4475     4.3541   123.7977 </r>
       <r>    10.7022     3.1264   125.3728 </r>
       <r>    10.9569     3.4529   126.7774 </r>
       <r>    11.2116     2.3335   127.8494 </r>
       <r>    11.4663     1.4201   128.4280 </r>
       <r>    11.7210     1.5913   129.1043 </r>
       <r>    11.9756     1.5587   129.7184 </r>
       <r>    12.2303     1.2817   130.2499 </r>
       <r>    12.4850     1.3396   130.9075 </r>
       <r>    12.7397     1.8252   131.6587 </r>
       <r>    12.9944     0.4822   131.8983 </r>
       <r>    13.2491     0.0000   132.0000 </r>
       <r>    13.5038     0.0000   132.0000 </r>
       <r>    13.7585     0.0000   132.0000 </r>
       <r>    14.0132     0.0000   132.0000 </r>
       <r>    14.2678     0.0000   132.0000 </r>
       <r>    14.5225     0.0000   132.0000 </r>
       <r>    14.7772     0.0000   132.0000 </r>
       <r>    15.0319     0.0000   132.0000 </r>
       <r>    15.2866     0.0000   132.0000 </r>
       <r>    15.5413     0.0000   132.0000 </r>
       <r>    15.7960     0.0000   132.0000 </r>
       <r>    16.0507     0.0000   132.0000 </r>
       <r>    16.3054     0.0000   132.0000 </r>
       <r>    16.5600     0.0000   132.0000 </r>
      </set>
     </set>
    </array>
   </total>
  </dos>
 </calculation>
 <structure name="finalpos" >
  <crystal>
   <varray name="basis" >
    <v>       5.48129205       0.00000000      -3.18724317 </v>
    <v>      -1.81405881       5.17240304      -3.18724317 </v>
    <v>       0.00000000       0.00000000       6.34059000 </v>
   </varray>
   <i name="volume">    179.76493073 </i>
   <varray name="rec_basis" >
    <v>       0.18243874       0.06398469       0.00000000 </v>
    <v>       0.00000000       0.19333374       0.00000000 </v>
    <v>       0.09170702       0.12934702       0.15771403 </v>
   </varray>
  </crystal>
  <varray name="positions" >
   <v>       0.70698000       0.20698000       0.91396000 </v>
   <v>       0.29302000       0.79302000       0.08604000 </v>
   <v>       0.20698000       0.29302000       0.50000000 </v>
   <v>       0.79302000       0.70698000       0.50000000 </v>
   <v>       0.50000000       0.50000000       0.00000000 </v>
   <v>       0.34511000       0.15489000       0.50000000 </v>
   <v>       0.65489000       0.84511000       0.50000000 </v>
   <v>       0.15489000       0.65489000       0.80978000 </v>
   <v>       0.84511000       0.34511000       0.19022000 </v>
   <v>       0.00000000       0.00000000       0.00000000 </v>
   <v>       0.50000000       0.00000000       0.50000000 </v>
   <v>       0.00000000       0.50000000       0.50000000 </v>
  </varray>
 </structure>
</modeling>
