<?xml version="1.0" encoding="ISO-8859-1"?>
<modeling>
 <generator>
  <i name="program" type="string">vasp </i>
  <i name="version" type="string">6.2.0  </i>
  <i name="subversion" type="string">18Jan21 (build Jan 05 2022 15:41:44) complex                          parallel </i>
  <i name="platform" type="string">LinuxIFC </i>
  <i name="date" type="string">2025 05 07 </i>
  <i name="time" type="string">14:20:51 </i>
 </generator>
 <incar>
  <i type="string" name="SYSTEM">routine with relax: pwdword</i>
  <i type="string" name="PREC">Acc</i>
  <i type="int" name="IALGO">    38</i>
  <i type="string" name="ALGO">A</i>
  <i type="logical" name="ADDGRID"> T  </i>
  <i type="int" name="ICHARG">     2</i>
  <i type="int" name="NELM">   100</i>
  <i type="int" name="NELMIN">     6</i>
  <i name="EDIFF">      0.00000000</i>
  <i type="int" name="NSW">     0</i>
  <i type="int" name="ISIF">    -1</i>
  <i name="ENCUT">    600.00000000</i>
  <i type="logical" name="LREAL"> F  </i>
  <i type="int" name="ISMEAR">     0</i>
  <i name="SIGMA">      0.02000000</i>
  <i type="logical" name="LASPH"> T  </i>
  <i type="string" name="METAGGA">R2SCAN</i>
  <i type="logical" name="LMIXTAU"> F  </i>
 </incar>
 <primitive_cell>
  <structure name="primitive_cell" >
   <crystal>
    <varray name="basis" >
     <v>       5.28019953       0.00000000      -3.22608419 </v>
     <v>      -1.66109179       5.01211345      -3.22608419 </v>
     <v>       0.00000000       0.00000000       6.18774000 </v>
    </varray>
    <i name="volume">    163.75828592 </i>
    <varray name="rec_basis" >
     <v>       0.18938678       0.06276570       0.00000000 </v>
     <v>       0.00000000       0.19951663       0.00000000 </v>
     <v>       0.09874004       0.13674539       0.16160989 </v>
    </varray>
   </crystal>
   <varray name="positions" >
    <v>       1.00000000       0.50000000       0.00000000 </v>
    <v>       0.50000000       0.50000000       0.50000000 </v>
    <v>       0.50000000       0.00000000       0.00000000 </v>
    <v>       0.00000000       0.00000000       0.50000000 </v>
    <v>       0.00000000       0.00000000       0.00000000 </v>
    <v>       0.24812000       0.74812000       0.99625000 </v>
    <v>       0.75188000       0.25188000       0.00375000 </v>
    <v>       0.74812000       0.75188000       0.50000000 </v>
    <v>       0.25188000       0.24812000       0.50000000 </v>
    <v>       0.50000000       0.50000000       0.00000000 </v>
    <v>       0.25000000       0.25000000       0.00000000 </v>
    <v>       0.75000000       0.75000000       0.00000000 </v>
   </varray>
  </structure>
  <varray name="primitive_index" >
   <v type="int" >        1 </v>
   <v type="int" >        2 </v>
   <v type="int" >        3 </v>
   <v type="int" >        4 </v>
   <v type="int" >        5 </v>
   <v type="int" >        6 </v>
   <v type="int" >        7 </v>
   <v type="int" >        8 </v>
   <v type="int" >        9 </v>
   <v type="int" >       10 </v>
   <v type="int" >       11 </v>
   <v type="int" >       12 </v>
  </varray>
 </primitive_cell>
 <kpoints>
  <generation param="Gamma">
   <v type="int" name="divisions">       7        7        8 </v>
   <v name="usershift">      0.00000000       0.00000000       0.00000000 </v>
   <v name="genvec1">      0.14285714      -0.00000000       0.00000000 </v>
   <v name="genvec2">      0.00000000       0.14285714       0.00000000 </v>
   <v name="genvec3">      0.00000000       0.00000000       0.12500000 </v>
   <v name="shift">      0.00000000       0.00000000       0.00000000 </v>
  </generation>
  <varray name="kpointlist" >
   <v>       0.00000000       0.00000000       0.00000000 </v>
   <v>       0.14285714       0.00000000       0.00000000 </v>
   <v>       0.28571429       0.00000000       0.00000000 </v>
   <v>       0.42857143       0.00000000       0.00000000 </v>
   <v>       0.14285714       0.14285714       0.00000000 </v>
   <v>       0.28571429       0.14285714       0.00000000 </v>
   <v>       0.42857143       0.14285714       0.00000000 </v>
   <v>      -0.42857143       0.14285714       0.00000000 </v>
   <v>      -0.28571429       0.14285714       0.00000000 </v>
   <v>      -0.14285714       0.14285714       0.00000000 </v>
   <v>       0.28571429       0.28571429       0.00000000 </v>
   <v>       0.42857143       0.28571429       0.00000000 </v>
   <v>      -0.42857143       0.28571429       0.00000000 </v>
   <v>      -0.28571429       0.28571429       0.00000000 </v>
   <v>       0.42857143       0.42857143       0.00000000 </v>
   <v>      -0.42857143       0.42857143       0.00000000 </v>
   <v>       0.00000000       0.00000000       0.12500000 </v>
   <v>       0.14285714      -0.00000000       0.12500000 </v>
   <v>       0.28571429       0.00000000       0.12500000 </v>
   <v>       0.42857143       0.00000000       0.12500000 </v>
   <v>      -0.42857143      -0.00000000       0.12500000 </v>
   <v>      -0.28571429      -0.00000000       0.12500000 </v>
   <v>      -0.14285714       0.00000000       0.12500000 </v>
   <v>       0.14285714       0.14285714       0.12500000 </v>
   <v>       0.28571429       0.14285714       0.12500000 </v>
   <v>       0.42857143       0.14285714       0.12500000 </v>
   <v>      -0.42857143       0.14285714       0.12500000 </v>
   <v>      -0.28571429       0.14285714       0.12500000 </v>
   <v>      -0.14285714       0.14285714       0.12500000 </v>
   <v>       0.28571429       0.28571429       0.12500000 </v>
   <v>       0.42857143       0.28571429       0.12500000 </v>
   <v>      -0.42857143       0.28571429       0.12500000 </v>
   <v>      -0.28571429       0.28571429       0.12500000 </v>
   <v>      -0.14285714       0.28571429       0.12500000 </v>
   <v>       0.42857143       0.42857143       0.12500000 </v>
   <v>      -0.42857143       0.42857143       0.12500000 </v>
   <v>      -0.28571429       0.42857143       0.12500000 </v>
   <v>      -0.14285714       0.42857143       0.12500000 </v>
   <v>      -0.42857143      -0.42857143       0.12500000 </v>
   <v>      -0.28571429      -0.42857143       0.12500000 </v>
   <v>      -0.14285714      -0.42857143       0.12500000 </v>
   <v>      -0.28571429      -0.28571429       0.12500000 </v>
   <v>      -0.14285714      -0.28571429       0.12500000 </v>
   <v>      -0.14285714      -0.14285714       0.12500000 </v>
   <v>       0.00000000       0.00000000       0.25000000 </v>
   <v>       0.14285714       0.00000000       0.25000000 </v>
   <v>       0.28571429       0.00000000       0.25000000 </v>
   <v>       0.42857143       0.00000000       0.25000000 </v>
   <v>      -0.42857143       0.00000000       0.25000000 </v>
   <v>      -0.28571429       0.00000000       0.25000000 </v>
   <v>      -0.14285714       0.00000000       0.25000000 </v>
   <v>       0.14285714       0.14285714       0.25000000 </v>
   <v>       0.28571429       0.14285714       0.25000000 </v>
   <v>       0.42857143       0.14285714       0.25000000 </v>
   <v>      -0.42857143       0.14285714       0.25000000 </v>
   <v>      -0.28571429       0.14285714       0.25000000 </v>
   <v>      -0.14285714       0.14285714       0.25000000 </v>
   <v>       0.28571429       0.28571429       0.25000000 </v>
   <v>       0.42857143       0.28571429       0.25000000 </v>
   <v>      -0.42857143       0.28571429       0.25000000 </v>
   <v>      -0.28571429       0.28571429       0.25000000 </v>
   <v>      -0.14285714       0.28571429       0.25000000 </v>
   <v>       0.42857143       0.42857143       0.25000000 </v>
   <v>      -0.42857143       0.42857143       0.25000000 </v>
   <v>      -0.28571429       0.42857143       0.25000000 </v>
   <v>      -0.14285714       0.42857143       0.25000000 </v>
   <v>      -0.42857143      -0.42857143       0.25000000 </v>
   <v>      -0.28571429      -0.42857143       0.25000000 </v>
   <v>      -0.14285714      -0.42857143       0.25000000 </v>
   <v>      -0.28571429      -0.28571429       0.25000000 </v>
   <v>      -0.14285714      -0.28571429       0.25000000 </v>
   <v>      -0.14285714      -0.14285714       0.25000000 </v>
   <v>      -0.00000000       0.00000000       0.37500000 </v>
   <v>       0.14285714      -0.00000000       0.37500000 </v>
   <v>       0.28571429       0.00000000       0.37500000 </v>
   <v>       0.42857143       0.00000000       0.37500000 </v>
   <v>      -0.42857143      -0.00000000       0.37500000 </v>
   <v>      -0.28571429      -0.00000000       0.37500000 </v>
   <v>      -0.14285714       0.00000000       0.37500000 </v>
   <v>       0.14285714       0.14285714       0.37500000 </v>
   <v>       0.28571429       0.14285714       0.37500000 </v>
   <v>       0.42857143       0.14285714       0.37500000 </v>
   <v>      -0.42857143       0.14285714       0.37500000 </v>
   <v>      -0.28571429       0.14285714       0.37500000 </v>
   <v>      -0.14285714       0.14285714       0.37500000 </v>
   <v>       0.28571429       0.28571429       0.37500000 </v>
   <v>       0.42857143       0.28571429       0.37500000 </v>
   <v>      -0.42857143       0.28571429       0.37500000 </v>
   <v>      -0.28571429       0.28571429       0.37500000 </v>
   <v>      -0.14285714       0.28571429       0.37500000 </v>
   <v>       0.42857143       0.42857143       0.37500000 </v>
   <v>      -0.42857143       0.42857143       0.37500000 </v>
   <v>      -0.28571429       0.42857143       0.37500000 </v>
   <v>      -0.14285714       0.42857143       0.37500000 </v>
   <v>      -0.42857143      -0.42857143       0.37500000 </v>
   <v>      -0.28571429      -0.42857143       0.37500000 </v>
   <v>      -0.14285714      -0.42857143       0.37500000 </v>
   <v>      -0.28571429      -0.28571429       0.37500000 </v>
   <v>      -0.14285714      -0.28571429       0.37500000 </v>
   <v>      -0.14285714      -0.14285714       0.37500000 </v>
   <v>       0.00000000       0.00000000       0.50000000 </v>
   <v>       0.14285714       0.00000000       0.50000000 </v>
   <v>       0.28571429       0.00000000       0.50000000 </v>
   <v>       0.42857143       0.00000000       0.50000000 </v>
   <v>       0.14285714       0.14285714       0.50000000 </v>
   <v>       0.28571429       0.14285714       0.50000000 </v>
   <v>       0.42857143       0.14285714       0.50000000 </v>
   <v>      -0.42857143       0.14285714       0.50000000 </v>
   <v>      -0.28571429       0.14285714       0.50000000 </v>
   <v>      -0.14285714       0.14285714       0.50000000 </v>
   <v>       0.28571429       0.28571429       0.50000000 </v>
   <v>       0.42857143       0.28571429       0.50000000 </v>
   <v>      -0.42857143       0.28571429       0.50000000 </v>
   <v>      -0.28571429       0.28571429       0.50000000 </v>
   <v>       0.42857143       0.42857143       0.50000000 </v>
   <v>      -0.42857143       0.42857143       0.50000000 </v>
  </varray>
  <varray name="weights" >
   <v>       0.00255102 </v>
   <v>       0.01020408 </v>
   <v>       0.01020408 </v>
   <v>       0.01020408 </v>
   <v>       0.00510204 </v>
   <v>       0.01020408 </v>
   <v>       0.01020408 </v>
   <v>       0.01020408 </v>
   <v>       0.01020408 </v>
   <v>       0.00510204 </v>
   <v>       0.00510204 </v>
   <v>       0.01020408 </v>
   <v>       0.01020408 </v>
   <v>       0.00510204 </v>
   <v>       0.00510204 </v>
   <v>       0.00510204 </v>
   <v>       0.00510204 </v>
   <v>       0.01020408 </v>
   <v>       0.01020408 </v>
   <v>       0.01020408 </v>
   <v>       0.01020408 </v>
   <v>       0.01020408 </v>
   <v>       0.01020408 </v>
   <v>       0.00510204 </v>
   <v>       0.01020408 </v>
   <v>       0.01020408 </v>
   <v>       0.01020408 </v>
   <v>       0.01020408 </v>
   <v>       0.01020408 </v>
   <v>       0.00510204 </v>
   <v>       0.01020408 </v>
   <v>       0.01020408 </v>
   <v>       0.01020408 </v>
   <v>       0.01020408 </v>
   <v>       0.00510204 </v>
   <v>       0.01020408 </v>
   <v>       0.01020408 </v>
   <v>       0.01020408 </v>
   <v>       0.00510204 </v>
   <v>       0.01020408 </v>
   <v>       0.01020408 </v>
   <v>       0.00510204 </v>
   <v>       0.01020408 </v>
   <v>       0.00510204 </v>
   <v>       0.00510204 </v>
   <v>       0.01020408 </v>
   <v>       0.01020408 </v>
   <v>       0.01020408 </v>
   <v>       0.01020408 </v>
   <v>       0.01020408 </v>
   <v>       0.01020408 </v>
   <v>       0.00510204 </v>
   <v>       0.01020408 </v>
   <v>       0.01020408 </v>
   <v>       0.01020408 </v>
   <v>       0.01020408 </v>
   <v>       0.01020408 </v>
   <v>       0.00510204 </v>
   <v>       0.01020408 </v>
   <v>       0.01020408 </v>
   <v>       0.01020408 </v>
   <v>       0.01020408 </v>
   <v>       0.00510204 </v>
   <v>       0.01020408 </v>
   <v>       0.01020408 </v>
   <v>       0.01020408 </v>
   <v>       0.00510204 </v>
   <v>       0.01020408 </v>
   <v>       0.01020408 </v>
   <v>       0.00510204 </v>
   <v>       0.01020408 </v>
   <v>       0.00510204 </v>
   <v>       0.00510204 </v>
   <v>       0.01020408 </v>
   <v>       0.01020408 </v>
   <v>       0.01020408 </v>
   <v>       0.01020408 </v>
   <v>       0.01020408 </v>
   <v>       0.01020408 </v>
   <v>       0.00510204 </v>
   <v>       0.01020408 </v>
   <v>       0.01020408 </v>
   <v>       0.01020408 </v>
   <v>       0.01020408 </v>
   <v>       0.01020408 </v>
   <v>       0.00510204 </v>
   <v>       0.01020408 </v>
   <v>       0.01020408 </v>
   <v>       0.01020408 </v>
   <v>       0.01020408 </v>
   <v>       0.00510204 </v>
   <v>       0.01020408 </v>
   <v>       0.01020408 </v>
   <v>       0.01020408 </v>
   <v>       0.00510204 </v>
   <v>       0.01020408 </v>
   <v>       0.01020408 </v>
   <v>       0.00510204 </v>
   <v>       0.01020408 </v>
   <v>       0.00510204 </v>
   <v>       0.00255102 </v>
   <v>       0.01020408 </v>
   <v>       0.01020408 </v>
   <v>       0.01020408 </v>
   <v>       0.00510204 </v>
   <v>       0.01020408 </v>
   <v>       0.01020408 </v>
   <v>       0.01020408 </v>
   <v>       0.01020408 </v>
   <v>       0.00510204 </v>
   <v>       0.00510204 </v>
   <v>       0.01020408 </v>
   <v>       0.01020408 </v>
   <v>       0.00510204 </v>
   <v>       0.00510204 </v>
   <v>       0.00510204 </v>
  </varray>
 </kpoints>
 <parameters>
  <separator name="general" >
   <i type="string" name="SYSTEM">routine with relax: pwdword</i>
   <i type="logical" name="LCOMPAT"> F  </i>
  </separator>
  <separator name="electronic" >
   <i type="string" name="PREC">acc</i>
   <i name="ENMAX">    600.00000000</i>
   <i name="ENAUG">    535.51400000</i>
   <i name="EDIFF">      0.00000000</i>
   <i type="int" name="IALGO">    58</i>
   <i type="int" name="IWAVPR">    10</i>
   <i type="int" name="NBANDS">    66</i>
   <i type="int" name="NBANDSLOW">    -1</i>
   <i type="int" name="NBANDSHIGH">    -1</i>
   <i name="NELECT">    104.00000000</i>
   <i type="int" name="TURBO">     0</i>
   <i type="int" name="IRESTART">     0</i>
   <i type="int" name="NREBOOT">     0</i>
   <i type="int" name="NMIN">     0</i>
   <i name="EREF">      0.00000000</i>
   <separator name="electronic smearing" >
    <i type="int" name="ISMEAR">     0</i>
    <i name="SIGMA">      0.02000000</i>
    <i name="KSPACING">      0.50000000</i>
    <i type="logical" name="KGAMMA"> T  </i>
    <i type="logical" name="KBLOWUP"> T  </i>
   </separator>
   <separator name="electronic projectors" >
    <i type="logical" name="LREAL"> F  </i>
    <v name="ROPT">      0.00000000      0.00000000      0.00000000</v>
    <i type="int" name="LMAXPAW">  -100</i>
    <i type="int" name="LMAXMIX">     2</i>
    <i type="logical" name="NLSPLINE"> F  </i>
   </separator>
   <separator name="electronic startup" >
    <i type="int" name="ISTART">     0</i>
    <i type="int" name="ICHARG">     2</i>
    <i type="int" name="INIWAV">     1</i>
   </separator>
   <separator name="electronic spin" >
    <i type="int" name="ISPIN">     1</i>
    <i type="logical" name="LNONCOLLINEAR"> F  </i>
    <v name="MAGMOM">      1.00000000      1.00000000      1.00000000      1.00000000      1.00000000      1.00000000      1.00000000      1.00000000      1.00000000      1.00000000      1.00000000      1.00000000</v>
    <i name="NUPDOWN">     -1.00000000</i>
    <i type="logical" name="LSORBIT"> F  </i>
    <v name="SAXIS">      0.00000000      0.00000000      1.00000000</v>
    <i type="logical" name="LSPIRAL"> F  </i>
    <v name="QSPIRAL">      0.00000000      0.00000000      0.00000000</v>
    <i type="logical" name="LZEROZ"> F  </i>
   </separator>
   <separator name="electronic exchange-correlation" >
    <i type="logical" name="LASPH"> T  </i>
    <i type="logical" name="LMETAGGA"> F  </i>
   </separator>
   <separator name="electronic convergence" >
    <i type="int" name="NELM">   100</i>
    <i type="int" name="NELMDL">    -5</i>
    <i type="int" name="NELMIN">     6</i>
    <i name="ENINI">    600.00000000</i>
    <separator name="electronic convergence detail" >
     <i type="logical" name="LDIAG"> T  </i>
     <i type="logical" name="LSUBROT"> F  </i>
     <i name="WEIMIN">      0.00000000</i>
     <i name="EBREAK">      0.00000000</i>
     <i name="DEPER">      0.30000000</i>
     <i type="int" name="NRMM">     4</i>
     <i name="TIME">      0.40000000</i>
    </separator>
   </separator>
   <separator name="electronic mixer" >
    <i name="AMIX">      0.40000000</i>
    <i name="BMIX">      1.00000000</i>
    <i name="AMIN">      0.10000000</i>
    <i name="AMIX_MAG">      1.60000000</i>
    <i name="BMIX_MAG">      1.00000000</i>
    <separator name="electronic mixer details" >
     <i type="int" name="IMIX">     4</i>
     <i type="logical" name="MIXFIRST"> F  </i>
     <i type="int" name="MAXMIX">   -45</i>
     <i name="WC">    100.00000000</i>
     <i type="int" name="INIMIX">     1</i>
     <i type="int" name="MIXPRE">     1</i>
     <i type="int" name="MREMOVE">     5</i>
    </separator>
   </separator>
   <separator name="electronic dipolcorrection" >
    <i type="logical" name="LDIPOL"> F  </i>
    <i type="logical" name="LMONO"> F  </i>
    <i type="int" name="IDIPOL">     0</i>
    <i name="EPSILON">      1.00000000</i>
    <v name="DIPOL">   -100.00000000   -100.00000000   -100.00000000</v>
    <i name="EFIELD">      0.00000000</i>
   </separator>
  </separator>
  <separator name="grids" >
   <i type="int" name="NGX">    50</i>
   <i type="int" name="NGY">    50</i>
   <i type="int" name="NGZ">    50</i>
   <i type="int" name="NGXF">   100</i>
   <i type="int" name="NGYF">   100</i>
   <i type="int" name="NGZF">   100</i>
   <i type="logical" name="ADDGRID"> T  </i>
  </separator>
  <separator name="ionic" >
   <i type="int" name="NSW">     0</i>
   <i type="int" name="IBRION">    -1</i>
   <i type="int" name="MDALGO">     0</i>
   <i type="int" name="ISIF">    -1</i>
   <i name="PSTRESS">      0.00000000</i>
   <i name="EDIFFG">      0.00000001</i>
   <i type="int" name="NFREE">     0</i>
   <i name="POTIM">      0.50000000</i>
   <i name="SMASS">     -3.00000000</i>
   <i name="SCALEE">      1.00000000</i>
  </separator>
  <separator name="ionic md" >
   <i name="TEBEG">      0.00010000</i>
   <i name="TEEND">      0.00010000</i>
   <i type="int" name="NBLOCK">     1</i>
   <i type="int" name="KBLOCK">     1</i>
   <i type="int" name="NPACO">   256</i>
   <i name="APACO">     16.00000000</i>
  </separator>
  <separator name="symmetry" >
   <i type="int" name="ISYM">     2</i>
   <i name="SYMPREC">      0.00001000</i>
  </separator>
  <separator name="dos" >
   <i type="int" name="LORBIT">     0</i>
   <v name="RWIGS">     -1.00000000     -1.00000000     -1.00000000</v>
   <i type="int" name="NEDOS">   301</i>
   <i name="EMIN">     10.00000000</i>
   <i name="EMAX">    -10.00000000</i>
   <i name="EFERMI">      0.00000000</i>
  </separator>
  <separator name="writing" >
   <i type="int" name="NWRITE">     2</i>
   <i type="logical" name="LWAVE"> T  </i>
   <i type="logical" name="LDOWNSAMPLE"> F  </i>
   <i type="logical" name="LCHARG"> T  </i>
   <i type="logical" name="LPARD"> F  </i>
   <i type="logical" name="LVTOT"> F  </i>
   <i type="logical" name="LVHAR"> F  </i>
   <i type="logical" name="LELF"> F  </i>
   <i type="logical" name="LOPTICS"> F  </i>
   <v name="STM">      0.00000000      0.00000000      0.00000000      0.00000000      0.00000000      0.00000000      0.00000000</v>
  </separator>
  <separator name="performance" >
   <i type="int" name="NPAR">     6</i>
   <i type="int" name="NSIM">     4</i>
   <i type="int" name="NBLK">    -1</i>
   <i type="logical" name="LPLANE"> T  </i>
   <i type="logical" name="LSCALAPACK"> T  </i>
   <i type="logical" name="LSCAAWARE"> F  </i>
   <i type="logical" name="LSCALU"> F  </i>
   <i type="logical" name="LASYNC"> F  </i>
   <i type="logical" name="LORBITALREAL"> F  </i>
  </separator>
  <separator name="miscellaneous" >
   <i type="int" name="IDIOT">     3</i>
   <i type="int" name="PHON_NSTRUCT">    -1</i>
   <i type="logical" name="LMUSIC"> F  </i>
   <v name="POMASS">     10.81100000     95.94000000     28.08500000</v>
   <v name="DARWINR">      0.00000000      0.00000000      0.00000000</v>
   <v name="DARWINV">      1.00000000      1.00000000      1.00000000</v>
   <i type="logical" name="LCORR"> T  </i>
  </separator>
  <i type="logical" name="GGA_COMPAT"> T  </i>
  <i type="logical" name="LBERRY"> F  </i>
  <i type="int" name="ICORELEVEL">     0</i>
  <i type="logical" name="LDAU"> F  </i>
  <i type="int" name="I_CONSTRAINED_M">     0</i>
  <separator name="electronic exchange-correlation" >
   <i type="string" name="GGA">--</i>
   <i type="int" name="VOSKOWN">     0</i>
   <i type="logical" name="LHFCALC"> F  </i>
   <i type="string" name="PRECFOCK"></i>
   <i type="logical" name="LSYMGRAD"> F  </i>
   <i type="logical" name="LHFONE"> F  </i>
   <i type="logical" name="LRHFCALC"> F  </i>
   <i type="logical" name="LTHOMAS"> F  </i>
   <i type="logical" name="LMODELHF"> F  </i>
   <i type="logical" name="LFOCKACE"> F  </i>
   <i name="ENCUT4O">     -1.00000000</i>
   <i type="int" name="EXXOEP">     0</i>
   <i type="int" name="FOURORBIT">     0</i>
   <i name="AEXX">      0.00000000</i>
   <i name="HFALPHA">      0.00000000</i>
   <i name="MCALPHA">      0.00000000</i>
   <i name="ALDAX">      1.00000000</i>
   <i name="AGGAX">      1.00000000</i>
   <i name="ALDAC">      1.00000000</i>
   <i name="AGGAC">      1.00000000</i>
   <i type="int" name="NKREDX">     1</i>
   <i type="int" name="NKREDY">     1</i>
   <i type="int" name="NKREDZ">     1</i>
   <i type="logical" name="SHIFTRED"> F  </i>
   <i type="logical" name="ODDONLY"> F  </i>
   <i type="logical" name="EVENONLY"> F  </i>
   <i type="int" name="LMAXFOCK">     0</i>
   <i type="int" name="NMAXFOCKAE">     0</i>
   <i type="logical" name="LFOCKAEDFT"> F  </i>
   <i name="HFSCREEN">      0.00000000</i>
   <i name="HFSCREENC">      0.00000000</i>
   <i type="int" name="NBANDSGWLOW">     0</i>
  </separator>
  <separator name="vdW DFT" >
   <i type="logical" name="LUSE_VDW"> F  </i>
   <i name="Zab_VDW">     -0.84910000</i>
   <i name="PARAM1">      0.12340000</i>
   <i name="PARAM2">      1.00000000</i>
   <i name="PARAM3">      0.00000000</i>
  </separator>
  <separator name="model GW" >
   <i type="int" name="MODEL_GW">     0</i>
   <i name="MODEL_EPS0">      8.18791430</i>
   <i name="MODEL_ALPHA">      1.00000000</i>
  </separator>
  <separator name="linear response parameters" >
   <i type="logical" name="LEPSILON"> F  </i>
   <i type="logical" name="LRPA"> F  </i>
   <i type="logical" name="LNABLA"> F  </i>
   <i type="logical" name="LVEL"> F  </i>
   <i type="int" name="KINTER">     0</i>
   <i name="CSHIFT">      0.10000000</i>
   <i name="OMEGAMAX">     -1.00000000</i>
   <i name="DEG_THRESHOLD">      0.00200000</i>
   <i name="RTIME">     -0.10000000</i>
   <i name="WPLASMAI">      0.00000000</i>
   <v name="DFIELD">      0.00000000      0.00000000      0.00000000</v>
   <v name="WPLASMA">      0.00000000      0.00000000      0.00000000      0.00000000      0.00000000      0.00000000      0.00000000      0.00000000      0.00000000</v>
  </separator>
  <separator name="orbital magnetization" >
   <i type="logical" name="NUCIND"> F  </i>
   <v name="MAGPOS">      0.00000000      0.00000000      0.00000000</v>
   <i type="logical" name="LNICSALL"> T  </i>
   <i type="logical" name="ORBITALMAG"> F  </i>
   <i type="logical" name="LMAGBLOCH"> F  </i>
   <i type="logical" name="LCHIMAG"> F  </i>
   <i type="logical" name="LGAUGE"> T  </i>
   <i type="int" name="MAGATOM">     0</i>
   <v name="MAGDIPOL">      0.00000000      0.00000000      0.00000000</v>
   <v name="AVECCONST">      0.00000000      0.00000000      0.00000000</v>
  </separator>
  <separator name="response functions" >
   <i type="logical" name="LFINITE_TEMPERATURE"> F  </i>
   <i type="logical" name="LADDER"> F  </i>
   <i type="logical" name="LRPAFORCE"> F  </i>
   <i type="logical" name="LFXC"> F  </i>
   <i type="logical" name="LHARTREE"> T  </i>
   <i type="int" name="IBSE">     0</i>
   <v type="int" name="KPOINT">    -1     0     0     0</v>
   <i type="logical" name="LTCTC"> F  </i>
   <i type="logical" name="LTCTE"> F  </i>
   <i type="logical" name="LTETE"> F  </i>
   <i type="logical" name="LTRIPLET"> F  </i>
   <i type="logical" name="LFXCEPS"> F  </i>
   <i type="logical" name="LFXHEG"> F  </i>
   <i type="int" name="NATURALO">     2</i>
   <i type="logical" name="LHOLEGF"> F  </i>
   <i type="logical" name="L2ORDER"> F  </i>
   <i type="logical" name="LDMP1"> F  </i>
   <i type="logical" name="LMP2LT"> F  </i>
   <i type="logical" name="LSMP2LT"> F  </i>
   <i type="logical" name="LGWLF"> F  </i>
   <i name="ENCUTGW">     -2.00000000</i>
   <i name="ENCUTGWSOFT">     -2.00000000</i>
   <i name="ENCUTLF">     -1.00000000</i>
   <i type="logical" name="LESF_SPLINES"> F  </i>
   <i type="int" name="LMAXMP2">    -1</i>
   <i name="SCISSOR">      0.00000000</i>
   <i type="int" name="NOMEGA">     0</i>
   <i type="int" name="NOMEGAR">     0</i>
   <i type="int" name="NBANDSGW">    -1</i>
   <i type="int" name="NBANDSO">    -1</i>
   <i type="int" name="NBANDSV">    -1</i>
   <i type="int" name="NELM">   100</i>
   <i type="int" name="NELMHF">     1</i>
   <i type="int" name="DIM">     3</i>
   <i type="int" name="IESPILON">     4</i>
   <i type="int" name="ANTIRES">     0</i>
   <i name="OMEGAMAX">    -30.00000000</i>
   <i name="OMEGAMIN">    -30.00000000</i>
   <i name="OMEGATL">   -200.00000000</i>
   <i type="int" name="OMEGAGRID">     0</i>
   <i name="CSHIFT">     -0.10000000</i>
   <i type="logical" name="LSELFENERGY"> F  </i>
   <i type="logical" name="LSPECTRAL"> F  </i>
   <i type="logical" name="LSPECTRALGW"> F  </i>
   <i type="logical" name="LSINGLES"> F  </i>
   <i type="logical" name="LFERMIGW"> F  </i>
   <i type="logical" name="ODDONLYGW"> F  </i>
   <i type="logical" name="EVENONLYGW"> F  </i>
   <i type="int" name="NKREDLFX">     1</i>
   <i type="int" name="NKREDLFY">     1</i>
   <i type="int" name="NKREDLFZ">     1</i>
   <i type="int" name="MAXMEM">  2800</i>
   <i type="int" name="TELESCOPE">     0</i>
   <i type="int" name="NTAUPAR">    -1</i>
   <i type="int" name="NOMEGAPAR">    -1</i>
   <i name="DAMP_NEWTON">      0.80000001</i>
   <i name="LAMBDA">      1.00000000</i>
  </separator>
  <separator name="External order field" >
   <i name="OFIELD_KAPPA">      0.00000000</i>
   <v name="OFIELD_K">      0.00000000      0.00000000      0.00000000</v>
   <i name="OFIELD_Q6_NEAR">      0.00000000</i>
   <i name="OFIELD_Q6_FAR">      0.00000000</i>
   <i name="OFIELD_A">      0.00000000</i>
  </separator>
 </parameters>
 <atominfo>
  <atoms>      12 </atoms>
  <types>       3 </types>
  <array name="atoms" >
   <dimension dim="1">ion</dimension>
   <field type="string">element</field>
   <field type="int">atomtype</field>
   <set>
    <rc><c>B </c><c>   1</c></rc>
    <rc><c>B </c><c>   1</c></rc>
    <rc><c>B </c><c>   1</c></rc>
    <rc><c>B </c><c>   1</c></rc>
    <rc><c>Mo</c><c>   2</c></rc>
    <rc><c>Mo</c><c>   2</c></rc>
    <rc><c>Mo</c><c>   2</c></rc>
    <rc><c>Mo</c><c>   2</c></rc>
    <rc><c>Mo</c><c>   2</c></rc>
    <rc><c>Mo</c><c>   2</c></rc>
    <rc><c>Si</c><c>   3</c></rc>
    <rc><c>Si</c><c>   3</c></rc>
   </set>
  </array>
  <array name="atomtypes" >
   <dimension dim="1">type</dimension>
   <field type="int">atomspertype</field>
   <field type="string">element</field>
   <field>mass</field>
   <field>valence</field>
   <field type="string">pseudopotential</field>
   <set>
    <rc><c>   4</c><c>B </c><c>     10.81100000</c><c>      3.00000000</c><c>  PAW_PBE B 06Sep2000                   </c></rc>
    <rc><c>   6</c><c>Mo</c><c>     95.94000000</c><c>     14.00000000</c><c>  PAW_PBE Mo_sv 02Feb2006               </c></rc>
    <rc><c>   2</c><c>Si</c><c>     28.08500000</c><c>      4.00000000</c><c>  PAW_PBE Si 05Jan2001                  </c></rc>
   </set>
  </array>
 </atominfo>
 <structure name="initialpos" >
  <crystal>
   <varray name="basis" >
    <v>       5.28019953       0.00000000      -3.22608419 </v>
    <v>      -1.66109179       5.01211345      -3.22608419 </v>
    <v>       0.00000000       0.00000000       6.18774000 </v>
   </varray>
   <i name="volume">    163.75828592 </i>
   <varray name="rec_basis" >
    <v>       0.18938678       0.06276570       0.00000000 </v>
    <v>       0.00000000       0.19951663       0.00000000 </v>
    <v>       0.09874004       0.13674539       0.16160989 </v>
   </varray>
  </crystal>
  <varray name="positions" >
   <v>       0.00000000       0.50000000       0.00000000 </v>
   <v>       0.50000000       0.50000000       0.50000000 </v>
   <v>       0.50000000       0.00000000       0.00000000 </v>
   <v>       0.00000000       0.00000000       0.50000000 </v>
   <v>       0.00000000       0.00000000       0.00000000 </v>
   <v>       0.24812000       0.74812000       0.99625000 </v>
   <v>       0.75188000       0.25188000       0.00375000 </v>
   <v>       0.74812000       0.75188000       0.50000000 </v>
   <v>       0.25188000       0.24812000       0.50000000 </v>
   <v>       0.50000000       0.50000000       0.00000000 </v>
   <v>       0.25000000       0.25000000       0.00000000 </v>
   <v>       0.75000000       0.75000000       0.00000000 </v>
  </varray>
 </structure>
 <calculation>
  <scstep>
   <time name="total">   21.64   21.84</time>
   <energy>
    <i name="alphaZ">    570.53116171 </i>
    <i name="ewald">  -8125.74628502 </i>
    <i name="hartreedc">  -3537.02502792 </i>
    <i name="XCdc">    488.23929332 </i>
    <i name="pawpsdc">   9250.47132855 </i>
    <i name="pawaedc">  -9210.50234729 </i>
    <i name="eentropy">     -0.00074905 </i>
    <i name="bandstr">     29.78387977 </i>
    <i name="atom">  11664.50664672 </i>
    <i name="e_fr_energy">   1130.25790080 </i>
    <i name="e_wo_entrp">   1130.25864985 </i>
    <i name="e_0_energy">   1130.25827532 </i>
   </energy>
  </scstep>
  <scstep>
   <time name="total">   23.03   23.24</time>
   <energy>
    <i name="e_fr_energy">   -167.48151584 </i>
    <i name="e_wo_entrp">   -167.48042458 </i>
    <i name="e_0_energy">   -167.48097021 </i>
   </energy>
  </scstep>
  <scstep>
   <time name="total">   27.19   27.41</time>
   <energy>
    <i name="e_fr_energy">   -216.97248777 </i>
    <i name="e_wo_entrp">   -216.97039090 </i>
    <i name="e_0_energy">   -216.97143934 </i>
   </energy>
  </scstep>
  <scstep>
   <time name="total">   25.39   25.60</time>
   <energy>
    <i name="e_fr_energy">   -217.92101668 </i>
    <i name="e_wo_entrp">   -217.91908585 </i>
    <i name="e_0_energy">   -217.92005126 </i>
   </energy>
  </scstep>
  <scstep>
   <time name="total">   27.57   27.79</time>
   <energy>
    <i name="e_fr_energy">   -217.93992001 </i>
    <i name="e_wo_entrp">   -217.93800076 </i>
    <i name="e_0_energy">   -217.93896039 </i>
   </energy>
  </scstep>
  <scstep>
   <time name="total">   27.15   27.37</time>
   <energy>
    <i name="e_fr_energy">   -160.01129011 </i>
    <i name="e_wo_entrp">   -160.00949554 </i>
    <i name="e_0_energy">   -160.01039283 </i>
   </energy>
  </scstep>
  <scstep>
   <time name="total">   27.09   27.30</time>
   <energy>
    <i name="e_fr_energy">   -173.72395324 </i>
    <i name="e_wo_entrp">   -173.72221708 </i>
    <i name="e_0_energy">   -173.72308516 </i>
   </energy>
  </scstep>
  <scstep>
   <time name="total">   26.73   26.93</time>
   <energy>
    <i name="e_fr_energy">   -175.42170403 </i>
    <i name="e_wo_entrp">   -175.41978685 </i>
    <i name="e_0_energy">   -175.42074544 </i>
   </energy>
  </scstep>
  <scstep>
   <time name="total">   26.71   26.92</time>
   <energy>
    <i name="e_fr_energy">   -175.83986040 </i>
    <i name="e_wo_entrp">   -175.83786717 </i>
    <i name="e_0_energy">   -175.83886378 </i>
   </energy>
  </scstep>
  <scstep>
   <time name="total">   26.73   26.93</time>
   <energy>
    <i name="e_fr_energy">   -175.98309582 </i>
    <i name="e_wo_entrp">   -175.98100002 </i>
    <i name="e_0_energy">   -175.98204792 </i>
   </energy>
  </scstep>
  <scstep>
   <time name="total">   26.24   26.45</time>
   <energy>
    <i name="e_fr_energy">   -176.02694403 </i>
    <i name="e_wo_entrp">   -176.02466362 </i>
    <i name="e_0_energy">   -176.02580382 </i>
   </energy>
  </scstep>
  <scstep>
   <time name="total">   26.71   26.92</time>
   <energy>
    <i name="e_fr_energy">   -176.04461617 </i>
    <i name="e_wo_entrp">   -176.04227057 </i>
    <i name="e_0_energy">   -176.04344337 </i>
   </energy>
  </scstep>
  <scstep>
   <time name="total">   25.96   26.17</time>
   <energy>
    <i name="e_fr_energy">   -176.05362774 </i>
    <i name="e_wo_entrp">   -176.05123648 </i>
    <i name="e_0_energy">   -176.05243211 </i>
   </energy>
  </scstep>
  <scstep>
   <time name="total">   26.59   26.80</time>
   <energy>
    <i name="e_fr_energy">   -176.05753817 </i>
    <i name="e_wo_entrp">   -176.05514576 </i>
    <i name="e_0_energy">   -176.05634197 </i>
   </energy>
  </scstep>
  <scstep>
   <time name="total">   26.36   26.57</time>
   <energy>
    <i name="e_fr_energy">   -176.05909579 </i>
    <i name="e_wo_entrp">   -176.05668965 </i>
    <i name="e_0_energy">   -176.05789272 </i>
   </energy>
  </scstep>
  <scstep>
   <time name="total">   26.02   26.21</time>
   <energy>
    <i name="e_fr_energy">   -176.05973378 </i>
    <i name="e_wo_entrp">   -176.05733416 </i>
    <i name="e_0_energy">   -176.05853397 </i>
   </energy>
  </scstep>
  <scstep>
   <time name="total">   26.81   27.02</time>
   <energy>
    <i name="e_fr_energy">   -176.05999091 </i>
    <i name="e_wo_entrp">   -176.05759601 </i>
    <i name="e_0_energy">   -176.05879346 </i>
   </energy>
  </scstep>
  <scstep>
   <time name="total">   25.84   26.03</time>
   <energy>
    <i name="e_fr_energy">   -176.06010570 </i>
    <i name="e_wo_entrp">   -176.05771808 </i>
    <i name="e_0_energy">   -176.05891189 </i>
   </energy>
  </scstep>
  <scstep>
   <time name="total">   25.74   25.98</time>
   <energy>
    <i name="e_fr_energy">   -176.06014840 </i>
    <i name="e_wo_entrp">   -176.05776378 </i>
    <i name="e_0_energy">   -176.05895609 </i>
   </energy>
  </scstep>
  <scstep>
   <time name="total">   25.78   25.98</time>
   <energy>
    <i name="e_fr_energy">   -176.06016516 </i>
    <i name="e_wo_entrp">   -176.05778442 </i>
    <i name="e_0_energy">   -176.05897479 </i>
   </energy>
  </scstep>
  <scstep>
   <time name="total">   25.59   25.80</time>
   <energy>
    <i name="e_fr_energy">   -176.06017395 </i>
    <i name="e_wo_entrp">   -176.05779470 </i>
    <i name="e_0_energy">   -176.05898433 </i>
   </energy>
  </scstep>
  <scstep>
   <time name="total">   26.34   26.55</time>
   <energy>
    <i name="e_fr_energy">   -176.06017789 </i>
    <i name="e_wo_entrp">   -176.05779948 </i>
    <i name="e_0_energy">   -176.05898868 </i>
   </energy>
  </scstep>
  <scstep>
   <time name="total">   25.64   25.84</time>
   <energy>
    <i name="e_fr_energy">   -176.06017928 </i>
    <i name="e_wo_entrp">   -176.05780065 </i>
    <i name="e_0_energy">   -176.05898996 </i>
   </energy>
  </scstep>
  <scstep>
   <time name="total">   25.88   26.09</time>
   <energy>
    <i name="e_fr_energy">   -176.06017988 </i>
    <i name="e_wo_entrp">   -176.05780118 </i>
    <i name="e_0_energy">   -176.05899053 </i>
   </energy>
  </scstep>
  <scstep>
   <time name="total">   25.77   25.98</time>
   <energy>
    <i name="e_fr_energy">   -176.06018016 </i>
    <i name="e_wo_entrp">   -176.05780131 </i>
    <i name="e_0_energy">   -176.05899073 </i>
   </energy>
  </scstep>
  <scstep>
   <time name="total">   25.53   25.73</time>
   <energy>
    <i name="e_fr_energy">   -176.06018021 </i>
    <i name="e_wo_entrp">   -176.05780124 </i>
    <i name="e_0_energy">   -176.05899073 </i>
   </energy>
  </scstep>
  <scstep>
   <time name="total">   25.33   25.53</time>
   <energy>
    <i name="e_fr_energy">   -176.06018023 </i>
    <i name="e_wo_entrp">   -176.05780117 </i>
    <i name="e_0_energy">   -176.05899070 </i>
   </energy>
  </scstep>
  <scstep>
   <time name="total">   26.06   26.26</time>
   <energy>
    <i name="e_fr_energy">   -176.06018026 </i>
    <i name="e_wo_entrp">   -176.05780106 </i>
    <i name="e_0_energy">   -176.05899066 </i>
   </energy>
  </scstep>
  <scstep>
   <time name="total">   26.06   26.26</time>
   <energy>
    <i name="e_fr_energy">   -176.06018027 </i>
    <i name="e_wo_entrp">   -176.05780104 </i>
    <i name="e_0_energy">   -176.05899066 </i>
   </energy>
  </scstep>
  <scstep>
   <time name="total">   25.71   25.91</time>
   <energy>
    <i name="e_fr_energy">   -176.06018028 </i>
    <i name="e_wo_entrp">   -176.05780096 </i>
    <i name="e_0_energy">   -176.05899062 </i>
   </energy>
  </scstep>
  <scstep>
   <time name="total">   25.73   25.94</time>
   <energy>
    <i name="e_fr_energy">   -176.06018028 </i>
    <i name="e_wo_entrp">   -176.05780093 </i>
    <i name="e_0_energy">   -176.05899061 </i>
   </energy>
  </scstep>
  <scstep>
   <time name="total">   25.75   25.95</time>
   <energy>
    <i name="e_fr_energy">   -176.06018028 </i>
    <i name="e_wo_entrp">   -176.05780088 </i>
    <i name="e_0_energy">   -176.05899058 </i>
   </energy>
  </scstep>
  <scstep>
   <time name="total">   26.18   26.39</time>
   <energy>
    <i name="e_fr_energy">   -176.06018029 </i>
    <i name="e_wo_entrp">   -176.05780087 </i>
    <i name="e_0_energy">   -176.05899058 </i>
   </energy>
  </scstep>
  <scstep>
   <time name="total">   25.19   25.40</time>
   <energy>
    <i name="e_fr_energy">   -176.06018028 </i>
    <i name="e_wo_entrp">   -176.05780085 </i>
    <i name="e_0_energy">   -176.05899057 </i>
   </energy>
  </scstep>
  <scstep>
   <time name="total">   26.11   26.32</time>
   <energy>
    <i name="e_fr_energy">   -176.06018028 </i>
    <i name="e_wo_entrp">   -176.05780085 </i>
    <i name="e_0_energy">   -176.05899057 </i>
   </energy>
  </scstep>
  <scstep>
   <time name="total">   29.60   29.84</time>
   <energy>
    <i name="alphaZ">    570.53116171 </i>
    <i name="ewald">  -8125.74628502 </i>
    <i name="hartreedc">  -3497.44594660 </i>
    <i name="XCdc">    502.64368803 </i>
    <i name="pawpsdc">  16994.79873899 </i>
    <i name="pawaedc"> -16969.99734919 </i>
    <i name="eentropy">     -0.00237944 </i>
    <i name="bandstr">  -1315.34845549 </i>
    <i name="atom">  11664.50664672 </i>
    <i name="e_fr_energy">   -176.06018028 </i>
    <i name="e_wo_entrp">   -176.05780084 </i>
    <i name="e_0_energy">   -176.05899056 </i>
   </energy>
  </scstep>
  <structure>
   <crystal>
    <varray name="basis" >
     <v>       5.28019953       0.00000000      -3.22608419 </v>
     <v>      -1.66109179       5.01211345      -3.22608419 </v>
     <v>       0.00000000       0.00000000       6.18774000 </v>
    </varray>
    <i name="volume">    163.75828592 </i>
    <varray name="rec_basis" >
     <v>       0.18938678       0.06276570       0.00000000 </v>
     <v>       0.00000000       0.19951663       0.00000000 </v>
     <v>       0.09874004       0.13674539       0.16160989 </v>
    </varray>
   </crystal>
   <varray name="positions" >
    <v>       0.00000000       0.50000000       0.00000000 </v>
    <v>       0.50000000       0.50000000       0.50000000 </v>
    <v>       0.50000000       0.00000000       0.00000000 </v>
    <v>       0.00000000       0.00000000       0.50000000 </v>
    <v>       0.00000000       0.00000000       0.00000000 </v>
    <v>       0.24812000       0.74812000       0.99625000 </v>
    <v>       0.75188000       0.25188000       0.00375000 </v>
    <v>       0.74812000       0.75188000       0.50000000 </v>
    <v>       0.25188000       0.24812000       0.50000000 </v>
    <v>       0.50000000       0.50000000       0.00000000 </v>
    <v>       0.25000000       0.25000000       0.00000000 </v>
    <v>       0.75000000       0.75000000       0.00000000 </v>
   </varray>
  </structure>
  <varray name="forces" >
   <v>       0.00000000       0.00000000       0.00000000 </v>
   <v>       0.00000000       0.00000000       0.00000000 </v>
   <v>       0.00000000       0.00000000       0.00000000 </v>
   <v>       0.00000000       0.00000000       0.00000000 </v>
   <v>       0.00000000       0.00000000       0.00000000 </v>
   <v>       0.00000000       0.00000000       0.00000000 </v>
   <v>       0.00000000       0.00000000       0.00000000 </v>
   <v>       0.00000000       0.00000000       0.00000000 </v>
   <v>       0.00000000       0.00000000       0.00000000 </v>
   <v>       0.00000000       0.00000000       0.00000000 </v>
   <v>       0.00000000       0.00000000       0.00000000 </v>
   <v>       0.00000000       0.00000000       0.00000000 </v>
  </varray>
  <varray name="stress" >
   <v>       0.00000000       0.00000000       0.00000000 </v>
   <v>       0.00000000       0.00000000       0.00000000 </v>
   <v>       0.00000000       0.00000000       0.00000000 </v>
  </varray>
  <energy>
   <i name="e_fr_energy">   -176.06018028 </i>
   <i name="e_wo_entrp">   -176.05780084 </i>
   <i name="e_0_energy">   -176.05899056 </i>
  </energy>
  <time name="totalsc">  941.11  948.87</time>
  <eigenvalues>
   <array>
    <dimension dim="1">band</dimension>
    <dimension dim="2">kpoint</dimension>
    <dimension dim="3">spin</dimension>
    <field>eigene</field>
    <field>occ</field>
    <set>
     <set comment="spin 1">
      <set comment="kpoint 1">
       <r>  -54.2026    1.0000 </r>
       <r>  -53.3071    1.0000 </r>
       <r>  -53.3041    1.0000 </r>
       <r>  -53.2360    1.0000 </r>
       <r>  -53.2285    1.0000 </r>
       <r>  -52.2171    1.0000 </r>
       <r>  -30.2453    1.0000 </r>
       <r>  -30.2452    1.0000 </r>
       <r>  -27.4297    1.0000 </r>
       <r>  -27.3886    1.0000 </r>
       <r>  -27.3577    1.0000 </r>
       <r>  -27.2096    1.0000 </r>
       <r>  -27.2085    1.0000 </r>
       <r>  -26.7567    1.0000 </r>
       <r>  -26.7235    1.0000 </r>
       <r>  -26.6378    1.0000 </r>
       <r>  -26.6353    1.0000 </r>
       <r>  -26.5799    1.0000 </r>
       <r>  -26.4636    1.0000 </r>
       <r>  -26.4582    1.0000 </r>
       <r>  -26.2667    1.0000 </r>
       <r>  -25.9544    1.0000 </r>
       <r>  -23.8118    1.0000 </r>
       <r>  -23.8110    1.0000 </r>
       <r>   -3.1449    1.0000 </r>
       <r>   -0.2947    1.0000 </r>
       <r>    1.3857    1.0000 </r>
       <r>    1.3868    1.0000 </r>
       <r>    2.2774    1.0000 </r>
       <r>    3.0101    1.0000 </r>
       <r>    3.3534    1.0000 </r>
       <r>    3.7835    1.0000 </r>
       <r>    3.7844    1.0000 </r>
       <r>    4.3208    1.0000 </r>
       <r>    4.4610    1.0000 </r>
       <r>    4.6291    1.0000 </r>
       <r>    4.6298    1.0000 </r>
       <r>    4.9679    1.0000 </r>
       <r>    5.2120    1.0000 </r>
       <r>    5.2121    1.0000 </r>
       <r>    6.1417    1.0000 </r>
       <r>    6.5159    1.0000 </r>
       <r>    6.6897    1.0000 </r>
       <r>    6.8610    1.0000 </r>
       <r>    6.9913    1.0000 </r>
       <r>    6.9928    1.0000 </r>
       <r>    7.8471    1.0000 </r>
       <r>    8.8487    1.0000 </r>
       <r>    8.8502    1.0000 </r>
       <r>    9.1331    1.0000 </r>
       <r>    9.8719    0.0000 </r>
       <r>    9.8761    0.0000 </r>
       <r>   10.0496    0.0000 </r>
       <r>   10.2223    0.0000 </r>
       <r>   10.3796    0.0000 </r>
       <r>   10.3806    0.0000 </r>
       <r>   11.0957    0.0000 </r>
       <r>   11.6409    0.0000 </r>
       <r>   11.9377    0.0000 </r>
       <r>   11.9392    0.0000 </r>
       <r>   11.9623    0.0000 </r>
       <r>   12.0411    0.0000 </r>
       <r>   12.5313    0.0000 </r>
       <r>   13.0993    0.0000 </r>
       <r>   13.2270    0.0000 </r>
       <r>   14.1062    0.0000 </r>
      </set>
      <set comment="kpoint 2">
       <r>  -54.1803    1.0000 </r>
       <r>  -53.4870    1.0000 </r>
       <r>  -53.3022    1.0000 </r>
       <r>  -53.2395    1.0000 </r>
       <r>  -53.0415    1.0000 </r>
       <r>  -52.2452    1.0000 </r>
       <r>  -30.1757    1.0000 </r>
       <r>  -30.1747    1.0000 </r>
       <r>  -28.0091    1.0000 </r>
       <r>  -27.9877    1.0000 </r>
       <r>  -27.3416    1.0000 </r>
       <r>  -26.8416    1.0000 </r>
       <r>  -26.7699    1.0000 </r>
       <r>  -26.6337    1.0000 </r>
       <r>  -26.6236    1.0000 </r>
       <r>  -26.5827    1.0000 </r>
       <r>  -26.5594    1.0000 </r>
       <r>  -26.5161    1.0000 </r>
       <r>  -26.4757    1.0000 </r>
       <r>  -26.4504    1.0000 </r>
       <r>  -26.2567    1.0000 </r>
       <r>  -25.9729    1.0000 </r>
       <r>  -23.9107    1.0000 </r>
       <r>  -23.9096    1.0000 </r>
       <r>   -3.0349    1.0000 </r>
       <r>   -0.4702    1.0000 </r>
       <r>    1.3641    1.0000 </r>
       <r>    1.4011    1.0000 </r>
       <r>    2.3999    1.0000 </r>
       <r>    2.6890    1.0000 </r>
       <r>    3.4536    1.0000 </r>
       <r>    3.5174    1.0000 </r>
       <r>    3.7195    1.0000 </r>
       <r>    4.1637    1.0000 </r>
       <r>    4.4318    1.0000 </r>
       <r>    4.8658    1.0000 </r>
       <r>    5.1358    1.0000 </r>
       <r>    5.3157    1.0000 </r>
       <r>    5.3251    1.0000 </r>
       <r>    5.5049    1.0000 </r>
       <r>    6.0776    1.0000 </r>
       <r>    6.2212    1.0000 </r>
       <r>    6.5162    1.0000 </r>
       <r>    6.9570    1.0000 </r>
       <r>    7.1255    1.0000 </r>
       <r>    7.3817    1.0000 </r>
       <r>    7.5927    1.0000 </r>
       <r>    8.4693    1.0000 </r>
       <r>    8.7901    1.0000 </r>
       <r>    9.4441    0.0000 </r>
       <r>    9.6437    0.0000 </r>
       <r>    9.6764    0.0000 </r>
       <r>    9.8022    0.0000 </r>
       <r>    9.9187    0.0000 </r>
       <r>   10.0399    0.0000 </r>
       <r>   10.6884    0.0000 </r>
       <r>   11.4925    0.0000 </r>
       <r>   11.5447    0.0000 </r>
       <r>   11.6799    0.0000 </r>
       <r>   11.7381    0.0000 </r>
       <r>   11.7404    0.0000 </r>
       <r>   12.2660    0.0000 </r>
       <r>   12.8879    0.0000 </r>
       <r>   13.0406    0.0000 </r>
       <r>   13.4197    0.0000 </r>
       <r>   13.9520    0.0000 </r>
      </set>
      <set comment="kpoint 3">
       <r>  -54.1142    1.0000 </r>
       <r>  -53.6863    1.0000 </r>
       <r>  -53.2926    1.0000 </r>
       <r>  -53.2492    1.0000 </r>
       <r>  -52.8265    1.0000 </r>
       <r>  -52.3273    1.0000 </r>
       <r>  -29.9696    1.0000 </r>
       <r>  -29.9659    1.0000 </r>
       <r>  -28.6341    1.0000 </r>
       <r>  -28.6176    1.0000 </r>
       <r>  -27.2938    1.0000 </r>
       <r>  -26.9841    1.0000 </r>
       <r>  -26.7154    1.0000 </r>
       <r>  -26.6257    1.0000 </r>
       <r>  -26.5904    1.0000 </r>
       <r>  -26.5215    1.0000 </r>
       <r>  -26.4307    1.0000 </r>
       <r>  -26.3670    1.0000 </r>
       <r>  -26.3412    1.0000 </r>
       <r>  -26.0273    1.0000 </r>
       <r>  -25.8696    1.0000 </r>
       <r>  -25.8630    1.0000 </r>
       <r>  -24.1981    1.0000 </r>
       <r>  -24.1954    1.0000 </r>
       <r>   -2.7139    1.0000 </r>
       <r>   -0.9528    1.0000 </r>
       <r>    1.3482    1.0000 </r>
       <r>    1.5131    1.0000 </r>
       <r>    2.1200    1.0000 </r>
       <r>    2.7368    1.0000 </r>
       <r>    2.8378    1.0000 </r>
       <r>    3.9119    1.0000 </r>
       <r>    4.0514    1.0000 </r>
       <r>    4.1224    1.0000 </r>
       <r>    4.6351    1.0000 </r>
       <r>    4.9109    1.0000 </r>
       <r>    5.2417    1.0000 </r>
       <r>    5.3093    1.0000 </r>
       <r>    5.7584    1.0000 </r>
       <r>    5.7885    1.0000 </r>
       <r>    5.8842    1.0000 </r>
       <r>    6.5470    1.0000 </r>
       <r>    6.8623    1.0000 </r>
       <r>    7.0357    1.0000 </r>
       <r>    7.3694    1.0000 </r>
       <r>    7.6317    1.0000 </r>
       <r>    7.7274    1.0000 </r>
       <r>    7.8195    1.0000 </r>
       <r>    8.4595    1.0000 </r>
       <r>    8.8175    1.0000 </r>
       <r>    8.9936    1.0000 </r>
       <r>    9.5335    0.0000 </r>
       <r>    9.8222    0.0000 </r>
       <r>    9.9616    0.0000 </r>
       <r>   10.2693    0.0000 </r>
       <r>   10.6530    0.0000 </r>
       <r>   10.6726    0.0000 </r>
       <r>   11.4403    0.0000 </r>
       <r>   11.4437    0.0000 </r>
       <r>   11.6424    0.0000 </r>
       <r>   12.1146    0.0000 </r>
       <r>   12.6941    0.0000 </r>
       <r>   12.7464    0.0000 </r>
       <r>   12.9229    0.0000 </r>
       <r>   13.7219    0.0000 </r>
       <r>   13.7749    0.0000 </r>
      </set>
      <set comment="kpoint 4">
       <r>  -54.0069    1.0000 </r>
       <r>  -53.8623    1.0000 </r>
       <r>  -53.2787    1.0000 </r>
       <r>  -53.2632    1.0000 </r>
       <r>  -52.6278    1.0000 </r>
       <r>  -52.4578    1.0000 </r>
       <r>  -29.6347    1.0000 </r>
       <r>  -29.6272    1.0000 </r>
       <r>  -29.1838    1.0000 </r>
       <r>  -29.1718    1.0000 </r>
       <r>  -27.2161    1.0000 </r>
       <r>  -27.1113    1.0000 </r>
       <r>  -26.6530    1.0000 </r>
       <r>  -26.6143    1.0000 </r>
       <r>  -26.6017    1.0000 </r>
       <r>  -26.5840    1.0000 </r>
       <r>  -26.3974    1.0000 </r>
       <r>  -26.3620    1.0000 </r>
       <r>  -26.2302    1.0000 </r>
       <r>  -26.1147    1.0000 </r>
       <r>  -25.2191    1.0000 </r>
       <r>  -25.2144    1.0000 </r>
       <r>  -24.6471    1.0000 </r>
       <r>  -24.6425    1.0000 </r>
       <r>   -2.2122    1.0000 </r>
       <r>   -1.5893    1.0000 </r>
       <r>    1.4315    1.0000 </r>
       <r>    1.6811    1.0000 </r>
       <r>    1.7869    1.0000 </r>
       <r>    2.2262    1.0000 </r>
       <r>    3.3351    1.0000 </r>
       <r>    4.0698    1.0000 </r>
       <r>    4.3354    1.0000 </r>
       <r>    4.3706    1.0000 </r>
       <r>    4.7195    1.0000 </r>
       <r>    4.8675    1.0000 </r>
       <r>    4.8676    1.0000 </r>
       <r>    5.2527    1.0000 </r>
       <r>    5.5578    1.0000 </r>
       <r>    5.9507    1.0000 </r>
       <r>    6.1961    1.0000 </r>
       <r>    6.5471    1.0000 </r>
       <r>    7.0728    1.0000 </r>
       <r>    7.1812    1.0000 </r>
       <r>    7.7821    1.0000 </r>
       <r>    7.7970    1.0000 </r>
       <r>    7.8908    1.0000 </r>
       <r>    7.9540    1.0000 </r>
       <r>    8.1336    1.0000 </r>
       <r>    8.6888    1.0000 </r>
       <r>    9.0234    1.0000 </r>
       <r>    9.2096    1.0000 </r>
       <r>    9.6959    0.0000 </r>
       <r>    9.7700    0.0000 </r>
       <r>    9.7754    0.0000 </r>
       <r>    9.7912    0.0000 </r>
       <r>   11.1285    0.0000 </r>
       <r>   11.2345    0.0000 </r>
       <r>   11.4222    0.0000 </r>
       <r>   11.9271    0.0000 </r>
       <r>   12.2942    0.0000 </r>
       <r>   12.4555    0.0000 </r>
       <r>   13.0764    0.0000 </r>
       <r>   13.1169    0.0000 </r>
       <r>   13.2377    0.0000 </r>
       <r>   13.4254    0.0000 </r>
      </set>
      <set comment="kpoint 5">
       <r>  -54.1594    1.0000 </r>
       <r>  -53.5624    1.0000 </r>
       <r>  -53.3071    1.0000 </r>
       <r>  -53.2431    1.0000 </r>
       <r>  -52.9531    1.0000 </r>
       <r>  -52.2706    1.0000 </r>
       <r>  -30.2382    1.0000 </r>
       <r>  -29.9750    1.0000 </r>
       <r>  -28.6156    1.0000 </r>
       <r>  -27.4096    1.0000 </r>
       <r>  -27.3283    1.0000 </r>
       <r>  -27.2671    1.0000 </r>
       <r>  -26.8942    1.0000 </r>
       <r>  -26.6946    1.0000 </r>
       <r>  -26.6374    1.0000 </r>
       <r>  -26.5857    1.0000 </r>
       <r>  -26.4701    1.0000 </r>
       <r>  -26.4680    1.0000 </r>
       <r>  -26.4525    1.0000 </r>
       <r>  -26.2635    1.0000 </r>
       <r>  -25.9903    1.0000 </r>
       <r>  -25.9004    1.0000 </r>
       <r>  -24.1904    1.0000 </r>
       <r>  -23.8164    1.0000 </r>
       <r>   -2.8291    1.0000 </r>
       <r>   -0.7374    1.0000 </r>
       <r>    1.0957    1.0000 </r>
       <r>    1.5316    1.0000 </r>
       <r>    2.2940    1.0000 </r>
       <r>    2.5230    1.0000 </r>
       <r>    3.0982    1.0000 </r>
       <r>    3.5971    1.0000 </r>
       <r>    3.7258    1.0000 </r>
       <r>    4.3517    1.0000 </r>
       <r>    4.7065    1.0000 </r>
       <r>    5.1340    1.0000 </r>
       <r>    5.4419    1.0000 </r>
       <r>    5.5788    1.0000 </r>
       <r>    5.6029    1.0000 </r>
       <r>    5.6718    1.0000 </r>
       <r>    5.7046    1.0000 </r>
       <r>    5.8567    1.0000 </r>
       <r>    6.7394    1.0000 </r>
       <r>    7.0476    1.0000 </r>
       <r>    7.4709    1.0000 </r>
       <r>    7.5016    1.0000 </r>
       <r>    7.8177    1.0000 </r>
       <r>    7.9157    1.0000 </r>
       <r>    8.9899    1.0000 </r>
       <r>    9.0475    1.0000 </r>
       <r>    9.3722    0.8302 </r>
       <r>    9.4475    0.0000 </r>
       <r>    9.9170    0.0000 </r>
       <r>   10.0575    0.0000 </r>
       <r>   10.3878    0.0000 </r>
       <r>   10.3889    0.0000 </r>
       <r>   11.1798    0.0000 </r>
       <r>   11.2502    0.0000 </r>
       <r>   11.3063    0.0000 </r>
       <r>   11.8110    0.0000 </r>
       <r>   12.1622    0.0000 </r>
       <r>   12.2506    0.0000 </r>
       <r>   12.4421    0.0000 </r>
       <r>   13.0762    0.0000 </r>
       <r>   13.1287    0.0000 </r>
       <r>   13.8469    0.0000 </r>
      </set>
      <set comment="kpoint 6">
       <r>  -54.0977    1.0000 </r>
       <r>  -53.7132    1.0000 </r>
       <r>  -53.3007    1.0000 </r>
       <r>  -53.2536    1.0000 </r>
       <r>  -52.7859    1.0000 </r>
       <r>  -52.3449    1.0000 </r>
       <r>  -30.1623    1.0000 </r>
       <r>  -29.6450    1.0000 </r>
       <r>  -29.1620    1.0000 </r>
       <r>  -28.0218    1.0000 </r>
       <r>  -27.2850    1.0000 </r>
       <r>  -27.0009    1.0000 </r>
       <r>  -26.8029    1.0000 </r>
       <r>  -26.6319    1.0000 </r>
       <r>  -26.5942    1.0000 </r>
       <r>  -26.5515    1.0000 </r>
       <r>  -26.5120    1.0000 </r>
       <r>  -26.4464    1.0000 </r>
       <r>  -26.3360    1.0000 </r>
       <r>  -26.2262    1.0000 </r>
       <r>  -26.0402    1.0000 </r>
       <r>  -25.2420    1.0000 </r>
       <r>  -24.6293    1.0000 </r>
       <r>  -23.9200    1.0000 </r>
       <r>   -2.4321    1.0000 </r>
       <r>   -1.2453    1.0000 </r>
       <r>    0.9429    1.0000 </r>
       <r>    1.7647    1.0000 </r>
       <r>    1.7899    1.0000 </r>
       <r>    2.6824    1.0000 </r>
       <r>    2.8796    1.0000 </r>
       <r>    3.8948    1.0000 </r>
       <r>    4.0640    1.0000 </r>
       <r>    4.5920    1.0000 </r>
       <r>    4.6858    1.0000 </r>
       <r>    4.8105    1.0000 </r>
       <r>    5.2341    1.0000 </r>
       <r>    5.4087    1.0000 </r>
       <r>    5.5946    1.0000 </r>
       <r>    5.8783    1.0000 </r>
       <r>    6.2131    1.0000 </r>
       <r>    6.5285    1.0000 </r>
       <r>    6.8164    1.0000 </r>
       <r>    6.9873    1.0000 </r>
       <r>    7.3788    1.0000 </r>
       <r>    7.8881    1.0000 </r>
       <r>    7.9357    1.0000 </r>
       <r>    8.3382    1.0000 </r>
       <r>    8.7790    1.0000 </r>
       <r>    8.9177    1.0000 </r>
       <r>    8.9701    1.0000 </r>
       <r>    9.3750    0.7756 </r>
       <r>    9.4414    0.0000 </r>
       <r>    9.7503    0.0000 </r>
       <r>   10.0503    0.0000 </r>
       <r>   10.4234    0.0000 </r>
       <r>   10.7887    0.0000 </r>
       <r>   11.0091    0.0000 </r>
       <r>   11.3483    0.0000 </r>
       <r>   11.7544    0.0000 </r>
       <r>   12.1948    0.0000 </r>
       <r>   12.2110    0.0000 </r>
       <r>   12.5969    0.0000 </r>
       <r>   12.7005    0.0000 </r>
       <r>   13.3252    0.0000 </r>
       <r>   13.5162    0.0000 </r>
      </set>
      <set comment="kpoint 7">
       <r>  -53.9983    1.0000 </r>
       <r>  -53.8664    1.0000 </r>
       <r>  -53.2865    1.0000 </r>
       <r>  -53.2687    1.0000 </r>
       <r>  -52.6139    1.0000 </r>
       <r>  -52.4626    1.0000 </r>
       <r>  -29.9510    1.0000 </r>
       <r>  -29.6134    1.0000 </r>
       <r>  -29.1973    1.0000 </r>
       <r>  -28.6490    1.0000 </r>
       <r>  -27.2137    1.0000 </r>
       <r>  -27.1106    1.0000 </r>
       <r>  -26.6582    1.0000 </r>
       <r>  -26.6202    1.0000 </r>
       <r>  -26.6064    1.0000 </r>
       <r>  -26.5791    1.0000 </r>
       <r>  -26.4178    1.0000 </r>
       <r>  -26.4019    1.0000 </r>
       <r>  -26.2179    1.0000 </r>
       <r>  -26.1193    1.0000 </r>
       <r>  -25.8014    1.0000 </r>
       <r>  -25.1866    1.0000 </r>
       <r>  -24.6647    1.0000 </r>
       <r>  -24.2112    1.0000 </r>
       <r>   -1.8915    1.0000 </r>
       <r>   -1.8496    1.0000 </r>
       <r>    1.0056    1.0000 </r>
       <r>    1.4030    1.0000 </r>
       <r>    2.1995    1.0000 </r>
       <r>    2.3027    1.0000 </r>
       <r>    3.4295    1.0000 </r>
       <r>    4.0709    1.0000 </r>
       <r>    4.0912    1.0000 </r>
       <r>    4.5107    1.0000 </r>
       <r>    4.6392    1.0000 </r>
       <r>    4.7575    1.0000 </r>
       <r>    4.8839    1.0000 </r>
       <r>    5.4243    1.0000 </r>
       <r>    5.5320    1.0000 </r>
       <r>    5.6744    1.0000 </r>
       <r>    6.6140    1.0000 </r>
       <r>    6.8039    1.0000 </r>
       <r>    7.2204    1.0000 </r>
       <r>    7.6356    1.0000 </r>
       <r>    7.6800    1.0000 </r>
       <r>    7.7810    1.0000 </r>
       <r>    7.9175    1.0000 </r>
       <r>    8.0778    1.0000 </r>
       <r>    8.1738    1.0000 </r>
       <r>    8.5213    1.0000 </r>
       <r>    9.1111    1.0000 </r>
       <r>    9.2423    1.0000 </r>
       <r>    9.3968    0.2173 </r>
       <r>    9.6404    0.0000 </r>
       <r>    9.7641    0.0000 </r>
       <r>    9.9054    0.0000 </r>
       <r>   10.7838    0.0000 </r>
       <r>   11.1805    0.0000 </r>
       <r>   11.2153    0.0000 </r>
       <r>   11.7315    0.0000 </r>
       <r>   11.8709    0.0000 </r>
       <r>   12.4631    0.0000 </r>
       <r>   12.8831    0.0000 </r>
       <r>   12.9629    0.0000 </r>
       <r>   13.1801    0.0000 </r>
       <r>   13.4856    0.0000 </r>
      </set>
      <set comment="kpoint 8">
       <r>  -53.9980    1.0000 </r>
       <r>  -53.8670    1.0000 </r>
       <r>  -53.2849    1.0000 </r>
       <r>  -53.2697    1.0000 </r>
       <r>  -52.6145    1.0000 </r>
       <r>  -52.4623    1.0000 </r>
       <r>  -29.9515    1.0000 </r>
       <r>  -29.6130    1.0000 </r>
       <r>  -29.1974    1.0000 </r>
       <r>  -28.6489    1.0000 </r>
       <r>  -27.2058    1.0000 </r>
       <r>  -27.1185    1.0000 </r>
       <r>  -26.6585    1.0000 </r>
       <r>  -26.6198    1.0000 </r>
       <r>  -26.6066    1.0000 </r>
       <r>  -26.5792    1.0000 </r>
       <r>  -26.4185    1.0000 </r>
       <r>  -26.4003    1.0000 </r>
       <r>  -26.2222    1.0000 </r>
       <r>  -26.1155    1.0000 </r>
       <r>  -25.8024    1.0000 </r>
       <r>  -25.1859    1.0000 </r>
       <r>  -24.6641    1.0000 </r>
       <r>  -24.2119    1.0000 </r>
       <r>   -2.4017    1.0000 </r>
       <r>   -1.2948    1.0000 </r>
       <r>    1.2254    1.0000 </r>
       <r>    1.2880    1.0000 </r>
       <r>    2.0161    1.0000 </r>
       <r>    2.7655    1.0000 </r>
       <r>    3.4051    1.0000 </r>
       <r>    3.7671    1.0000 </r>
       <r>    4.1391    1.0000 </r>
       <r>    4.3555    1.0000 </r>
       <r>    4.4949    1.0000 </r>
       <r>    4.8686    1.0000 </r>
       <r>    5.0356    1.0000 </r>
       <r>    5.4546    1.0000 </r>
       <r>    5.7009    1.0000 </r>
       <r>    5.8880    1.0000 </r>
       <r>    6.5279    1.0000 </r>
       <r>    6.5492    1.0000 </r>
       <r>    6.9417    1.0000 </r>
       <r>    7.1295    1.0000 </r>
       <r>    7.2357    1.0000 </r>
       <r>    7.5118    1.0000 </r>
       <r>    8.0742    1.0000 </r>
       <r>    8.2172    1.0000 </r>
       <r>    8.3941    1.0000 </r>
       <r>    8.7633    1.0000 </r>
       <r>    8.9869    1.0000 </r>
       <r>    9.4400    0.0001 </r>
       <r>    9.4489    0.0000 </r>
       <r>    9.5510    0.0000 </r>
       <r>    9.8383    0.0000 </r>
       <r>   10.0089    0.0000 </r>
       <r>   10.8274    0.0000 </r>
       <r>   11.2532    0.0000 </r>
       <r>   11.3154    0.0000 </r>
       <r>   12.0534    0.0000 </r>
       <r>   12.1500    0.0000 </r>
       <r>   12.2388    0.0000 </r>
       <r>   12.8461    0.0000 </r>
       <r>   13.2200    0.0000 </r>
       <r>   13.3935    0.0000 </r>
       <r>   13.5766    0.0000 </r>
      </set>
      <set comment="kpoint 9">
       <r>  -54.0975    1.0000 </r>
       <r>  -53.7143    1.0000 </r>
       <r>  -53.2984    1.0000 </r>
       <r>  -53.2542    1.0000 </r>
       <r>  -52.7868    1.0000 </r>
       <r>  -52.3447    1.0000 </r>
       <r>  -30.1627    1.0000 </r>
       <r>  -29.6451    1.0000 </r>
       <r>  -29.1617    1.0000 </r>
       <r>  -28.0218    1.0000 </r>
       <r>  -27.2785    1.0000 </r>
       <r>  -27.0074    1.0000 </r>
       <r>  -26.8041    1.0000 </r>
       <r>  -26.6308    1.0000 </r>
       <r>  -26.5942    1.0000 </r>
       <r>  -26.5484    1.0000 </r>
       <r>  -26.5125    1.0000 </r>
       <r>  -26.4465    1.0000 </r>
       <r>  -26.3401    1.0000 </r>
       <r>  -26.2279    1.0000 </r>
       <r>  -26.0374    1.0000 </r>
       <r>  -25.2414    1.0000 </r>
       <r>  -24.6287    1.0000 </r>
       <r>  -23.9207    1.0000 </r>
       <r>   -2.8107    1.0000 </r>
       <r>   -0.7790    1.0000 </r>
       <r>    1.2030    1.0000 </r>
       <r>    1.7640    1.0000 </r>
       <r>    1.8192    1.0000 </r>
       <r>    2.8549    1.0000 </r>
       <r>    3.4598    1.0000 </r>
       <r>    3.7020    1.0000 </r>
       <r>    3.9335    1.0000 </r>
       <r>    4.1079    1.0000 </r>
       <r>    4.4711    1.0000 </r>
       <r>    4.8831    1.0000 </r>
       <r>    5.3432    1.0000 </r>
       <r>    5.4857    1.0000 </r>
       <r>    5.7846    1.0000 </r>
       <r>    5.8033    1.0000 </r>
       <r>    5.9781    1.0000 </r>
       <r>    6.3210    1.0000 </r>
       <r>    6.5479    1.0000 </r>
       <r>    6.8057    1.0000 </r>
       <r>    6.9137    1.0000 </r>
       <r>    7.4895    1.0000 </r>
       <r>    7.8916    1.0000 </r>
       <r>    7.9978    1.0000 </r>
       <r>    8.3144    1.0000 </r>
       <r>    9.3208    1.0000 </r>
       <r>    9.3399    0.9994 </r>
       <r>    9.5156    0.0000 </r>
       <r>    9.7670    0.0000 </r>
       <r>    9.8776    0.0000 </r>
       <r>   10.3864    0.0000 </r>
       <r>   10.5596    0.0000 </r>
       <r>   11.0685    0.0000 </r>
       <r>   11.1333    0.0000 </r>
       <r>   11.2852    0.0000 </r>
       <r>   11.9704    0.0000 </r>
       <r>   12.1474    0.0000 </r>
       <r>   12.3163    0.0000 </r>
       <r>   12.5690    0.0000 </r>
       <r>   13.0141    0.0000 </r>
       <r>   13.1288    0.0000 </r>
       <r>   13.6417    0.0000 </r>
      </set>
      <set comment="kpoint 10">
       <r>  -54.1594    1.0000 </r>
       <r>  -53.5640    1.0000 </r>
       <r>  -53.3041    1.0000 </r>
       <r>  -53.2434    1.0000 </r>
       <r>  -52.9543    1.0000 </r>
       <r>  -52.2705    1.0000 </r>
       <r>  -30.2384    1.0000 </r>
       <r>  -29.9751    1.0000 </r>
       <r>  -28.6153    1.0000 </r>
       <r>  -27.4089    1.0000 </r>
       <r>  -27.3246    1.0000 </r>
       <r>  -27.2685    1.0000 </r>
       <r>  -26.8983    1.0000 </r>
       <r>  -26.6935    1.0000 </r>
       <r>  -26.6355    1.0000 </r>
       <r>  -26.5857    1.0000 </r>
       <r>  -26.4735    1.0000 </r>
       <r>  -26.4648    1.0000 </r>
       <r>  -26.4556    1.0000 </r>
       <r>  -26.2640    1.0000 </r>
       <r>  -25.9888    1.0000 </r>
       <r>  -25.8998    1.0000 </r>
       <r>  -24.1897    1.0000 </r>
       <r>  -23.8172    1.0000 </r>
       <r>   -3.0287    1.0000 </r>
       <r>   -0.4854    1.0000 </r>
       <r>    1.2768    1.0000 </r>
       <r>    1.6387    1.0000 </r>
       <r>    2.3405    1.0000 </r>
       <r>    2.5148    1.0000 </r>
       <r>    3.6154    1.0000 </r>
       <r>    3.8189    1.0000 </r>
       <r>    3.9003    1.0000 </r>
       <r>    4.0293    1.0000 </r>
       <r>    4.4182    1.0000 </r>
       <r>    4.6955    1.0000 </r>
       <r>    5.0755    1.0000 </r>
       <r>    5.1536    1.0000 </r>
       <r>    5.2892    1.0000 </r>
       <r>    5.7658    1.0000 </r>
       <r>    5.7888    1.0000 </r>
       <r>    6.5357    1.0000 </r>
       <r>    6.6388    1.0000 </r>
       <r>    6.9687    1.0000 </r>
       <r>    7.0799    1.0000 </r>
       <r>    7.1814    1.0000 </r>
       <r>    7.8267    1.0000 </r>
       <r>    7.8897    1.0000 </r>
       <r>    8.7568    1.0000 </r>
       <r>    8.7664    1.0000 </r>
       <r>    9.7532    0.0000 </r>
       <r>    9.8276    0.0000 </r>
       <r>    9.9363    0.0000 </r>
       <r>   10.4021    0.0000 </r>
       <r>   10.5087    0.0000 </r>
       <r>   11.0041    0.0000 </r>
       <r>   11.0053    0.0000 </r>
       <r>   11.1237    0.0000 </r>
       <r>   11.6509    0.0000 </r>
       <r>   11.7952    0.0000 </r>
       <r>   11.9441    0.0000 </r>
       <r>   12.1233    0.0000 </r>
       <r>   12.7362    0.0000 </r>
       <r>   12.7610    0.0000 </r>
       <r>   13.0119    0.0000 </r>
       <r>   13.2392    0.0000 </r>
      </set>
      <set comment="kpoint 11">
       <r>  -54.0495    1.0000 </r>
       <r>  -53.7860    1.0000 </r>
       <r>  -53.3072    1.0000 </r>
       <r>  -53.2662    1.0000 </r>
       <r>  -52.6908    1.0000 </r>
       <r>  -52.3964    1.0000 </r>
       <r>  -30.2223    1.0000 </r>
       <r>  -29.6054    1.0000 </r>
       <r>  -29.2059    1.0000 </r>
       <r>  -27.4103    1.0000 </r>
       <r>  -27.3660    1.0000 </r>
       <r>  -27.2525    1.0000 </r>
       <r>  -27.0512    1.0000 </r>
       <r>  -26.6366    1.0000 </r>
       <r>  -26.6045    1.0000 </r>
       <r>  -26.5888    1.0000 </r>
       <r>  -26.5037    1.0000 </r>
       <r>  -26.4875    1.0000 </r>
       <r>  -26.2682    1.0000 </r>
       <r>  -26.2555    1.0000 </r>
       <r>  -26.0752    1.0000 </r>
       <r>  -25.1732    1.0000 </r>
       <r>  -24.6735    1.0000 </r>
       <r>  -23.8284    1.0000 </r>
       <r>   -2.0024    1.0000 </r>
       <r>   -1.6239    1.0000 </r>
       <r>    0.6005    1.0000 </r>
       <r>    1.3468    1.0000 </r>
       <r>    2.2615    1.0000 </r>
       <r>    2.5172    1.0000 </r>
       <r>    3.1936    1.0000 </r>
       <r>    3.7800    1.0000 </r>
       <r>    4.2118    1.0000 </r>
       <r>    4.4695    1.0000 </r>
       <r>    4.5705    1.0000 </r>
       <r>    4.8400    1.0000 </r>
       <r>    5.0125    1.0000 </r>
       <r>    5.6552    1.0000 </r>
       <r>    5.6579    1.0000 </r>
       <r>    5.9344    1.0000 </r>
       <r>    6.5750    1.0000 </r>
       <r>    6.7908    1.0000 </r>
       <r>    7.2333    1.0000 </r>
       <r>    7.3073    1.0000 </r>
       <r>    7.3172    1.0000 </r>
       <r>    7.8921    1.0000 </r>
       <r>    8.0053    1.0000 </r>
       <r>    8.3786    1.0000 </r>
       <r>    8.4131    1.0000 </r>
       <r>    8.8416    1.0000 </r>
       <r>    8.9156    1.0000 </r>
       <r>    9.4933    0.0000 </r>
       <r>    9.6662    0.0000 </r>
       <r>    9.7740    0.0000 </r>
       <r>    9.7855    0.0000 </r>
       <r>   10.0335    0.0000 </r>
       <r>   10.5815    0.0000 </r>
       <r>   10.9092    0.0000 </r>
       <r>   11.0206    0.0000 </r>
       <r>   11.0827    0.0000 </r>
       <r>   11.9810    0.0000 </r>
       <r>   12.6565    0.0000 </r>
       <r>   12.7378    0.0000 </r>
       <r>   12.7764    0.0000 </r>
       <r>   13.0468    0.0000 </r>
       <r>   13.4938    0.0000 </r>
      </set>
      <set comment="kpoint 12">
       <r>  -53.9744    1.0000 </r>
       <r>  -53.8807    1.0000 </r>
       <r>  -53.3006    1.0000 </r>
       <r>  -53.2830    1.0000 </r>
       <r>  -52.5797    1.0000 </r>
       <r>  -52.4775    1.0000 </r>
       <r>  -30.1461    1.0000 </r>
       <r>  -29.9381    1.0000 </r>
       <r>  -28.6670    1.0000 </r>
       <r>  -28.0505    1.0000 </r>
       <r>  -27.1993    1.0000 </r>
       <r>  -27.1180    1.0000 </r>
       <r>  -26.8388    1.0000 </r>
       <r>  -26.6310    1.0000 </r>
       <r>  -26.6183    1.0000 </r>
       <r>  -26.5928    1.0000 </r>
       <r>  -26.5193    1.0000 </r>
       <r>  -26.4775    1.0000 </r>
       <r>  -26.1918    1.0000 </r>
       <r>  -26.1753    1.0000 </r>
       <r>  -26.1297    1.0000 </r>
       <r>  -25.7578    1.0000 </r>
       <r>  -24.2237    1.0000 </r>
       <r>  -23.9325    1.0000 </r>
       <r>   -2.0521    1.0000 </r>
       <r>   -1.5011    1.0000 </r>
       <r>    0.5301    1.0000 </r>
       <r>    1.0985    1.0000 </r>
       <r>    2.3251    1.0000 </r>
       <r>    2.8682    1.0000 </r>
       <r>    3.5143    1.0000 </r>
       <r>    3.6663    1.0000 </r>
       <r>    4.1188    1.0000 </r>
       <r>    4.2651    1.0000 </r>
       <r>    4.5042    1.0000 </r>
       <r>    4.6471    1.0000 </r>
       <r>    4.9555    1.0000 </r>
       <r>    5.4792    1.0000 </r>
       <r>    5.8135    1.0000 </r>
       <r>    6.0360    1.0000 </r>
       <r>    6.9258    1.0000 </r>
       <r>    7.1041    1.0000 </r>
       <r>    7.1652    1.0000 </r>
       <r>    7.4076    1.0000 </r>
       <r>    7.5414    1.0000 </r>
       <r>    8.0959    1.0000 </r>
       <r>    8.1406    1.0000 </r>
       <r>    8.1761    1.0000 </r>
       <r>    8.3714    1.0000 </r>
       <r>    8.7757    1.0000 </r>
       <r>    8.9704    1.0000 </r>
       <r>    9.0352    1.0000 </r>
       <r>    9.2091    1.0000 </r>
       <r>    9.2748    1.0000 </r>
       <r>    9.8904    0.0000 </r>
       <r>   10.0046    0.0000 </r>
       <r>   10.6526    0.0000 </r>
       <r>   10.9390    0.0000 </r>
       <r>   11.0987    0.0000 </r>
       <r>   11.1624    0.0000 </r>
       <r>   11.2389    0.0000 </r>
       <r>   12.7874    0.0000 </r>
       <r>   12.9476    0.0000 </r>
       <r>   13.0249    0.0000 </r>
       <r>   13.4098    0.0000 </r>
       <r>   13.9635    0.0000 </r>
      </set>
      <set comment="kpoint 13">
       <r>  -53.9737    1.0000 </r>
       <r>  -53.8818    1.0000 </r>
       <r>  -53.2980    1.0000 </r>
       <r>  -53.2849    1.0000 </r>
       <r>  -52.5806    1.0000 </r>
       <r>  -52.4769    1.0000 </r>
       <r>  -30.1468    1.0000 </r>
       <r>  -29.9375    1.0000 </r>
       <r>  -28.6672    1.0000 </r>
       <r>  -28.0503    1.0000 </r>
       <r>  -27.1851    1.0000 </r>
       <r>  -27.1322    1.0000 </r>
       <r>  -26.8402    1.0000 </r>
       <r>  -26.6307    1.0000 </r>
       <r>  -26.6184    1.0000 </r>
       <r>  -26.5907    1.0000 </r>
       <r>  -26.5139    1.0000 </r>
       <r>  -26.4816    1.0000 </r>
       <r>  -26.1990    1.0000 </r>
       <r>  -26.1782    1.0000 </r>
       <r>  -26.1228    1.0000 </r>
       <r>  -25.7566    1.0000 </r>
       <r>  -24.2230    1.0000 </r>
       <r>  -23.9332    1.0000 </r>
       <r>   -2.4443    1.0000 </r>
       <r>   -1.0528    1.0000 </r>
       <r>    0.7491    1.0000 </r>
       <r>    1.0187    1.0000 </r>
       <r>    2.1739    1.0000 </r>
       <r>    3.3343    1.0000 </r>
       <r>    3.5348    1.0000 </r>
       <r>    3.6323    1.0000 </r>
       <r>    4.1320    1.0000 </r>
       <r>    4.2097    1.0000 </r>
       <r>    4.3245    1.0000 </r>
       <r>    4.7767    1.0000 </r>
       <r>    5.1287    1.0000 </r>
       <r>    5.2652    1.0000 </r>
       <r>    5.8542    1.0000 </r>
       <r>    5.9327    1.0000 </r>
       <r>    6.2639    1.0000 </r>
       <r>    6.7222    1.0000 </r>
       <r>    7.0007    1.0000 </r>
       <r>    7.1972    1.0000 </r>
       <r>    7.6809    1.0000 </r>
       <r>    7.7351    1.0000 </r>
       <r>    7.9306    1.0000 </r>
       <r>    8.3560    1.0000 </r>
       <r>    8.9452    1.0000 </r>
       <r>    8.9574    1.0000 </r>
       <r>    9.0136    1.0000 </r>
       <r>    9.2530    1.0000 </r>
       <r>    9.3521    0.9913 </r>
       <r>    9.4848    0.0000 </r>
       <r>    9.7303    0.0000 </r>
       <r>   10.2934    0.0000 </r>
       <r>   10.5787    0.0000 </r>
       <r>   10.6481    0.0000 </r>
       <r>   10.9271    0.0000 </r>
       <r>   11.2161    0.0000 </r>
       <r>   11.8865    0.0000 </r>
       <r>   12.4526    0.0000 </r>
       <r>   12.7395    0.0000 </r>
       <r>   13.0545    0.0000 </r>
       <r>   13.6445    0.0000 </r>
       <r>   13.9950    0.0000 </r>
      </set>
      <set comment="kpoint 14">
       <r>  -54.0491    1.0000 </r>
       <r>  -53.7873    1.0000 </r>
       <r>  -53.3043    1.0000 </r>
       <r>  -53.2675    1.0000 </r>
       <r>  -52.6919    1.0000 </r>
       <r>  -52.3960    1.0000 </r>
       <r>  -30.2229    1.0000 </r>
       <r>  -29.6049    1.0000 </r>
       <r>  -29.2061    1.0000 </r>
       <r>  -27.4093    1.0000 </r>
       <r>  -27.3675    1.0000 </r>
       <r>  -27.2409    1.0000 </r>
       <r>  -27.0626    1.0000 </r>
       <r>  -26.6357    1.0000 </r>
       <r>  -26.6046    1.0000 </r>
       <r>  -26.5853    1.0000 </r>
       <r>  -26.4989    1.0000 </r>
       <r>  -26.4934    1.0000 </r>
       <r>  -26.2746    1.0000 </r>
       <r>  -26.2576    1.0000 </r>
       <r>  -26.0699    1.0000 </r>
       <r>  -25.1725    1.0000 </r>
       <r>  -24.6727    1.0000 </r>
       <r>  -23.8291    1.0000 </r>
       <r>   -2.7144    1.0000 </r>
       <r>   -0.7948    1.0000 </r>
       <r>    1.0684    1.0000 </r>
       <r>    1.1987    1.0000 </r>
       <r>    2.0377    1.0000 </r>
       <r>    3.1515    1.0000 </r>
       <r>    3.4121    1.0000 </r>
       <r>    3.9016    1.0000 </r>
       <r>    3.9055    1.0000 </r>
       <r>    4.5931    1.0000 </r>
       <r>    4.6644    1.0000 </r>
       <r>    4.6986    1.0000 </r>
       <r>    4.8516    1.0000 </r>
       <r>    5.2380    1.0000 </r>
       <r>    5.5836    1.0000 </r>
       <r>    6.1027    1.0000 </r>
       <r>    6.2526    1.0000 </r>
       <r>    6.3703    1.0000 </r>
       <r>    6.5367    1.0000 </r>
       <r>    6.6805    1.0000 </r>
       <r>    7.1308    1.0000 </r>
       <r>    7.5128    1.0000 </r>
       <r>    7.9357    1.0000 </r>
       <r>    8.5588    1.0000 </r>
       <r>    8.6090    1.0000 </r>
       <r>    8.8092    1.0000 </r>
       <r>    9.4921    0.0000 </r>
       <r>    9.5625    0.0000 </r>
       <r>    9.7436    0.0000 </r>
       <r>    9.7603    0.0000 </r>
       <r>   10.2408    0.0000 </r>
       <r>   10.6493    0.0000 </r>
       <r>   10.7253    0.0000 </r>
       <r>   10.9323    0.0000 </r>
       <r>   11.1047    0.0000 </r>
       <r>   11.1418    0.0000 </r>
       <r>   12.4223    0.0000 </r>
       <r>   12.4417    0.0000 </r>
       <r>   12.5633    0.0000 </r>
       <r>   12.6888    0.0000 </r>
       <r>   12.8562    0.0000 </r>
       <r>   13.5140    0.0000 </r>
      </set>
      <set comment="kpoint 15">
       <r>  -53.9412    1.0000 </r>
       <r>  -53.9065    1.0000 </r>
       <r>  -53.3073    1.0000 </r>
       <r>  -53.2979    1.0000 </r>
       <r>  -52.5389    1.0000 </r>
       <r>  -52.5037    1.0000 </r>
       <r>  -30.2094    1.0000 </r>
       <r>  -30.1397    1.0000 </r>
       <r>  -28.0627    1.0000 </r>
       <r>  -27.4287    1.0000 </r>
       <r>  -27.4109    1.0000 </r>
       <r>  -27.1769    1.0000 </r>
       <r>  -27.1349    1.0000 </r>
       <r>  -26.8527    1.0000 </r>
       <r>  -26.6360    1.0000 </r>
       <r>  -26.6307    1.0000 </r>
       <r>  -26.5210    1.0000 </r>
       <r>  -26.5035    1.0000 </r>
       <r>  -26.2478    1.0000 </r>
       <r>  -26.1626    1.0000 </r>
       <r>  -26.1565    1.0000 </r>
       <r>  -26.1469    1.0000 </r>
       <r>  -23.9388    1.0000 </r>
       <r>  -23.8379    1.0000 </r>
       <r>   -2.2201    1.0000 </r>
       <r>   -1.1537    1.0000 </r>
       <r>    0.2888    1.0000 </r>
       <r>    0.9455    1.0000 </r>
       <r>    2.2713    1.0000 </r>
       <r>    3.1868    1.0000 </r>
       <r>    3.6227    1.0000 </r>
       <r>    3.9573    1.0000 </r>
       <r>    4.0578    1.0000 </r>
       <r>    4.1549    1.0000 </r>
       <r>    4.1897    1.0000 </r>
       <r>    4.3771    1.0000 </r>
       <r>    5.2237    1.0000 </r>
       <r>    5.7597    1.0000 </r>
       <r>    5.8725    1.0000 </r>
       <r>    5.9806    1.0000 </r>
       <r>    6.0817    1.0000 </r>
       <r>    7.3096    1.0000 </r>
       <r>    7.5086    1.0000 </r>
       <r>    7.5213    1.0000 </r>
       <r>    7.5784    1.0000 </r>
       <r>    8.1003    1.0000 </r>
       <r>    8.1492    1.0000 </r>
       <r>    8.2805    1.0000 </r>
       <r>    8.8441    1.0000 </r>
       <r>    8.8664    1.0000 </r>
       <r>    8.8920    1.0000 </r>
       <r>    8.9751    1.0000 </r>
       <r>    9.0201    1.0000 </r>
       <r>    9.7247    0.0000 </r>
       <r>    9.9391    0.0000 </r>
       <r>   10.0272    0.0000 </r>
       <r>   10.3134    0.0000 </r>
       <r>   10.4743    0.0000 </r>
       <r>   10.7775    0.0000 </r>
       <r>   10.8645    0.0000 </r>
       <r>   11.4276    0.0000 </r>
       <r>   12.3463    0.0000 </r>
       <r>   13.2320    0.0000 </r>
       <r>   13.3723    0.0000 </r>
       <r>   13.5547    0.0000 </r>
       <r>   13.8319    0.0000 </r>
      </set>
      <set comment="kpoint 16">
       <r>  -53.9403    1.0000 </r>
       <r>  -53.9077    1.0000 </r>
       <r>  -53.3044    1.0000 </r>
       <r>  -53.3006    1.0000 </r>
       <r>  -52.5399    1.0000 </r>
       <r>  -52.5028    1.0000 </r>
       <r>  -30.2102    1.0000 </r>
       <r>  -30.1389    1.0000 </r>
       <r>  -28.0630    1.0000 </r>
       <r>  -27.4301    1.0000 </r>
       <r>  -27.4096    1.0000 </r>
       <r>  -27.1592    1.0000 </r>
       <r>  -27.1526    1.0000 </r>
       <r>  -26.8514    1.0000 </r>
       <r>  -26.6359    1.0000 </r>
       <r>  -26.6306    1.0000 </r>
       <r>  -26.5152    1.0000 </r>
       <r>  -26.5097    1.0000 </r>
       <r>  -26.2517    1.0000 </r>
       <r>  -26.1712    1.0000 </r>
       <r>  -26.1532    1.0000 </r>
       <r>  -26.1385    1.0000 </r>
       <r>  -23.9380    1.0000 </r>
       <r>  -23.8386    1.0000 </r>
       <r>   -2.3651    1.0000 </r>
       <r>   -0.9838    1.0000 </r>
       <r>    0.3737    1.0000 </r>
       <r>    0.9265    1.0000 </r>
[...]
       <r>    6.9813    1.0000 </r>
       <r>    7.6244    1.0000 </r>
       <r>    7.8280    1.0000 </r>
       <r>    8.1894    1.0000 </r>
       <r>    8.3427    1.0000 </r>
       <r>    8.7778    1.0000 </r>
       <r>    8.8840    1.0000 </r>
       <r>    9.0809    1.0000 </r>
       <r>    9.1040    1.0000 </r>
       <r>    9.1454    1.0000 </r>
       <r>    9.3855    0.5059 </r>
       <r>    9.9649    0.0000 </r>
       <r>   10.1873    0.0000 </r>
       <r>   10.3043    0.0000 </r>
       <r>   10.7715    0.0000 </r>
       <r>   11.2196    0.0000 </r>
       <r>   11.3135    0.0000 </r>
       <r>   11.7316    0.0000 </r>
       <r>   11.8184    0.0000 </r>
       <r>   12.3970    0.0000 </r>
       <r>   12.4185    0.0000 </r>
       <r>   13.0718    0.0000 </r>
       <r>   13.3347    0.0000 </r>
       <r>   13.7766    0.0000 </r>
      </set>
      <set comment="kpoint 116">
       <r>  -54.1910    1.0000 </r>
       <r>  -53.4257    1.0000 </r>
       <r>  -53.3040    1.0000 </r>
       <r>  -53.2379    1.0000 </r>
       <r>  -53.1063    1.0000 </r>
       <r>  -52.2306    1.0000 </r>
       <r>  -30.2427    1.0000 </r>
       <r>  -30.1762    1.0000 </r>
       <r>  -27.9958    1.0000 </r>
       <r>  -27.4095    1.0000 </r>
       <r>  -27.3682    1.0000 </r>
       <r>  -27.2269    1.0000 </r>
       <r>  -26.7819    1.0000 </r>
       <r>  -26.7395    1.0000 </r>
       <r>  -26.6329    1.0000 </r>
       <r>  -26.5985    1.0000 </r>
       <r>  -26.5824    1.0000 </r>
       <r>  -26.5518    1.0000 </r>
       <r>  -26.4637    1.0000 </r>
       <r>  -26.4591    1.0000 </r>
       <r>  -26.2664    1.0000 </r>
       <r>  -25.9704    1.0000 </r>
       <r>  -23.9082    1.0000 </r>
       <r>  -23.8132    1.0000 </r>
       <r>   -1.6622    1.0000 </r>
       <r>   -1.3236    1.0000 </r>
       <r>    0.5308    1.0000 </r>
       <r>    0.7201    1.0000 </r>
       <r>    1.8889    1.0000 </r>
       <r>    1.9322    1.0000 </r>
       <r>    2.3574    1.0000 </r>
       <r>    2.3788    1.0000 </r>
       <r>    3.4176    1.0000 </r>
       <r>    4.7525    1.0000 </r>
       <r>    4.9412    1.0000 </r>
       <r>    5.4863    1.0000 </r>
       <r>    5.6818    1.0000 </r>
       <r>    6.2980    1.0000 </r>
       <r>    6.3049    1.0000 </r>
       <r>    6.3605    1.0000 </r>
       <r>    6.6651    1.0000 </r>
       <r>    6.8599    1.0000 </r>
       <r>    6.9817    1.0000 </r>
       <r>    7.6812    1.0000 </r>
       <r>    8.2336    1.0000 </r>
       <r>    8.2501    1.0000 </r>
       <r>    8.2723    1.0000 </r>
       <r>    8.7022    1.0000 </r>
       <r>    8.7831    1.0000 </r>
       <r>    9.0371    1.0000 </r>
       <r>    9.2073    1.0000 </r>
       <r>    9.2742    1.0000 </r>
       <r>    9.3332    0.9999 </r>
       <r>    9.8350    0.0000 </r>
       <r>   10.1918    0.0000 </r>
       <r>   10.2103    0.0000 </r>
       <r>   10.8273    0.0000 </r>
       <r>   11.6017    0.0000 </r>
       <r>   11.7088    0.0000 </r>
       <r>   11.7394    0.0000 </r>
       <r>   11.8603    0.0000 </r>
       <r>   11.9380    0.0000 </r>
       <r>   12.1534    0.0000 </r>
       <r>   13.1537    0.0000 </r>
       <r>   13.2766    0.0000 </r>
       <r>   13.7481    0.0000 </r>
      </set>
     </set>
    </set>
   </array>
  </eigenvalues>
  <separator name="orbital magnetization" >
   <v name="MAGDIPOLOUT">      0.00000000      0.00000000      0.00000000</v>
  </separator>
  <dos>
   <i name="efermi">      9.38571886 </i>
   <total>
    <array>
     <dimension dim="1">gridpoints</dimension>
     <dimension dim="2">spin</dimension>
     <field>energy</field>
     <field>total</field>
     <field>integrated</field>
     <set>
      <set comment="spin 1">
       <r>   -57.6295     0.0000     0.0000 </r>
       <r>   -57.3782     0.0000     0.0000 </r>
       <r>   -57.1269     0.0000     0.0000 </r>
       <r>   -56.8756     0.0000     0.0000 </r>
       <r>   -56.6243     0.0000     0.0000 </r>
       <r>   -56.3730     0.0000     0.0000 </r>
       <r>   -56.1217     0.0000     0.0000 </r>
       <r>   -55.8704     0.0000     0.0000 </r>
       <r>   -55.6191     0.0000     0.0000 </r>
       <r>   -55.3678     0.0000     0.0000 </r>
       <r>   -55.1165     0.0000     0.0000 </r>
       <r>   -54.8652     0.0000     0.0000 </r>
       <r>   -54.6138     0.0000     0.0000 </r>
       <r>   -54.3625     0.0000     0.0000 </r>
       <r>   -54.1112     2.1650     0.5441 </r>
       <r>   -53.8599     5.8649     2.6729 </r>
       <r>   -53.6086     1.9438     3.6466 </r>
       <r>   -53.3573     0.6239     3.9782 </r>
       <r>   -53.1060     4.4634     8.0554 </r>
       <r>   -52.8547     1.1662     8.4512 </r>
       <r>   -52.6034     2.6457     9.3843 </r>
       <r>   -52.3521     4.4136    11.3184 </r>
       <r>   -52.1008     0.7512    12.0000 </r>
       <r>   -51.8494     0.0000    12.0000 </r>
       <r>   -51.5981     0.0000    12.0000 </r>
       <r>   -51.3468     0.0000    12.0000 </r>
       <r>   -51.0955     0.0000    12.0000 </r>
       <r>   -50.8442     0.0000    12.0000 </r>
       <r>   -50.5929     0.0000    12.0000 </r>
       <r>   -50.3416     0.0000    12.0000 </r>
       <r>   -50.0903     0.0000    12.0000 </r>
       <r>   -49.8390     0.0000    12.0000 </r>
       <r>   -49.5877     0.0000    12.0000 </r>
       <r>   -49.3364     0.0000    12.0000 </r>
       <r>   -49.0851     0.0000    12.0000 </r>
       <r>   -48.8337     0.0000    12.0000 </r>
       <r>   -48.5824     0.0000    12.0000 </r>
       <r>   -48.3311     0.0000    12.0000 </r>
       <r>   -48.0798     0.0000    12.0000 </r>
       <r>   -47.8285     0.0000    12.0000 </r>
       <r>   -47.5772     0.0000    12.0000 </r>
       <r>   -47.3259     0.0000    12.0000 </r>
       <r>   -47.0746     0.0000    12.0000 </r>
       <r>   -46.8233     0.0000    12.0000 </r>
       <r>   -46.5720     0.0000    12.0000 </r>
       <r>   -46.3207     0.0000    12.0000 </r>
       <r>   -46.0694     0.0000    12.0000 </r>
       <r>   -45.8180     0.0000    12.0000 </r>
       <r>   -45.5667     0.0000    12.0000 </r>
       <r>   -45.3154     0.0000    12.0000 </r>
       <r>   -45.0641     0.0000    12.0000 </r>
       <r>   -44.8128     0.0000    12.0000 </r>
       <r>   -44.5615     0.0000    12.0000 </r>
       <r>   -44.3102     0.0000    12.0000 </r>
       <r>   -44.0589     0.0000    12.0000 </r>
       <r>   -43.8076     0.0000    12.0000 </r>
       <r>   -43.5563     0.0000    12.0000 </r>
       <r>   -43.3050     0.0000    12.0000 </r>
       <r>   -43.0537     0.0000    12.0000 </r>
       <r>   -42.8023     0.0000    12.0000 </r>
       <r>   -42.5510     0.0000    12.0000 </r>
       <r>   -42.2997     0.0000    12.0000 </r>
       <r>   -42.0484     0.0000    12.0000 </r>
       <r>   -41.7971     0.0000    12.0000 </r>
       <r>   -41.5458     0.0000    12.0000 </r>
       <r>   -41.2945     0.0000    12.0000 </r>
       <r>   -41.0432     0.0000    12.0000 </r>
       <r>   -40.7919     0.0000    12.0000 </r>
       <r>   -40.5406     0.0000    12.0000 </r>
       <r>   -40.2893     0.0000    12.0000 </r>
       <r>   -40.0379     0.0000    12.0000 </r>
       <r>   -39.7866     0.0000    12.0000 </r>
       <r>   -39.5353     0.0000    12.0000 </r>
       <r>   -39.2840     0.0000    12.0000 </r>
       <r>   -39.0327     0.0000    12.0000 </r>
       <r>   -38.7814     0.0000    12.0000 </r>
       <r>   -38.5301     0.0000    12.0000 </r>
       <r>   -38.2788     0.0000    12.0000 </r>
       <r>   -38.0275     0.0000    12.0000 </r>
       <r>   -37.7762     0.0000    12.0000 </r>
       <r>   -37.5249     0.0000    12.0000 </r>
       <r>   -37.2736     0.0000    12.0000 </r>
       <r>   -37.0222     0.0000    12.0000 </r>
       <r>   -36.7709     0.0000    12.0000 </r>
       <r>   -36.5196     0.0000    12.0000 </r>
       <r>   -36.2683     0.0000    12.0000 </r>
       <r>   -36.0170     0.0000    12.0000 </r>
       <r>   -35.7657     0.0000    12.0000 </r>
       <r>   -35.5144     0.0000    12.0000 </r>
       <r>   -35.2631     0.0000    12.0000 </r>
       <r>   -35.0118     0.0000    12.0000 </r>
       <r>   -34.7605     0.0000    12.0000 </r>
       <r>   -34.5092     0.0000    12.0000 </r>
       <r>   -34.2579     0.0000    12.0000 </r>
       <r>   -34.0065     0.0000    12.0000 </r>
       <r>   -33.7552     0.0000    12.0000 </r>
       <r>   -33.5039     0.0000    12.0000 </r>
       <r>   -33.2526     0.0000    12.0000 </r>
       <r>   -33.0013     0.0000    12.0000 </r>
       <r>   -32.7500     0.0000    12.0000 </r>
       <r>   -32.4987     0.0000    12.0000 </r>
       <r>   -32.2474     0.0000    12.0000 </r>
       <r>   -31.9961     0.0000    12.0000 </r>
       <r>   -31.7448     0.0000    12.0000 </r>
       <r>   -31.4935     0.0000    12.0000 </r>
       <r>   -31.2421     0.0000    12.0000 </r>
       <r>   -30.9908     0.0000    12.0000 </r>
       <r>   -30.7395     0.0000    12.0000 </r>
       <r>   -30.4882     0.0000    12.0000 </r>
       <r>   -30.2369     0.6117    12.1537 </r>
       <r>   -29.9856     2.5875    13.9666 </r>
       <r>   -29.7343     1.0769    14.9645 </r>
       <r>   -29.4830     2.8337    15.9264 </r>
       <r>   -29.2317     0.5882    16.2192 </r>
       <r>   -28.9804     0.5697    17.0717 </r>
       <r>   -28.7291     0.5670    17.3568 </r>
       <r>   -28.4778     1.7152    18.1759 </r>
       <r>   -28.2264     0.6100    18.3676 </r>
       <r>   -27.9751     2.7957    19.2026 </r>
       <r>   -27.7238     0.5522    19.4041 </r>
       <r>   -27.4725     0.5690    19.6430 </r>
       <r>   -27.2212     5.8516    21.6032 </r>
       <r>   -26.9699     4.9479    24.1567 </r>
       <r>   -26.7186     4.6042    25.6826 </r>
       <r>   -26.4673    24.9532    34.1842 </r>
       <r>   -26.2160     8.6197    38.5029 </r>
       <r>   -25.9647     6.4307    41.7845 </r>
       <r>   -25.7134     2.3177    42.6743 </r>
       <r>   -25.4621     0.6480    42.9179 </r>
       <r>   -25.2107     1.7255    43.4132 </r>
       <r>   -24.9594     0.5912    43.9343 </r>
       <r>   -24.7081     0.5718    44.2151 </r>
       <r>   -24.4568     0.5730    45.0726 </r>
       <r>   -24.2055     2.0969    45.7413 </r>
       <r>   -23.9542     1.4001    46.5151 </r>
       <r>   -23.7029     2.4362    48.0000 </r>
       <r>   -23.4516     0.0000    48.0000 </r>
       <r>   -23.2003     0.0000    48.0000 </r>
       <r>   -22.9490     0.0000    48.0000 </r>
       <r>   -22.6977     0.0000    48.0000 </r>
       <r>   -22.4464     0.0000    48.0000 </r>
       <r>   -22.1950     0.0000    48.0000 </r>
       <r>   -21.9437     0.0000    48.0000 </r>
       <r>   -21.6924     0.0000    48.0000 </r>
       <r>   -21.4411     0.0000    48.0000 </r>
       <r>   -21.1898     0.0000    48.0000 </r>
       <r>   -20.9385     0.0000    48.0000 </r>
       <r>   -20.6872     0.0000    48.0000 </r>
       <r>   -20.4359     0.0000    48.0000 </r>
       <r>   -20.1846     0.0000    48.0000 </r>
       <r>   -19.9333     0.0000    48.0000 </r>
       <r>   -19.6820     0.0000    48.0000 </r>
       <r>   -19.4306     0.0000    48.0000 </r>
       <r>   -19.1793     0.0000    48.0000 </r>
       <r>   -18.9280     0.0000    48.0000 </r>
       <r>   -18.6767     0.0000    48.0000 </r>
       <r>   -18.4254     0.0000    48.0000 </r>
       <r>   -18.1741     0.0000    48.0000 </r>
       <r>   -17.9228     0.0000    48.0000 </r>
       <r>   -17.6715     0.0000    48.0000 </r>
       <r>   -17.4202     0.0000    48.0000 </r>
       <r>   -17.1689     0.0000    48.0000 </r>
       <r>   -16.9176     0.0000    48.0000 </r>
       <r>   -16.6663     0.0000    48.0000 </r>
       <r>   -16.4149     0.0000    48.0000 </r>
       <r>   -16.1636     0.0000    48.0000 </r>
       <r>   -15.9123     0.0000    48.0000 </r>
       <r>   -15.6610     0.0000    48.0000 </r>
       <r>   -15.4097     0.0000    48.0000 </r>
       <r>   -15.1584     0.0000    48.0000 </r>
       <r>   -14.9071     0.0000    48.0000 </r>
       <r>   -14.6558     0.0000    48.0000 </r>
       <r>   -14.4045     0.0000    48.0000 </r>
       <r>   -14.1532     0.0000    48.0000 </r>
       <r>   -13.9019     0.0000    48.0000 </r>
       <r>   -13.6506     0.0000    48.0000 </r>
       <r>   -13.3992     0.0000    48.0000 </r>
       <r>   -13.1479     0.0000    48.0000 </r>
       <r>   -12.8966     0.0000    48.0000 </r>
       <r>   -12.6453     0.0000    48.0000 </r>
       <r>   -12.3940     0.0000    48.0000 </r>
       <r>   -12.1427     0.0000    48.0000 </r>
       <r>   -11.8914     0.0000    48.0000 </r>
       <r>   -11.6401     0.0000    48.0000 </r>
       <r>   -11.3888     0.0000    48.0000 </r>
       <r>   -11.1375     0.0000    48.0000 </r>
       <r>   -10.8862     0.0000    48.0000 </r>
       <r>   -10.6349     0.0000    48.0000 </r>
       <r>   -10.3835     0.0000    48.0000 </r>
       <r>   -10.1322     0.0000    48.0000 </r>
       <r>    -9.8809     0.0000    48.0000 </r>
       <r>    -9.6296     0.0000    48.0000 </r>
       <r>    -9.3783     0.0000    48.0000 </r>
       <r>    -9.1270     0.0000    48.0000 </r>
       <r>    -8.8757     0.0000    48.0000 </r>
       <r>    -8.6244     0.0000    48.0000 </r>
       <r>    -8.3731     0.0000    48.0000 </r>
       <r>    -8.1218     0.0000    48.0000 </r>
       <r>    -7.8705     0.0000    48.0000 </r>
       <r>    -7.6191     0.0000    48.0000 </r>
       <r>    -7.3678     0.0000    48.0000 </r>
       <r>    -7.1165     0.0000    48.0000 </r>
       <r>    -6.8652     0.0000    48.0000 </r>
       <r>    -6.6139     0.0000    48.0000 </r>
       <r>    -6.3626     0.0000    48.0000 </r>
       <r>    -6.1113     0.0000    48.0000 </r>
       <r>    -5.8600     0.0000    48.0000 </r>
       <r>    -5.6087     0.0000    48.0000 </r>
       <r>    -5.3574     0.0000    48.0000 </r>
       <r>    -5.1061     0.0000    48.0000 </r>
       <r>    -4.8548     0.0000    48.0000 </r>
       <r>    -4.6034     0.0000    48.0000 </r>
       <r>    -4.3521     0.0000    48.0000 </r>
       <r>    -4.1008     0.0000    48.0000 </r>
       <r>    -3.8495     0.0000    48.0000 </r>
       <r>    -3.5982     0.0000    48.0000 </r>
       <r>    -3.3469     0.0000    48.0000 </r>
       <r>    -3.0956     0.0204    48.0051 </r>
       <r>    -2.8443     0.3169    48.1460 </r>
       <r>    -2.5930     0.6737    48.4193 </r>
       <r>    -2.3417     1.0136    48.7802 </r>
       <r>    -2.0904     1.1937    49.2796 </r>
       <r>    -1.8391     1.5127    49.8597 </r>
       <r>    -1.5877     1.4300    50.3900 </r>
       <r>    -1.3364     1.0842    50.9051 </r>
       <r>    -1.0851     1.1390    51.4393 </r>
       <r>    -0.8338     0.7325    51.7402 </r>
       <r>    -0.5825     0.4466    51.9235 </r>
       <r>    -0.3312     0.2437    51.9949 </r>
       <r>    -0.0799     0.0000    52.0000 </r>
       <r>     0.1714     0.0000    52.0000 </r>
       <r>     0.4227     0.5623    52.1464 </r>
       <r>     0.6740     1.4068    52.6444 </r>
       <r>     0.9253     1.8793    53.3345 </r>
       <r>     1.1767     2.1100    54.1833 </r>
       <r>     1.4280     2.3512    55.1011 </r>
       <r>     1.6793     1.2994    55.7041 </r>
       <r>     1.9306     1.7303    56.6491 </r>
       <r>     2.1819     2.7228    57.6536 </r>
       <r>     2.4332     2.5883    58.7168 </r>
       <r>     2.6845     2.2040    59.4825 </r>
       <r>     2.9358     2.1555    60.3172 </r>
       <r>     3.1871     1.9783    61.0125 </r>
       <r>     3.4384     2.2968    61.9242 </r>
       <r>     3.6897     3.0902    63.0470 </r>
       <r>     3.9410     3.6317    64.4178 </r>
       <r>     4.1924     4.1598    66.1066 </r>
       <r>     4.4437     4.4032    67.8209 </r>
       <r>     4.6950     4.1297    69.5378 </r>
       <r>     4.9463     4.1244    71.1640 </r>
       <r>     5.1976     4.5521    72.9246 </r>
       <r>     5.4489     4.0130    74.7024 </r>
       <r>     5.7002     5.2449    76.7263 </r>
       <r>     5.9515     4.3063    78.5261 </r>
       <r>     6.2028     2.9028    79.7958 </r>
       <r>     6.4541     3.8794    81.2606 </r>
       <r>     6.7054     3.9822    82.9344 </r>
       <r>     6.9567     4.3223    84.5148 </r>
       <r>     7.2081     5.3815    86.8269 </r>
       <r>     7.4594     3.7510    88.7131 </r>
       <r>     7.7107     4.5504    90.5823 </r>
       <r>     7.9620     6.2669    92.8045 </r>
       <r>     8.2133     4.6971    94.6906 </r>
       <r>     8.4646     4.5112    96.3174 </r>
       <r>     8.7159     3.5836    97.8547 </r>
       <r>     8.9672     6.4270   100.2070 </r>
       <r>     9.2185     5.9538   102.4503 </r>
       <r>     9.4698     7.0385   104.8913 </r>
       <r>     9.7211     4.9520   106.7496 </r>
       <r>     9.9724     5.4404   109.1274 </r>
       <r>    10.2238     3.4431   110.6408 </r>
       <r>    10.4751     3.5604   112.0172 </r>
       <r>    10.7264     3.9746   113.5703 </r>
       <r>    10.9777     3.9035   114.9963 </r>
       <r>    11.2290     3.6545   116.5102 </r>
       <r>    11.4803     3.7629   118.1038 </r>
       <r>    11.7316     2.7850   119.2152 </r>
       <r>    11.9829     3.1983   120.5640 </r>
       <r>    12.2342     2.9699   121.7310 </r>
       <r>    12.4855     3.9872   123.2775 </r>
       <r>    12.7368     3.5220   124.7270 </r>
       <r>    12.9882     4.2985   126.2843 </r>
       <r>    13.2395     4.6901   128.3011 </r>
       <r>    13.4908     3.5379   129.8381 </r>
       <r>    13.7421     2.4404   130.9755 </r>
       <r>    13.9934     1.5314   131.7216 </r>
       <r>    14.2447     0.4060   131.9898 </r>
       <r>    14.4960     0.0406   132.0000 </r>
       <r>    14.7473     0.0000   132.0000 </r>
       <r>    14.9986     0.0000   132.0000 </r>
       <r>    15.2499     0.0000   132.0000 </r>
       <r>    15.5012     0.0000   132.0000 </r>
       <r>    15.7525     0.0000   132.0000 </r>
       <r>    16.0039     0.0000   132.0000 </r>
       <r>    16.2552     0.0000   132.0000 </r>
       <r>    16.5065     0.0000   132.0000 </r>
       <r>    16.7578     0.0000   132.0000 </r>
       <r>    17.0091     0.0000   132.0000 </r>
       <r>    17.2604     0.0000   132.0000 </r>
       <r>    17.5117     0.0000   132.0000 </r>
       <r>    17.7630     0.0000   132.0000 </r>
      </set>
     </set>
    </array>
   </total>
  </dos>
 </calculation>
 <structure name="finalpos" >
  <crystal>
   <varray name="basis" >
    <v>       5.28019953       0.00000000      -3.22608419 </v>
    <v>      -1.66109179       5.01211345      -3.22608419 </v>
    <v>       0.00000000       0.00000000       6.18774000 </v>
   </varray>
   <i name="volume">    163.75828592 </i>
   <varray name="rec_basis" >
    <v>       0.18938678       0.06276570       0.00000000 </v>
    <v>       0.00000000       0.19951663       0.00000000 </v>
    <v>       0.09874004       0.13674539       0.16160989 </v>
   </varray>
  </crystal>
  <varray name="positions" >
   <v>       0.00000000       0.50000000       0.00000000 </v>
   <v>       0.50000000       0.50000000       0.50000000 </v>
   <v>       0.50000000       0.00000000       0.00000000 </v>
   <v>       0.00000000       0.00000000       0.50000000 </v>
   <v>       0.00000000       0.00000000       0.00000000 </v>
   <v>       0.24812000       0.74812000       0.99625000 </v>
   <v>       0.75188000       0.25188000       0.00375000 </v>
   <v>       0.74812000       0.75188000       0.50000000 </v>
   <v>       0.25188000       0.24812000       0.50000000 </v>
   <v>       0.50000000       0.50000000       0.00000000 </v>
   <v>       0.25000000       0.25000000       0.00000000 </v>
   <v>       0.75000000       0.75000000       0.00000000 </v>
  </varray>
 </structure>
</modeling>
