 vasp.6.2.0 18Jan21 (build Jan 05 2022 15:41:44) complex                        
  
 executed on             LinuxIFC date 2025.05.07  21:06:19
 running on   24 total cores
 distrk:  each k-point on   12 cores,    2 groups
 distr:  one band on NCORE=   2 cores,    6 groups


--------------------------------------------------------------------------------------------------------


 INCAR:
   SYSTEM = routine with relax: pwdword
   ICHARG = 2
   NPAR = 6
   KPAR = 2
   NCORE = 2
   ADDGRID = T
   PREC = Acc
   ENCUT = 600
   METAGGA = R2SCAN
   LASPH = .TRUE.
   LMIXTAU = .FALSE.
   ALGO = A
   EDIFF = 1E-9
   NELM = 100
   NELMIN = 6
   IALGO = 38
   LREAL = F
   NSW = 0
   ISIF = -1
   ISMEAR = 0
   SIGMA = 0.02

 POTCAR:    PAW_PBE B 06Sep2000                   
 POTCAR:    PAW_PBE Mo_sv 02Feb2006               
 POTCAR:    PAW_PBE Si 05Jan2001                  
 -----------------------------------------------------------------------------
|                                                                             |
|           W    W    AA    RRRRR   N    N  II  N    N   GGGG   !!!           |
|           W    W   A  A   R    R  NN   N  II  NN   N  G    G  !!!           |
|           W    W  A    A  R    R  N N  N  II  N N  N  G       !!!           |
|           W WW W  AAAAAA  RRRRR   N  N N  II  N  N N  G  GGG   !            |
|           WW  WW  A    A  R   R   N   NN  II  N   NN  G    G                |
|           W    W  A    A  R    R  N    N  II  N    N   GGGG   !!!           |
|                                                                             |
|     For optimal performance we recommend to set                             |
|       NCORE = 2 up to number-of-cores-per-socket                            |
|     NCORE specifies how many cores store one orbital (NPAR=cpu/NCORE).      |
|     This setting can greatly improve the performance of VASP for DFT.       |
|     The default, NCORE=1 might be grossly inefficient on modern             |
|     multi-core architectures or massively parallel machines. Do your        |
|     own testing! More info at https://www.vasp.at/wiki/index.php/NCORE      |
|     Unfortunately you need to use the default for GW and RPA                |
|     calculations (for HF NCORE is supported but not extensively tested      |
|     yet).                                                                   |
|                                                                             |
 -----------------------------------------------------------------------------

 POTCAR:    PAW_PBE B 06Sep2000                   
   VRHFIN =B: s2p1                                                                                  
   LEXCH  = PE                                                                                      
   EATOM  =    71.1703 eV,    5.2309 Ry                                                             
                                                                                                    
   TITEL  = PAW_PBE B 06Sep2000                                                                     
   LULTRA =        F    use ultrasoft PP ?                                                          
   IUNSCR =        1    unscreen: 0-lin 1-nonlin 2-no                                               
   RPACOR =    1.200    partial core radius                                                         
   POMASS =   10.811; ZVAL   =    3.000    mass and valenz                                          
   RCORE  =    1.700    outmost cutoff radius                                                       
   RWIGS  =    1.710; RWIGS  =    0.905    wigner-seitz radius (au A)                               
   ENMAX  =  318.614; ENMIN  =  238.960 eV                                                          
   ICORE  =        2    local potential                                                             
   LCOR   =        T    correct aug charges                                                         
   LPAW   =        T    paw PP                                                                      
   EAUG   =  535.514                                                                                
   DEXC   =    0.000                                                                                
   RMAX   =    1.732    core radius for proj-oper                                                   
   RAUG   =    1.300    factor for augmentation sphere                                              
   RDEP   =    1.757    radius for radial grids                                                     
   RDEPT  =    1.436    core radius for aug-charge                                                  
                                                                                                    
   Atomic configuration                                                                             
    4 entries                                                                                       
     n  l   j            E        occ.                                                              
     1  0  0.50      -180.5896   2.0000                                                             
     2  0  0.50        -9.4431   2.0000                                                             
     2  1  0.50        -3.6068   1.0000                                                             
     3  2  1.50        -4.0817   0.0000                                                             
   Description                                                                                      
     l       E           TYP  RCUT    TYP  RCUT                                                     
     0     -9.4430752     23  1.500                                                                 
     0      0.8675899     23  1.500                                                                 
     1     -3.6067955     23  1.700                                                                 
     1      6.1086146     23  1.700                                                                 
     2     -4.0817478      7  1.700                                                                 
  local pseudopotential read in
  partial core-charges read in
  partial kinetic energy density read in
  atomic valenz-charges read in
  non local Contribution for L=           0  read in
    real space projection operators read in
  non local Contribution for L=           0  read in
    real space projection operators read in
  non local Contribution for L=           1  read in
    real space projection operators read in
  non local Contribution for L=           1  read in
    real space projection operators read in
    PAW grid and wavefunctions read in
 
   number of l-projection  operators is LMAX  =           4
   number of lm-projection operators is LMMAX =           8
 
 POTCAR:    PAW_PBE Mo_sv 02Feb2006               
   VRHFIN =Mo: 4p5s4d                                                                               
   LEXCH  = PE                                                                                      
   EATOM  =  1862.2866 eV,  136.8742 Ry                                                             
                                                                                                    
   TITEL  = PAW_PBE Mo_sv 02Feb2006                                                                 
   LULTRA =        F    use ultrasoft PP ?                                                          
   IUNSCR =        1    unscreen: 0-lin 1-nonlin 2-no                                               
   RPACOR =    2.200    partial core radius                                                         
   POMASS =   95.940; ZVAL   =   14.000    mass and valenz                                          
   RCORE  =    2.500    outmost cutoff radius                                                       
   RWIGS  =    2.750; RWIGS  =    1.455    wigner-seitz radius (au A)                               
   ENMAX  =  242.676; ENMIN  =  182.007 eV                                                          
   ICORE  =        3    local potential                                                             
   LCOR   =        T    correct aug charges                                                         
   LPAW   =        T    paw PP                                                                      
   EAUG   =  446.014                                                                                
   DEXC   =    0.000                                                                                
   RMAX   =    2.563    core radius for proj-oper                                                   
   RAUG   =    1.300    factor for augmentation sphere                                              
   RDEP   =    2.641    radius for radial grids                                                     
   RDEPT  =    2.031    core radius for aug-charge                                                  
                                                                                                    
   Atomic configuration                                                                             
   11 entries                                                                                       
     n  l   j            E        occ.                                                              
     1  0  0.50    -19819.0341   2.0000                                                             
     2  0  0.50     -2799.0127   2.0000                                                             
     2  1  1.50     -2502.0276   6.0000                                                             
     3  0  0.50      -476.4449   2.0000                                                             
     3  1  1.50      -379.1496   6.0000                                                             
     3  2  2.50      -220.9367  10.0000                                                             
     4  0  0.50       -64.3378   2.0000                                                             
     5  0  0.50        -4.0862   1.0000                                                             
     4  1  1.50       -38.4773   6.0000                                                             
     4  2  2.50        -3.7535   5.0000                                                             
     4  3  2.50        -1.3606   0.0000                                                             
   Description                                                                                      
     l       E           TYP  RCUT    TYP  RCUT                                                     
     0    -64.3377829     23  2.100                                                                 
     0     -4.0861640     23  2.400                                                                 
     1    -38.4772993     23  2.100                                                                 
     1     13.6058260     23  2.100                                                                 
     2     -3.7534941     23  2.400                                                                 
     2     -5.1140767     23  2.400                                                                 
     3     -4.0817478     23  2.500                                                                 
  local pseudopotential read in
  partial core-charges read in
  partial kinetic energy density read in
  atomic valenz-charges read in
  non local Contribution for L=           0  read in
    real space projection operators read in
  non local Contribution for L=           0  read in
    real space projection operators read in
  non local Contribution for L=           1  read in
    real space projection operators read in
  non local Contribution for L=           1  read in
    real space projection operators read in
  non local Contribution for L=           2  read in
    real space projection operators read in
  non local Contribution for L=           2  read in
    real space projection operators read in
    PAW grid and wavefunctions read in
 
   number of l-projection  operators is LMAX  =           6
   number of lm-projection operators is LMMAX =          18
 
 POTCAR:    PAW_PBE Si 05Jan2001                  
   VRHFIN =Si: s2p2                                                                                 
   LEXCH  = PE                                                                                      
   EATOM  =   103.0669 eV,    7.5752 Ry                                                             
                                                                                                    
   TITEL  = PAW_PBE Si 05Jan2001                                                                    
   LULTRA =        F    use ultrasoft PP ?                                                          
   IUNSCR =        1    unscreen: 0-lin 1-nonlin 2-no                                               
   RPACOR =    1.500    partial core radius                                                         
   POMASS =   28.085; ZVAL   =    4.000    mass and valenz                                          
   RCORE  =    1.900    outmost cutoff radius                                                       
   RWIGS  =    2.480; RWIGS  =    1.312    wigner-seitz radius (au A)                               
   ENMAX  =  245.345; ENMIN  =  184.009 eV                                                          
   ICORE  =        2    local potential                                                             
   LCOR   =        T    correct aug charges                                                         
   LPAW   =        T    paw PP                                                                      
   EAUG   =  322.069                                                                                
   DEXC   =    0.000                                                                                
   RMAX   =    1.950    core radius for proj-oper                                                   
   RAUG   =    1.300    factor for augmentation sphere                                              
   RDEP   =    1.993    radius for radial grids                                                     
   RDEPT  =    1.837    core radius for aug-charge                                                  
                                                                                                    
   Atomic configuration                                                                             
    6 entries                                                                                       
     n  l   j            E        occ.                                                              
     1  0  0.50     -1785.8828   2.0000                                                             
     2  0  0.50      -139.4969   2.0000                                                             
     2  1  1.50       -95.5546   6.0000                                                             
     3  0  0.50       -10.8127   2.0000                                                             
     3  1  0.50        -4.0811   2.0000                                                             
     3  2  1.50        -4.0817   0.0000                                                             
   Description                                                                                      
     l       E           TYP  RCUT    TYP  RCUT                                                     
     0    -10.8127223     23  1.900                                                                 
     0     -7.6451159     23  1.900                                                                 
     1     -4.0811372     23  1.900                                                                 
     1      2.4879257     23  1.900                                                                 
     2     -4.0817478      7  1.900                                                                 
  local pseudopotential read in
  partial core-charges read in
  partial kinetic energy density read in
  atomic valenz-charges read in
  non local Contribution for L=           0  read in
    real space projection operators read in
  non local Contribution for L=           0  read in
    real space projection operators read in
  non local Contribution for L=           1  read in
    real space projection operators read in
  non local Contribution for L=           1  read in
    real space projection operators read in
    PAW grid and wavefunctions read in
 
   number of l-projection  operators is LMAX  =           4
   number of lm-projection operators is LMMAX =           8
 
  PAW_PBE B 06Sep2000                   :
 energy of atom  1       EATOM=  -71.1703
 kinetic energy error for atom=    0.0007 (will be added to EATOM!!)
  PAW_PBE Mo_sv 02Feb2006               :
 energy of atom  2       EATOM=-1862.2866
 kinetic energy error for atom=    0.0041 (will be added to EATOM!!)
  PAW_PBE Si 05Jan2001                  :
 energy of atom  3       EATOM= -103.0669
 kinetic energy error for atom=    0.0003 (will be added to EATOM!!)
 
 
 POSCAR: EA239
  positions in direct lattice
  No initial velocities read in

 METAGGA = R2SCA    LMAXTAU =  6    LMIXTAU =  F

 exchange correlation table for  LEXCH =        8
   RHO(1)=    0.500       N(1)  =     2000
   RHO(2)=  100.500       N(2)  =     4000
 


--------------------------------------------------------------------------------------------------------


 ion  position               nearest neighbor table
   1  0.929  0.429  0.359-   2 1.33   8 1.97   9 1.97   5 2.19
   2  0.071  0.571  0.641-   1 1.33   9 1.97   8 1.97   7 2.19
   3  0.429  0.071  0.500-   4 1.33   5 1.97   7 1.97   8 2.19
   4  0.571  0.929  0.500-   3 1.33   5 1.97   7 1.97   9 2.19
   5  0.697  0.197  0.894-   3 1.97   4 1.97   1 2.19   6 2.41  10 2.41   8 3.40   9 3.40   9 3.40
                             8 3.40
   6  0.000  0.000  0.000-  11 2.33  12 2.33   8 2.41   9 2.41   5 2.41   7 2.41
   7  0.303  0.803  0.106-   3 1.97   4 1.97   2 2.19   6 2.41  10 2.41   9 3.40   8 3.40   9 3.40
                             8 3.40
   8  0.197  0.303  0.500-   1 1.97   2 1.97   3 2.19  10 2.41   6 2.41   5 3.40   7 3.40   7 3.40
                             5 3.40
   9  0.803  0.697  0.500-   2 1.97   1 1.97   4 2.19   6 2.41  10 2.41   7 3.40   5 3.40   5 3.40
                             7 3.40
  10  0.500  0.500  0.000-  11 2.33  12 2.33   9 2.41   8 2.41   5 2.41   7 2.41
  11  0.250  0.250  0.000-   6 2.33  10 2.33
  12  0.750  0.750  0.000-   6 2.33  10 2.33
 
  Warning from LATTYP: Got some problem with cell dimensions!
  Tried to take original basis but could not verify dimensions!
  LATTYP: Found a base centered monoclinic cell.
 ALAT       =     9.3287346501
 B/A-ratio  =     1.0095064732
 C/A-ratio  =     0.7104652959
 COS(beta)  =    -0.7037536616
  
  Lattice vectors:
  
 A1 = (  -5.7578383322,   0.0000000000,   3.2826149341)
 A2 = (   1.9436424123,  -5.4198668280,   3.2826149341)
 A3 = (   3.8141959199,   5.4198668280,   0.0626101317)


Analysis of symmetry for initial positions (statically):
=====================================================================
 Subroutine PRICEL returns:
 Original cell was already a primitive cell.
 

 Routine SETGRP: Setting up the symmetry group for a 
 base centered monoclinic supercell.


 Subroutine GETGRP returns: Found  4 space group operations
 (whereof  2 operations were pure point group operations)
 out of a pool of  4 trial point group operations.


The static configuration has the point symmetry S_2 .
 The point group associated with its full space group is C_2h.


Analysis of symmetry for dynamics (positions and initial velocities):
=====================================================================
 Subroutine PRICEL returns:
 Original cell was already a primitive cell.
 

 Routine SETGRP: Setting up the symmetry group for a 
 base centered monoclinic supercell.


 Subroutine GETGRP returns: Found  4 space group operations
 (whereof  2 operations were pure point group operations)
 out of a pool of  4 trial point group operations.


The dynamic configuration has the point symmetry S_2 .
 The point group associated with its full space group is C_2h.


 Subroutine INISYM returns: Found  4 space group operations
 (whereof  2 operations are pure point group operations),
 and found     1 'primitive' translations


----------------------------------------------------------------------------------------

                                     Primitive cell                                     

  volume of cell :     206.8331

  direct lattice vectors                    reciprocal lattice vectors
     5.757838332  0.000000000 -3.282614934     0.173676290  0.062282822  0.000000000
    -1.943642412  5.419866828 -3.282614934     0.000000000  0.184506378  0.000000000
     0.000000000  0.000000000  6.627840000     0.086017825  0.122228949  0.150878718

  length of vectors
     6.627840000  6.627840000  6.627840000     0.184506378  0.184506378  0.212375539

  position of ions in fractional coordinates (direct lattice)
     0.929370000  0.429370000  0.358740000
     0.070630000  0.570630000  0.641260000
     0.429370000  0.070630000  0.500000000
     0.570630000  0.929370000  0.500000000
     0.697200000  0.197200000  0.894410000
     0.000000000  0.000000000  0.000000000
     0.302800000  0.802800000  0.105590000
     0.197200000  0.302800000  0.500000000
     0.802800000  0.697200000  0.500000000
     0.500000000  0.500000000  1.000000000
     0.250000000  0.250000000  1.000000000
     0.750000000  0.750000000  1.000000000

  ion indices of the primitive-cell ions
   primitive index   ion index
                 1           1
                 2           2
                 3           3
                 4           4
                 5           5
                 6           6
                 7           7
                 8           8
                 9           9
                10          10
                11          11
                12          12

----------------------------------------------------------------------------------------

 
 
 KPOINTS: EA                                      

Automatic generation of k-mesh.
 Grid dimensions read from file:
 generate k-points for:    7    7    8

 Generating k-lattice:

  Cartesian coordinates                     Fractional coordinates (reciprocal lattice)
     0.024810899  0.008897546  0.000000000     0.142857143  0.000000000  0.000000000
     0.000000000  0.026358054  0.000000000     0.000000000  0.142857143  0.000000000
     0.010752228  0.015278619  0.018859840    -0.000000000 -0.000000000  0.125000000

  Length of vectors
     0.026358054  0.026358054  0.026546942

  Shift w.r.t. Gamma in fractional coordinates (k-lattice)
     0.000000000  0.000000000  0.000000000

 
 Subroutine IBZKPT returns following result:
 ===========================================
 
 Found    116 irreducible k-points:
 
 Following reciprocal coordinates:
            Coordinates               Weight
  0.000000  0.000000  0.000000      1.000000
  0.142857 -0.000000  0.000000      4.000000
  0.285714  0.000000  0.000000      4.000000
  0.428571  0.000000  0.000000      4.000000
  0.142857  0.142857  0.000000      2.000000
  0.285714  0.142857  0.000000      4.000000
  0.428571  0.142857  0.000000      4.000000
 -0.428571  0.142857  0.000000      4.000000
 -0.285714  0.142857  0.000000      4.000000
 -0.142857  0.142857  0.000000      2.000000
  0.285714  0.285714  0.000000      2.000000
  0.428571  0.285714  0.000000      4.000000
 -0.428571  0.285714  0.000000      4.000000
 -0.285714  0.285714  0.000000      2.000000
  0.428571  0.428571  0.000000      2.000000
 -0.428571  0.428571  0.000000      2.000000
 -0.000000 -0.000000  0.125000      2.000000
  0.142857  0.000000  0.125000      4.000000
  0.285714 -0.000000  0.125000      4.000000
  0.428571  0.000000  0.125000      4.000000
 -0.428571  0.000000  0.125000      4.000000
 -0.285714 -0.000000  0.125000      4.000000
 -0.142857  0.000000  0.125000      4.000000
  0.142857  0.142857  0.125000      2.000000
  0.285714  0.142857  0.125000      4.000000
  0.428571  0.142857  0.125000      4.000000
 -0.428571  0.142857  0.125000      4.000000
 -0.285714  0.142857  0.125000      4.000000
 -0.142857  0.142857  0.125000      4.000000
  0.285714  0.285714  0.125000      2.000000
  0.428571  0.285714  0.125000      4.000000
 -0.428571  0.285714  0.125000      4.000000
 -0.285714  0.285714  0.125000      4.000000
 -0.142857  0.285714  0.125000      4.000000
  0.428571  0.428571  0.125000      2.000000
 -0.428571  0.428571  0.125000      4.000000
 -0.285714  0.428571  0.125000      4.000000
 -0.142857  0.428571  0.125000      4.000000
 -0.428571 -0.428571  0.125000      2.000000
 -0.285714 -0.428571  0.125000      4.000000
 -0.142857 -0.428571  0.125000      4.000000
 -0.285714 -0.285714  0.125000      2.000000
 -0.142857 -0.285714  0.125000      4.000000
 -0.142857 -0.142857  0.125000      2.000000
 -0.000000 -0.000000  0.250000      2.000000
  0.142857  0.000000  0.250000      4.000000
  0.285714  0.000000  0.250000      4.000000
  0.428571 -0.000000  0.250000      4.000000
 -0.428571 -0.000000  0.250000      4.000000
 -0.285714 -0.000000  0.250000      4.000000
 -0.142857  0.000000  0.250000      4.000000
  0.142857  0.142857  0.250000      2.000000
  0.285714  0.142857  0.250000      4.000000
  0.428571  0.142857  0.250000      4.000000
 -0.428571  0.142857  0.250000      4.000000
 -0.285714  0.142857  0.250000      4.000000
 -0.142857  0.142857  0.250000      4.000000
  0.285714  0.285714  0.250000      2.000000
  0.428571  0.285714  0.250000      4.000000
 -0.428571  0.285714  0.250000      4.000000
 -0.285714  0.285714  0.250000      4.000000
 -0.142857  0.285714  0.250000      4.000000
  0.428571  0.428571  0.250000      2.000000
 -0.428571  0.428571  0.250000      4.000000
 -0.285714  0.428571  0.250000      4.000000
 -0.142857  0.428571  0.250000      4.000000
 -0.428571 -0.428571  0.250000      2.000000
 -0.285714 -0.428571  0.250000      4.000000
 -0.142857 -0.428571  0.250000      4.000000
 -0.285714 -0.285714  0.250000      2.000000
 -0.142857 -0.285714  0.250000      4.000000
 -0.142857 -0.142857  0.250000      2.000000
 -0.000000  0.000000  0.375000      2.000000
  0.142857  0.000000  0.375000      4.000000
  0.285714  0.000000  0.375000      4.000000
  0.428571  0.000000  0.375000      4.000000
 -0.428571  0.000000  0.375000      4.000000
 -0.285714  0.000000  0.375000      4.000000
 -0.142857  0.000000  0.375000      4.000000
  0.142857  0.142857  0.375000      2.000000
  0.285714  0.142857  0.375000      4.000000
  0.428571  0.142857  0.375000      4.000000
 -0.428571  0.142857  0.375000      4.000000
 -0.285714  0.142857  0.375000      4.000000
 -0.142857  0.142857  0.375000      4.000000
  0.285714  0.285714  0.375000      2.000000
  0.428571  0.285714  0.375000      4.000000
 -0.428571  0.285714  0.375000      4.000000
 -0.285714  0.285714  0.375000      4.000000
 -0.142857  0.285714  0.375000      4.000000
  0.428571  0.428571  0.375000      2.000000
 -0.428571  0.428571  0.375000      4.000000
 -0.285714  0.428571  0.375000      4.000000
 -0.142857  0.428571  0.375000      4.000000
 -0.428571 -0.428571  0.375000      2.000000
 -0.285714 -0.428571  0.375000      4.000000
 -0.142857 -0.428571  0.375000      4.000000
 -0.285714 -0.285714  0.375000      2.000000
 -0.142857 -0.285714  0.375000      4.000000
 -0.142857 -0.142857  0.375000      2.000000
 -0.000000 -0.000000  0.500000      1.000000
  0.142857  0.000000  0.500000      4.000000
  0.285714  0.000000  0.500000      4.000000
  0.428571  0.000000  0.500000      4.000000
  0.142857  0.142857  0.500000      2.000000
  0.285714  0.142857  0.500000      4.000000
  0.428571  0.142857  0.500000      4.000000
 -0.428571  0.142857  0.500000      4.000000
 -0.285714  0.142857  0.500000      4.000000
 -0.142857  0.142857  0.500000      2.000000
  0.285714  0.285714  0.500000      2.000000
  0.428571  0.285714  0.500000      4.000000
 -0.428571  0.285714  0.500000      4.000000
 -0.285714  0.285714  0.500000      2.000000
  0.428571  0.428571  0.500000      2.000000
 -0.428571  0.428571  0.500000      2.000000
 
 Following cartesian coordinates:
            Coordinates               Weight
  0.000000  0.000000  0.000000      1.000000
  0.024811  0.008898  0.000000      4.000000
  0.049622  0.017795  0.000000      4.000000
  0.074433  0.026693  0.000000      4.000000
  0.024811  0.035256  0.000000      2.000000
  0.049622  0.044153  0.000000      4.000000
  0.074433  0.053051  0.000000      4.000000
 -0.074433 -0.000335  0.000000      4.000000
 -0.049622  0.008563  0.000000      4.000000
 -0.024811  0.017461  0.000000      2.000000
  0.049622  0.070511  0.000000      2.000000
  0.074433  0.079409  0.000000      4.000000
 -0.074433  0.026023  0.000000      4.000000
 -0.049622  0.034921  0.000000      2.000000
  0.074433  0.105767  0.000000      2.000000
 -0.074433  0.052382  0.000000      2.000000
  0.010752  0.015279  0.018860      2.000000
  0.035563  0.024176  0.018860      4.000000
  0.060374  0.033074  0.018860      4.000000
  0.085185  0.041971  0.018860      4.000000
 -0.063680 -0.011414  0.018860      4.000000
 -0.038870 -0.002516  0.018860      4.000000
 -0.014059  0.006381  0.018860      4.000000
  0.035563  0.050534  0.018860      2.000000
  0.060374  0.059432  0.018860      4.000000
  0.085185  0.068329  0.018860      4.000000
 -0.063680  0.014944  0.018860      4.000000
 -0.038870  0.023842  0.018860      4.000000
 -0.014059  0.032739  0.018860      4.000000
  0.060374  0.085790  0.018860      2.000000
  0.085185  0.094687  0.018860      4.000000
 -0.063680  0.041302  0.018860      4.000000
 -0.038870  0.050200  0.018860      4.000000
 -0.014059  0.059097  0.018860      4.000000
  0.085185  0.121045  0.018860      2.000000
 -0.063680  0.067660  0.018860      4.000000
 -0.038870  0.076558  0.018860      4.000000
 -0.014059  0.085455  0.018860      4.000000
 -0.063680 -0.090488  0.018860      2.000000
 -0.038870 -0.081591  0.018860      4.000000
 -0.014059 -0.072693  0.018860      4.000000
 -0.038870 -0.055233  0.018860      2.000000
 -0.014059 -0.046335  0.018860      4.000000
 -0.014059 -0.019977  0.018860      2.000000
  0.021504  0.030557  0.037720      2.000000
  0.046315  0.039455  0.037720      4.000000
  0.071126  0.048352  0.037720      4.000000
  0.095937  0.057250  0.037720      4.000000
 -0.052928  0.003865  0.037720      4.000000
 -0.028117  0.012762  0.037720      4.000000
 -0.003306  0.021660  0.037720      4.000000
  0.046315  0.065813  0.037720      2.000000
  0.071126  0.074710  0.037720      4.000000
  0.095937  0.083608  0.037720      4.000000
 -0.052928  0.030223  0.037720      4.000000
 -0.028117  0.039120  0.037720      4.000000
 -0.003306  0.048018  0.037720      4.000000
  0.071126  0.101068  0.037720      2.000000
  0.095937  0.109966  0.037720      4.000000
 -0.052928  0.056581  0.037720      4.000000
 -0.028117  0.065478  0.037720      4.000000
 -0.003306  0.074376  0.037720      4.000000
  0.095937  0.136324  0.037720      2.000000
 -0.052928  0.082939  0.037720      4.000000
 -0.028117  0.091836  0.037720      4.000000
 -0.003306  0.100734  0.037720      4.000000
 -0.052928 -0.075210  0.037720      2.000000
 -0.028117 -0.066312  0.037720      4.000000
 -0.003306 -0.057414  0.037720      4.000000
 -0.028117 -0.039954  0.037720      2.000000
 -0.003306 -0.031056  0.037720      4.000000
 -0.003306 -0.004698  0.037720      2.000000
  0.032257  0.045836  0.056580      2.000000
  0.057068  0.054733  0.056580      4.000000
  0.081878  0.063631  0.056580      4.000000
  0.106689  0.072528  0.056580      4.000000
 -0.042176  0.019143  0.056580      4.000000
 -0.017365  0.028041  0.056580      4.000000
  0.007446  0.036938  0.056580      4.000000
  0.057068  0.081091  0.056580      2.000000
  0.081878  0.089989  0.056580      4.000000
  0.106689  0.098887  0.056580      4.000000
 -0.042176  0.045501  0.056580      4.000000
 -0.017365  0.054399  0.056580      4.000000
  0.007446  0.063296  0.056580      4.000000
  0.081878  0.116347  0.056580      2.000000
  0.106689  0.125245  0.056580      4.000000
 -0.042176  0.071859  0.056580      4.000000
 -0.017365  0.080757  0.056580      4.000000
  0.007446  0.089654  0.056580      4.000000
  0.106689  0.151603  0.056580      2.000000
 -0.042176  0.098217  0.056580      4.000000
 -0.017365  0.107115  0.056580      4.000000
  0.007446  0.116012  0.056580      4.000000
 -0.042176 -0.059931  0.056580      2.000000
 -0.017365 -0.051033  0.056580      4.000000
  0.007446 -0.042136  0.056580      4.000000
 -0.017365 -0.024675  0.056580      2.000000
  0.007446 -0.015778  0.056580      4.000000
  0.007446  0.010580  0.056580      2.000000
  0.043009  0.061114  0.075439      1.000000
  0.067820  0.070012  0.075439      4.000000
  0.092631  0.078910  0.075439      4.000000
  0.117442  0.087807  0.075439      4.000000
  0.067820  0.096370  0.075439      2.000000
  0.092631  0.105268  0.075439      4.000000
  0.117442  0.114165  0.075439      4.000000
 -0.031424  0.060780  0.075439      4.000000
 -0.006613  0.069677  0.075439      4.000000
  0.018198  0.078575  0.075439      2.000000
  0.092631  0.131626  0.075439      2.000000
  0.117442  0.140523  0.075439      4.000000
 -0.031424  0.087138  0.075439      4.000000
 -0.006613  0.096035  0.075439      2.000000
  0.117442  0.166881  0.075439      2.000000
 -0.031424  0.113496  0.075439      2.000000
 


--------------------------------------------------------------------------------------------------------




 Dimension of arrays:
   k-points           NKPTS =    116   k-points in BZ     NKDIM =    116   number of bands    NBANDS=     66
   number of dos      NEDOS =    301   number of ions     NIONS =     12
   non local maximal  LDIM  =      6   non local SUM 2l+1 LMDIM =     18
   total plane-waves  NPLWV = 157464
   max r-space proj   IRMAX =      1   max aug-charges    IRDMAX= 266515
   dimension x,y,z NGX =    54 NGY =   54 NGZ =   54
   dimension x,y,z NGXF=   108 NGYF=  108 NGZF=  108
   support grid    NGXF=   216 NGYF=  216 NGZF=  216
   ions per type =               4   6   2
   NGX,Y,Z   is equivalent  to a cutoff of  13.54, 13.54, 13.54 a.u.
   NGXF,Y,Z  is equivalent  to a cutoff of  27.09, 27.09, 27.09 a.u.

 SYSTEM =  routine with relax: pwdword             
 POSCAR =  EA239                                   

 Startparameter for this run:
   NWRITE =      2    write-flag & timer
   PREC   = acc       normal or accurate (medium, high low for compatibility)
   ISTART =      0    job   : 0-new  1-cont  2-samecut
   ICHARG =      2    charge: 1-file 2-atom 10-const
   ISPIN  =      1    spin polarized calculation?
   LNONCOLLINEAR =      F non collinear calculations
   LSORBIT =      F    spin-orbit coupling
   INIWAV =      1    electr: 0-lowe 1-rand  2-diag
   LASPH  =      T    aspherical Exc in radial PAW
   METAGGA=      F    non-selfconsistent MetaGGA calc.

 Electronic Relaxation 1
   ENCUT  =  600.0 eV  44.10 Ry    6.64 a.u.  13.24 13.24 13.24*2*pi/ulx,y,z
   ENINI  =  600.0     initial cutoff
   ENAUG  =  535.5 eV  augmentation charge cutoff
   NELM   =    100;   NELMIN=  6; NELMDL= -5     # of ELM steps 
   EDIFF  = 0.1E-08   stopping-criterion for ELM
   LREAL  =      F    real-space projection
   NLSPLINE    = F    spline interpolate recip. space projectors
   LCOMPAT=      F    compatible to vasp.4.4
   GGA_COMPAT  = T    GGA compatible to vasp.4.4-vasp.4.6
   LMAXPAW     = -100 max onsite density
   LMAXMIX     =    2 max onsite mixed and CHGCAR
   VOSKOWN=      0    Vosko Wilk Nusair interpolation
   ROPT   =    0.00000   0.00000   0.00000
 Ionic relaxation
   EDIFFG = 0.1E-07   stopping-criterion for IOM
   NSW    =      0    number of steps for IOM
   NBLOCK =      1;   KBLOCK =      1    inner block; outer block 
   IBRION =     -1    ionic relax: 0-MD 1-quasi-New 2-CG
   NFREE  =      0    steps in history (QN), initial steepest desc. (CG)
   ISIF   =     -1    stress and relaxation
   IWAVPR =     10    prediction:  0-non 1-charg 2-wave 3-comb
   ISYM   =      2    0-nonsym 1-usesym 2-fastsym
   LCORR  =      T    Harris-Foulkes like correction to forces

   POTIM  = 0.5000    time-step for ionic-motion
   TEIN   =    0.0    initial temperature
   TEBEG  =    0.0;   TEEND  =   0.0 temperature during run
   SMASS  =  -3.00    Nose mass-parameter (am)
   estimated Nose-frequenzy (Omega)   =  0.10E-29 period in steps = 0.13E+47 mass=  -0.100E-26a.u.
   SCALEE = 1.0000    scale energy and forces
   NPACO  =    256;   APACO  = 16.0  distance and # of slots for P.C.
   PSTRESS=    0.0 pullay stress

  Mass of Ions in am
   POMASS =  10.81 95.94 28.09
  Ionic Valenz
   ZVAL   =   3.00 14.00  4.00
  Atomic Wigner-Seitz radii
   RWIGS  =  -1.00 -1.00 -1.00
  virtual crystal weights 
   VCA    =   1.00  1.00  1.00
   NELECT =     104.0000    total number of electrons
   NUPDOWN=      -1.0000    fix difference up-down

 DOS related values:
   EMIN   =  10.00;   EMAX   =-10.00  energy-range for DOS
   EFERMI =   0.00
   ISMEAR =     0;   SIGMA  =   0.02  broadening in eV -4-tet -1-fermi 0-gaus

 Electronic relaxation 2 (details)
   IALGO  =     58    algorithm
   LDIAG  =      T    sub-space diagonalisation (order eigenvalues)
   LSUBROT=      F    optimize rotation matrix (better conditioning)
   TURBO    =      0    0=normal 1=particle mesh
   IRESTART =      0    0=no restart 2=restart with 2 vectors
   NREBOOT  =      0    no. of reboots
   NMIN     =      0    reboot dimension
   EREF     =   0.00    reference energy to select bands
   IMIX   =      4    mixing-type and parameters
     AMIX     =   0.40;   BMIX     =  1.00
     AMIX_MAG =   1.60;   BMIX_MAG =  1.00
     AMIN     =   0.10
     WC   =   100.;   INIMIX=   1;  MIXPRE=   1;  MAXMIX= -45

 Intra band minimization:
   WEIMIN = 0.0000     energy-eigenvalue tresh-hold
   EBREAK =  0.38E-11  absolut break condition
   DEPER  =   0.30     relativ break condition  

   TIME   =   0.40     timestep for ELM

  volume/ion in A,a.u.               =      17.24       116.31
  Fermi-wavevector in a.u.,A,eV,Ry     =   1.301805  2.460055 23.057740  1.694696
  Thomas-Fermi vector in A             =   2.432915
 
 Write flags
   LWAVE        =      T    write WAVECAR
   LDOWNSAMPLE  =      F    k-point downsampling of WAVECAR
   LCHARG       =      T    write CHGCAR
   LVTOT        =      F    write LOCPOT, total local potential
   LVHAR        =      F    write LOCPOT, Hartree potential only
   LELF         =      F    write electronic localiz. function (ELF)
   LORBIT       =      0    0 simple, 1 ext, 2 COOP (PROOUT), +10 PAW based schemes


 Dipole corrections
   LMONO  =      F    monopole corrections only (constant potential shift)
   LDIPOL =      F    correct potential (dipole corrections)
   IDIPOL =      0    1-x, 2-y, 3-z, 4-all directions 
   EPSILON=  1.0000000 bulk dielectric constant

 Exchange correlation treatment:
   GGA     =    --    GGA type
   LEXCH   =     8    internal setting for exchange type
   VOSKOWN=      0    Vosko Wilk Nusair interpolation
   LHFCALC =     F    Hartree Fock is set to
   LHFONE  =     F    Hartree Fock one center treatment
   AEXX    =    0.0000 exact exchange contribution

 Linear response parameters
   LEPSILON=     F    determine dielectric tensor
   LRPA    =     F    only Hartree local field effects (RPA)
   LNABLA  =     F    use nabla operator in PAW spheres
   LVEL    =     F    velocity operator in full k-point grid
   LINTERFAST=   F  fast interpolation
   KINTER  =     0    interpolate to denser k-point grid
   CSHIFT  =0.1000    complex shift for real part using Kramers Kronig
   OMEGAMAX=  -1.0    maximum frequency
   DEG_THRESHOLD= 0.2000000E-02 threshold for treating states as degnerate
   RTIME   =   -0.100 relaxation time in fs
  (WPLASMAI=    0.000 imaginary part of plasma frequency in eV, 0.658/RTIME)
   DFIELD  = 0.0000000 0.0000000 0.0000000 field for delta impulse in time
 
 Orbital magnetization related:
   ORBITALMAG=     F  switch on orbital magnetization
   LCHIMAG   =     F  perturbation theory with respect to B field
   DQ        =  0.001000  dq finite difference perturbation B field
   LLRAUG    =     F  two centre corrections for induced B field



--------------------------------------------------------------------------------------------------------


 Static calculation
 charge density and potential will be updated during run
 non-spin polarized calculation
 Conjugate gradient for all bands (Freysoldt, et al. PRB 79, 241103 (2009))
 preconditioned conjugated gradient                                        
 perform sub-space diagonalisation
    before iterative eigenvector-optimisation
 modified Broyden-mixing scheme, WC =      100.0
 initial mixing is a Kerker type mixing with AMIX =  0.4000 and BMIX =      1.0000
 Hartree-type preconditioning will be used
 using additional bands           14
 reciprocal scheme for non local part
 use partial core corrections
 no Harris-corrections to forces 
 use gradient corrections 
 use of overlap-Matrix (Vanderbilt PP)
 Gauss-broadening in eV      SIGMA  =   0.02


--------------------------------------------------------------------------------------------------------


  energy-cutoff  :      600.00
  volume of cell :      206.83
      direct lattice vectors                 reciprocal lattice vectors
     5.757838332  0.000000000 -3.282614934     0.173676290  0.062282822  0.000000000
    -1.943642412  5.419866828 -3.282614934     0.000000000  0.184506378  0.000000000
     0.000000000  0.000000000  6.627840000     0.086017825  0.122228949  0.150878718

  length of vectors
     6.627840000  6.627840000  6.627840000     0.184506378  0.184506378  0.212375539


 
 k-points in units of 2pi/SCALE and weight: EA                                      
   0.00000000  0.00000000  0.00000000       0.003
   0.02481090  0.00889755  0.00000000       0.010
   0.04962180  0.01779509  0.00000000       0.010
   0.07443270  0.02669264  0.00000000       0.010
   0.02481090  0.03525560  0.00000000       0.005
   0.04962180  0.04415315  0.00000000       0.010
   0.07443270  0.05305069  0.00000000       0.010
  -0.07443270 -0.00033458  0.00000000       0.010
  -0.04962180  0.00856296  0.00000000       0.010
  -0.02481090  0.01746051  0.00000000       0.005
   0.04962180  0.07051120  0.00000000       0.005
   0.07443270  0.07940875  0.00000000       0.010
  -0.07443270  0.02602347  0.00000000       0.010
  -0.04962180  0.03492102  0.00000000       0.005
   0.07443270  0.10576680  0.00000000       0.005
  -0.07443270  0.05238152  0.00000000       0.005
   0.01075223  0.01527862  0.01885984       0.005
   0.03556313  0.02417616  0.01885984       0.010
   0.06037403  0.03307371  0.01885984       0.010
   0.08518492  0.04197126  0.01885984       0.010
  -0.06368047 -0.01141402  0.01885984       0.010
  -0.03886957 -0.00251647  0.01885984       0.010
  -0.01405867  0.00638107  0.01885984       0.010
   0.03556313  0.05053422  0.01885984       0.005
   0.06037403  0.05943176  0.01885984       0.010
   0.08518492  0.06832931  0.01885984       0.010
  -0.06368047  0.01494403  0.01885984       0.010
  -0.03886957  0.02384158  0.01885984       0.010
  -0.01405867  0.03273913  0.01885984       0.010
   0.06037403  0.08578982  0.01885984       0.005
   0.08518492  0.09468736  0.01885984       0.010
  -0.06368047  0.04130209  0.01885984       0.010
  -0.03886957  0.05019963  0.01885984       0.010
  -0.01405867  0.05909718  0.01885984       0.010
   0.08518492  0.12104542  0.01885984       0.005
  -0.06368047  0.06766014  0.01885984       0.010
  -0.03886957  0.07655769  0.01885984       0.010
  -0.01405867  0.08545523  0.01885984       0.010
  -0.06368047 -0.09048818  0.01885984       0.005
  -0.03886957 -0.08159064  0.01885984       0.010
  -0.01405867 -0.07269309  0.01885984       0.010
  -0.03886957 -0.05523258  0.01885984       0.005
  -0.01405867 -0.04633504  0.01885984       0.010
  -0.01405867 -0.01997698  0.01885984       0.005
   0.02150446  0.03055724  0.03771968       0.005
   0.04631535  0.03945478  0.03771968       0.010
   0.07112625  0.04835233  0.03771968       0.010
   0.09593715  0.05724988  0.03771968       0.010
  -0.05292824  0.00386460  0.03771968       0.010
  -0.02811734  0.01276215  0.03771968       0.010
  -0.00330644  0.02165969  0.03771968       0.010
   0.04631535  0.06581284  0.03771968       0.005
   0.07112625  0.07471038  0.03771968       0.010
   0.09593715  0.08360793  0.03771968       0.010
  -0.05292824  0.03022265  0.03771968       0.010
  -0.02811734  0.03912020  0.03771968       0.010
  -0.00330644  0.04801775  0.03771968       0.010
   0.07112625  0.10106844  0.03771968       0.005
   0.09593715  0.10996598  0.03771968       0.010
  -0.05292824  0.05658071  0.03771968       0.010
  -0.02811734  0.06547825  0.03771968       0.010
  -0.00330644  0.07437580  0.03771968       0.010
   0.09593715  0.13632404  0.03771968       0.005
  -0.05292824  0.08293876  0.03771968       0.010
  -0.02811734  0.09183631  0.03771968       0.010
  -0.00330644  0.10073385  0.03771968       0.010
  -0.05292824 -0.07520956  0.03771968       0.005
  -0.02811734 -0.06631202  0.03771968       0.010
  -0.00330644 -0.05741447  0.03771968       0.010
  -0.02811734 -0.03995396  0.03771968       0.005
  -0.00330644 -0.03105642  0.03771968       0.010
  -0.00330644 -0.00469836  0.03771968       0.005
   0.03225668  0.04583586  0.05657952       0.005
   0.05706758  0.05473340  0.05657952       0.010
   0.08187848  0.06363095  0.05657952       0.010
   0.10668938  0.07252849  0.05657952       0.010
  -0.04217601  0.01914322  0.05657952       0.010
  -0.01736511  0.02804076  0.05657952       0.010
   0.00744579  0.03693831  0.05657952       0.010
   0.05706758  0.08109146  0.05657952       0.005
   0.08187848  0.08998900  0.05657952       0.010
   0.10668938  0.09888655  0.05657952       0.010
  -0.04217601  0.04550127  0.05657952       0.010
  -0.01736511  0.05439882  0.05657952       0.010
   0.00744579  0.06329636  0.05657952       0.010
   0.08187848  0.11634706  0.05657952       0.005
   0.10668938  0.12524460  0.05657952       0.010
  -0.04217601  0.07185933  0.05657952       0.010
  -0.01736511  0.08075687  0.05657952       0.010
   0.00744579  0.08965442  0.05657952       0.010
   0.10668938  0.15160266  0.05657952       0.005
  -0.04217601  0.09821738  0.05657952       0.010
  -0.01736511  0.10711493  0.05657952       0.010
   0.00744579  0.11601247  0.05657952       0.010
  -0.04217601 -0.05993094  0.05657952       0.005
  -0.01736511 -0.05103340  0.05657952       0.010
   0.00744579 -0.04213585  0.05657952       0.010
  -0.01736511 -0.02467534  0.05657952       0.005
   0.00744579 -0.01577780  0.05657952       0.010
   0.00744579  0.01058026  0.05657952       0.005
   0.04300891  0.06111447  0.07543936       0.003
   0.06781981  0.07001202  0.07543936       0.010
   0.09263071  0.07890957  0.07543936       0.010
   0.11744161  0.08780711  0.07543936       0.010
   0.06781981  0.09637007  0.07543936       0.005
   0.09263071  0.10526762  0.07543936       0.010
   0.11744161  0.11416517  0.07543936       0.010
  -0.03142378  0.06077989  0.07543936       0.010
  -0.00661288  0.06967744  0.07543936       0.010
   0.01819801  0.07857498  0.07543936       0.005
   0.09263071  0.13162567  0.07543936       0.005
   0.11744161  0.14052322  0.07543936       0.010
  -0.03142378  0.08713794  0.07543936       0.010
  -0.00661288  0.09603549  0.07543936       0.005
   0.11744161  0.16688127  0.07543936       0.005
  -0.03142378  0.11349600  0.07543936       0.005
 
 k-points in reciprocal lattice and weights: EA                                      
   0.00000000  0.00000000  0.00000000       0.003
   0.14285714 -0.00000000  0.00000000       0.010
   0.28571429  0.00000000  0.00000000       0.010
   0.42857143  0.00000000  0.00000000       0.010
   0.14285714  0.14285714  0.00000000       0.005
   0.28571429  0.14285714  0.00000000       0.010
   0.42857143  0.14285714  0.00000000       0.010
  -0.42857143  0.14285714  0.00000000       0.010
  -0.28571429  0.14285714  0.00000000       0.010
  -0.14285714  0.14285714  0.00000000       0.005
   0.28571429  0.28571429  0.00000000       0.005
   0.42857143  0.28571429  0.00000000       0.010
  -0.42857143  0.28571429  0.00000000       0.010
  -0.28571429  0.28571429  0.00000000       0.005
   0.42857143  0.42857143  0.00000000       0.005
  -0.42857143  0.42857143  0.00000000       0.005
  -0.00000000 -0.00000000  0.12500000       0.005
   0.14285714  0.00000000  0.12500000       0.010
   0.28571429 -0.00000000  0.12500000       0.010
   0.42857143  0.00000000  0.12500000       0.010
  -0.42857143  0.00000000  0.12500000       0.010
  -0.28571429 -0.00000000  0.12500000       0.010
  -0.14285714  0.00000000  0.12500000       0.010
   0.14285714  0.14285714  0.12500000       0.005
   0.28571429  0.14285714  0.12500000       0.010
   0.42857143  0.14285714  0.12500000       0.010
  -0.42857143  0.14285714  0.12500000       0.010
  -0.28571429  0.14285714  0.12500000       0.010
  -0.14285714  0.14285714  0.12500000       0.010
   0.28571429  0.28571429  0.12500000       0.005
   0.42857143  0.28571429  0.12500000       0.010
  -0.42857143  0.28571429  0.12500000       0.010
  -0.28571429  0.28571429  0.12500000       0.010
  -0.14285714  0.28571429  0.12500000       0.010
   0.42857143  0.42857143  0.12500000       0.005
  -0.42857143  0.42857143  0.12500000       0.010
  -0.28571429  0.42857143  0.12500000       0.010
  -0.14285714  0.42857143  0.12500000       0.010
  -0.42857143 -0.42857143  0.12500000       0.005
  -0.28571429 -0.42857143  0.12500000       0.010
  -0.14285714 -0.42857143  0.12500000       0.010
  -0.28571429 -0.28571429  0.12500000       0.005
  -0.14285714 -0.28571429  0.12500000       0.010
  -0.14285714 -0.14285714  0.12500000       0.005
  -0.00000000 -0.00000000  0.25000000       0.005
   0.14285714  0.00000000  0.25000000       0.010
   0.28571429  0.00000000  0.25000000       0.010
   0.42857143 -0.00000000  0.25000000       0.010
  -0.42857143 -0.00000000  0.25000000       0.010
  -0.28571429 -0.00000000  0.25000000       0.010
  -0.14285714  0.00000000  0.25000000       0.010
   0.14285714  0.14285714  0.25000000       0.005
   0.28571429  0.14285714  0.25000000       0.010
   0.42857143  0.14285714  0.25000000       0.010
  -0.42857143  0.14285714  0.25000000       0.010
  -0.28571429  0.14285714  0.25000000       0.010
  -0.14285714  0.14285714  0.25000000       0.010
   0.28571429  0.28571429  0.25000000       0.005
   0.42857143  0.28571429  0.25000000       0.010
  -0.42857143  0.28571429  0.25000000       0.010
  -0.28571429  0.28571429  0.25000000       0.010
  -0.14285714  0.28571429  0.25000000       0.010
   0.42857143  0.42857143  0.25000000       0.005
  -0.42857143  0.42857143  0.25000000       0.010
  -0.28571429  0.42857143  0.25000000       0.010
  -0.14285714  0.42857143  0.25000000       0.010
  -0.42857143 -0.42857143  0.25000000       0.005
  -0.28571429 -0.42857143  0.25000000       0.010
  -0.14285714 -0.42857143  0.25000000       0.010
  -0.28571429 -0.28571429  0.25000000       0.005
  -0.14285714 -0.28571429  0.25000000       0.010
  -0.14285714 -0.14285714  0.25000000       0.005
  -0.00000000  0.00000000  0.37500000       0.005
   0.14285714  0.00000000  0.37500000       0.010
   0.28571429  0.00000000  0.37500000       0.010
   0.42857143  0.00000000  0.37500000       0.010
  -0.42857143  0.00000000  0.37500000       0.010
  -0.28571429  0.00000000  0.37500000       0.010
  -0.14285714  0.00000000  0.37500000       0.010
   0.14285714  0.14285714  0.37500000       0.005
   0.28571429  0.14285714  0.37500000       0.010
   0.42857143  0.14285714  0.37500000       0.010
  -0.42857143  0.14285714  0.37500000       0.010
  -0.28571429  0.14285714  0.37500000       0.010
  -0.14285714  0.14285714  0.37500000       0.010
   0.28571429  0.28571429  0.37500000       0.005
   0.42857143  0.28571429  0.37500000       0.010
  -0.42857143  0.28571429  0.37500000       0.010
  -0.28571429  0.28571429  0.37500000       0.010
  -0.14285714  0.28571429  0.37500000       0.010
   0.42857143  0.42857143  0.37500000       0.005
  -0.42857143  0.42857143  0.37500000       0.010
  -0.28571429  0.42857143  0.37500000       0.010
  -0.14285714  0.42857143  0.37500000       0.010
  -0.42857143 -0.42857143  0.37500000       0.005
  -0.28571429 -0.42857143  0.37500000       0.010
  -0.14285714 -0.42857143  0.37500000       0.010
  -0.28571429 -0.28571429  0.37500000       0.005
  -0.14285714 -0.28571429  0.37500000       0.010
  -0.14285714 -0.14285714  0.37500000       0.005
  -0.00000000 -0.00000000  0.50000000       0.003
   0.14285714  0.00000000  0.50000000       0.010
   0.28571429  0.00000000  0.50000000       0.010
   0.42857143  0.00000000  0.50000000       0.010
   0.14285714  0.14285714  0.50000000       0.005
   0.28571429  0.14285714  0.50000000       0.010
   0.42857143  0.14285714  0.50000000       0.010
  -0.42857143  0.14285714  0.50000000       0.010
  -0.28571429  0.14285714  0.50000000       0.010
  -0.14285714  0.14285714  0.50000000       0.005
   0.28571429  0.28571429  0.50000000       0.005
   0.42857143  0.28571429  0.50000000       0.010
  -0.42857143  0.28571429  0.50000000       0.010
  -0.28571429  0.28571429  0.50000000       0.005
   0.42857143  0.42857143  0.50000000       0.005
  -0.42857143  0.42857143  0.50000000       0.005
 
 position of ions in fractional coordinates (direct lattice) 
   0.92937000  0.42937000  0.35874000
   0.07063000  0.57063000  0.64126000
   0.42937000  0.07063000  0.50000000
   0.57063000  0.92937000  0.50000000
   0.69720000  0.19720000  0.89441000
   0.00000000  0.00000000  0.00000000
   0.30280000  0.80280000  0.10559000
   0.19720000  0.30280000  0.50000000
   0.80280000  0.69720000  0.50000000
   0.50000000  0.50000000  0.00000000
   0.25000000  0.25000000  0.00000000
   0.75000000  0.75000000  0.00000000
 
 position of ions in cartesian coordinates  (Angst):
   4.51662047  2.32712822 -2.08254889
  -0.70242455  3.09273861  2.14515903
   2.33496358  0.38280519  1.67261253
   1.47923234  5.03706163 -1.61000240
   3.63107860  1.06879774  2.99203558
   0.00000000  0.00000000  0.00000000
   0.18311732  4.35106909 -2.92942545
   0.54691080  1.64113568  1.67261253
   3.26728512  3.77873115 -1.61000240
   1.90709796  2.70993341 -3.28261493
   0.95354898  1.35496671 -1.64130747
   2.86064694  4.06490012 -4.92392240
 


--------------------------------------------------------------------------------------------------------


 k-point   1 :   0.0000 0.0000 0.0000  plane waves:    6863
 k-point   2 :   0.1429-0.0000 0.0000  plane waves:    6896
 k-point   3 :   0.2857 0.0000 0.0000  plane waves:    6906
 k-point   4 :   0.4286 0.0000 0.0000  plane waves:    6911
 k-point   5 :   0.1429 0.1429 0.0000  plane waves:    6897
 k-point   6 :   0.2857 0.1429 0.0000  plane waves:    6903
 k-point   7 :   0.4286 0.1429 0.0000  plane waves:    6906
 k-point   8 :  -0.4286 0.1429 0.0000  plane waves:    6911
 k-point   9 :  -0.2857 0.1429 0.0000  plane waves:    6899
 k-point  10 :  -0.1429 0.1429 0.0000  plane waves:    6905
 k-point  11 :   0.2857 0.2857 0.0000  plane waves:    6903
 k-point  12 :   0.4286 0.2857 0.0000  plane waves:    6894
 k-point  13 :  -0.4286 0.2857 0.0000  plane waves:    6906
 k-point  14 :  -0.2857 0.2857 0.0000  plane waves:    6905
 k-point  15 :   0.4286 0.4286 0.0000  plane waves:    6906
 k-point  16 :  -0.4286 0.4286 0.0000  plane waves:    6918
 k-point  17 :  -0.0000-0.0000 0.1250  plane waves:    6901
 k-point  18 :   0.1429 0.0000 0.1250  plane waves:    6903
 k-point  19 :   0.2857-0.0000 0.1250  plane waves:    6904
 k-point  20 :   0.4286 0.0000 0.1250  plane waves:    6906
 k-point  21 :  -0.4286 0.0000 0.1250  plane waves:    6905
 k-point  22 :  -0.2857-0.0000 0.1250  plane waves:    6894
 k-point  23 :  -0.1429 0.0000 0.1250  plane waves:    6893
 k-point  24 :   0.1429 0.1429 0.1250  plane waves:    6898
 k-point  25 :   0.2857 0.1429 0.1250  plane waves:    6899
 k-point  26 :   0.4286 0.1429 0.1250  plane waves:    6893
 k-point  27 :  -0.4286 0.1429 0.1250  plane waves:    6898
 k-point  28 :  -0.2857 0.1429 0.1250  plane waves:    6897
 k-point  29 :  -0.1429 0.1429 0.1250  plane waves:    6921
 k-point  30 :   0.2857 0.2857 0.1250  plane waves:    6886
 k-point  31 :   0.4286 0.2857 0.1250  plane waves:    6900
 k-point  32 :  -0.4286 0.2857 0.1250  plane waves:    6914
 k-point  33 :  -0.2857 0.2857 0.1250  plane waves:    6909
 k-point  34 :  -0.1429 0.2857 0.1250  plane waves:    6898
 k-point  35 :   0.4286 0.4286 0.1250  plane waves:    6912
 k-point  36 :  -0.4286 0.4286 0.1250  plane waves:    6900
 k-point  37 :  -0.2857 0.4286 0.1250  plane waves:    6901
 k-point  38 :  -0.1429 0.4286 0.1250  plane waves:    6909
 k-point  39 :  -0.4286-0.4286 0.1250  plane waves:    6889
 k-point  40 :  -0.2857-0.4286 0.1250  plane waves:    6906
 k-point  41 :  -0.1429-0.4286 0.1250  plane waves:    6905
 k-point  42 :  -0.2857-0.2857 0.1250  plane waves:    6906
 k-point  43 :  -0.1429-0.2857 0.1250  plane waves:    6905
 k-point  44 :  -0.1429-0.1429 0.1250  plane waves:    6893
 k-point  45 :  -0.0000-0.0000 0.2500  plane waves:    6909
 k-point  46 :   0.1429 0.0000 0.2500  plane waves:    6908
 k-point  47 :   0.2857 0.0000 0.2500  plane waves:    6890
 k-point  48 :   0.4286-0.0000 0.2500  plane waves:    6899
 k-point  49 :  -0.4286-0.0000 0.2500  plane waves:    6892
 k-point  50 :  -0.2857-0.0000 0.2500  plane waves:    6900
 k-point  51 :  -0.1429 0.0000 0.2500  plane waves:    6909
 k-point  52 :   0.1429 0.1429 0.2500  plane waves:    6912
 k-point  53 :   0.2857 0.1429 0.2500  plane waves:    6888
 k-point  54 :   0.4286 0.1429 0.2500  plane waves:    6895
 k-point  55 :  -0.4286 0.1429 0.2500  plane waves:    6905
 k-point  56 :  -0.2857 0.1429 0.2500  plane waves:    6901
 k-point  57 :  -0.1429 0.1429 0.2500  plane waves:    6908
 k-point  58 :   0.2857 0.2857 0.2500  plane waves:    6875
 k-point  59 :   0.4286 0.2857 0.2500  plane waves:    6888
 k-point  60 :  -0.4286 0.2857 0.2500  plane waves:    6902
 k-point  61 :  -0.2857 0.2857 0.2500  plane waves:    6917
 k-point  62 :  -0.1429 0.2857 0.2500  plane waves:    6903
 k-point  63 :   0.4286 0.4286 0.2500  plane waves:    6897
 k-point  64 :  -0.4286 0.4286 0.2500  plane waves:    6878
 k-point  65 :  -0.2857 0.4286 0.2500  plane waves:    6900
 k-point  66 :  -0.1429 0.4286 0.2500  plane waves:    6899
 k-point  67 :  -0.4286-0.4286 0.2500  plane waves:    6905
 k-point  68 :  -0.2857-0.4286 0.2500  plane waves:    6905
 k-point  69 :  -0.1429-0.4286 0.2500  plane waves:    6906
 k-point  70 :  -0.2857-0.2857 0.2500  plane waves:    6910
 k-point  71 :  -0.1429-0.2857 0.2500  plane waves:    6908
 k-point  72 :  -0.1429-0.1429 0.2500  plane waves:    6907
 k-point  73 :  -0.0000 0.0000 0.3750  plane waves:    6929
 k-point  74 :   0.1429 0.0000 0.3750  plane waves:    6907
 k-point  75 :   0.2857 0.0000 0.3750  plane waves:    6896
 k-point  76 :   0.4286 0.0000 0.3750  plane waves:    6905
 k-point  77 :  -0.4286 0.0000 0.3750  plane waves:    6900
 k-point  78 :  -0.2857 0.0000 0.3750  plane waves:    6897
 k-point  79 :  -0.1429 0.0000 0.3750  plane waves:    6903
 k-point  80 :   0.1429 0.1429 0.3750  plane waves:    6902
 k-point  81 :   0.2857 0.1429 0.3750  plane waves:    6885
 k-point  82 :   0.4286 0.1429 0.3750  plane waves:    6897
 k-point  83 :  -0.4286 0.1429 0.3750  plane waves:    6917
 k-point  84 :  -0.2857 0.1429 0.3750  plane waves:    6901
 k-point  85 :  -0.1429 0.1429 0.3750  plane waves:    6900
 k-point  86 :   0.2857 0.2857 0.3750  plane waves:    6896
 k-point  87 :   0.4286 0.2857 0.3750  plane waves:    6903
 k-point  88 :  -0.4286 0.2857 0.3750  plane waves:    6902
 k-point  89 :  -0.2857 0.2857 0.3750  plane waves:    6898
 k-point  90 :  -0.1429 0.2857 0.3750  plane waves:    6894
 k-point  91 :   0.4286 0.4286 0.3750  plane waves:    6903
 k-point  92 :  -0.4286 0.4286 0.3750  plane waves:    6908
 k-point  93 :  -0.2857 0.4286 0.3750  plane waves:    6901
 k-point  94 :  -0.1429 0.4286 0.3750  plane waves:    6918
 k-point  95 :  -0.4286-0.4286 0.3750  plane waves:    6924
 k-point  96 :  -0.2857-0.4286 0.3750  plane waves:    6912
 k-point  97 :  -0.1429-0.4286 0.3750  plane waves:    6906
 k-point  98 :  -0.2857-0.2857 0.3750  plane waves:    6901
 k-point  99 :  -0.1429-0.2857 0.3750  plane waves:    6896
 k-point 100 :  -0.1429-0.1429 0.3750  plane waves:    6888
 k-point 101 :  -0.0000-0.0000 0.5000  plane waves:    6910
 k-point 102 :   0.1429 0.0000 0.5000  plane waves:    6908
 k-point 103 :   0.2857 0.0000 0.5000  plane waves:    6903
 k-point 104 :   0.4286 0.0000 0.5000  plane waves:    6909
 k-point 105 :   0.1429 0.1429 0.5000  plane waves:    6902
 k-point 106 :   0.2857 0.1429 0.5000  plane waves:    6911
 k-point 107 :   0.4286 0.1429 0.5000  plane waves:    6902
 k-point 108 :  -0.4286 0.1429 0.5000  plane waves:    6908
 k-point 109 :  -0.2857 0.1429 0.5000  plane waves:    6894
 k-point 110 :  -0.1429 0.1429 0.5000  plane waves:    6896
 k-point 111 :   0.2857 0.2857 0.5000  plane waves:    6901
 k-point 112 :   0.4286 0.2857 0.5000  plane waves:    6908
 k-point 113 :  -0.4286 0.2857 0.5000  plane waves:    6906
 k-point 114 :  -0.2857 0.2857 0.5000  plane waves:    6892
 k-point 115 :   0.4286 0.4286 0.5000  plane waves:    6922
 k-point 116 :  -0.4286 0.4286 0.5000  plane waves:    6920

 maximum and minimum number of plane-waves per node :      3473     3425

 maximum number of plane-waves:      6929
 maximum index in each direction: 
   IXMAX=   13   IYMAX=   13   IZMAX=   13
   IXMIN=  -13   IYMIN=  -13   IZMIN=  -13


 parallel 3D FFT for wavefunctions:
    minimum data exchange during FFTs selected (reduces bandwidth)
 parallel 3D FFT for charge:
    minimum data exchange during FFTs selected (reduces bandwidth)


 total amount of memory used by VASP MPI-rank0   453530. kBytes
=======================================================================

   base      :      30000. kBytes
   nonl-proj :     174756. kBytes
   fftplans  :      17772. kBytes
   grid      :      13358. kBytes
   one-center:         93. kBytes
   wavefun   :     217551. kBytes
 
     INWAV:  cpu time    0.0001: real time    0.0001
 Broyden mixing: mesh for mixing (old mesh)
   NGX = 27   NGY = 27   NGZ = 27
  (NGX  =108   NGY  =108   NGZ  =108)
  gives a total of  19683 points

 initial charge density was supplied:
 charge density of overlapping atoms calculated
 number of electron     104.0000000 magnetization 
 keeping initial charge density in first step


--------------------------------------------------------------------------------------------------------


 Maximum index for augmentation-charges        21711 (set IRDMAX)


--------------------------------------------------------------------------------------------------------


 First call to EWALD:  gamma=   0.300
 Maximum number of real-space cells 3x 3x 3
 Maximum number of reciprocal cells 3x 3x 3

    FEWALD:  cpu time    0.0371: real time    0.0373


--------------------------------------- Iteration      1(   1)  ---------------------------------------


    POTLOK:  cpu time    0.2164: real time    0.2183
    SETDIJ:  cpu time    0.6174: real time    0.6217
    TRIAL :  cpu time   34.0029: real time   34.3280
    CORREC:  cpu time    0.0022: real time    0.0022
    --------------------------------------------
      LOOP:  cpu time   34.9671: real time   35.3037

 eigenvalue-minimisations  : 16296
 total energy-change (2. order) : 0.1068114E+04  (-0.6888851E+04)
 number of electron     104.0000000 magnetization 
 augmentation part      104.0000000 magnetization 

 Free energy of the ion-electron system (eV)
  ---------------------------------------------------
  alpha Z        PSCENC =       451.71296512
  Ewald energy   TEWEN  =     -7224.25275367
  -Hartree energ DENC   =     -4027.97176143
  -exchange      EXHF   =         0.00000000
  -V(xc)+E(xc)   XCENC  =       482.82702256
  PAW double counting   =      9250.47132855    -9210.50234729
  entropy T*S    EENTRO =        -0.00082255
  eigenvalues    EBANDS =      -318.67599496
  atomic energy  EATOM  =     11664.50664672
  ---------------------------------------------------
  free energy    TOTEN  =      1068.11428305 eV

  energy without entropy =     1068.11510560  energy(sigma->0) =     1068.11469432


--------------------------------------------------------------------------------------------------------




--------------------------------------- Iteration      1(   2)  ---------------------------------------


    TRIAL :  cpu time   39.3435: real time   39.6937
    CORREC:  cpu time    0.0021: real time    0.0022
    --------------------------------------------
      LOOP:  cpu time   39.3485: real time   39.6994

 eigenvalue-minimisations  : 17424
 total energy-change (2. order) :-0.1252311E+04  (-0.1220676E+04)
 number of electron     104.0000000 magnetization 
 augmentation part      104.0000000 magnetization 

 Free energy of the ion-electron system (eV)
  ---------------------------------------------------
  alpha Z        PSCENC =       451.71296512
  Ewald energy   TEWEN  =     -7224.25275367
  -Hartree energ DENC   =     -4027.97176143
  -exchange      EXHF   =         0.00000000
  -V(xc)+E(xc)   XCENC  =       482.82702256
  PAW double counting   =      9250.47132855    -9210.50234729
  entropy T*S    EENTRO =        -0.00197369
  eigenvalues    EBANDS =     -1570.98559041
  atomic energy  EATOM  =     11664.50664672
  ---------------------------------------------------
  free energy    TOTEN  =      -184.19646354 eV

  energy without entropy =     -184.19448985  energy(sigma->0) =     -184.19547670


--------------------------------------------------------------------------------------------------------




--------------------------------------- Iteration      1(   3)  ---------------------------------------


    TRIAL :  cpu time   42.8752: real time   43.2608
    CORREC:  cpu time    0.0021: real time    0.0021
    --------------------------------------------
      LOOP:  cpu time   42.8788: real time   43.2660

 eigenvalue-minimisations  : 20370
 total energy-change (2. order) :-0.5134930E+02  (-0.5003879E+02)
 number of electron     104.0000000 magnetization 
 augmentation part      104.0000000 magnetization 

 Free energy of the ion-electron system (eV)
  ---------------------------------------------------
  alpha Z        PSCENC =       451.71296512
  Ewald energy   TEWEN  =     -7224.25275367
  -Hartree energ DENC   =     -4027.97176143
  -exchange      EXHF   =         0.00000000
  -V(xc)+E(xc)   XCENC  =       482.82702256
  PAW double counting   =      9250.47132855    -9210.50234729
  entropy T*S    EENTRO =        -0.00237764
  eigenvalues    EBANDS =     -1622.33448483
  atomic energy  EATOM  =     11664.50664672
  ---------------------------------------------------
  free energy    TOTEN  =      -235.54576192 eV

  energy without entropy =     -235.54338427  energy(sigma->0) =     -235.54457309


--------------------------------------------------------------------------------------------------------




--------------------------------------- Iteration      1(   4)  ---------------------------------------


    TRIAL :  cpu time   41.0162: real time   41.3985
    CORREC:  cpu time    0.0021: real time    0.0021
    --------------------------------------------
      LOOP:  cpu time   41.0196: real time   41.4034

 eigenvalue-minimisations  : 18996
 total energy-change (2. order) :-0.1164581E+01  (-0.1151953E+01)
 number of electron     104.0000000 magnetization 
 augmentation part      104.0000000 magnetization 

 Free energy of the ion-electron system (eV)
  ---------------------------------------------------
  alpha Z        PSCENC =       451.71296512
  Ewald energy   TEWEN  =     -7224.25275367
  -Hartree energ DENC   =     -4027.97176143
  -exchange      EXHF   =         0.00000000
  -V(xc)+E(xc)   XCENC  =       482.82702256
  PAW double counting   =      9250.47132855    -9210.50234729
  entropy T*S    EENTRO =        -0.00254413
  eigenvalues    EBANDS =     -1623.49889907
  atomic energy  EATOM  =     11664.50664672
  ---------------------------------------------------
  free energy    TOTEN  =      -236.71034264 eV

  energy without entropy =     -236.70779851  energy(sigma->0) =     -236.70907057


--------------------------------------------------------------------------------------------------------




--------------------------------------- Iteration      1(   5)  ---------------------------------------


    TRIAL :  cpu time   41.5749: real time   41.9559
    CORREC:  cpu time    0.0021: real time    0.0021
    CHARGE:  cpu time    2.5969: real time    2.6181
    --------------------------------------------
      LOOP:  cpu time   44.1764: real time   44.5793

 eigenvalue-minimisations  : 19320
 total energy-change (2. order) :-0.2515852E-01  (-0.2509860E-01)
 number of electron     104.0000001 magnetization 
 augmentation part       12.7583631 magnetization 

 Free energy of the ion-electron system (eV)
  ---------------------------------------------------
  alpha Z        PSCENC =       451.71296512
  Ewald energy   TEWEN  =     -7224.25275367
  -Hartree energ DENC   =     -4027.97176143
  -exchange      EXHF   =         0.00000000
  -V(xc)+E(xc)   XCENC  =       482.82702256
  PAW double counting   =      9250.47132855    -9210.50234729
  entropy T*S    EENTRO =        -0.00256320
  eigenvalues    EBANDS =     -1623.52403853
  atomic energy  EATOM  =     11664.50664672
  ---------------------------------------------------
  free energy    TOTEN  =      -236.73550116 eV

  energy without entropy =     -236.73293796  energy(sigma->0) =     -236.73421956


--------------------------------------------------------------------------------------------------------




--------------------------------------- Iteration      1(   6)  ---------------------------------------


    POTLOK:  cpu time    0.2041: real time    0.2055
    SETDIJ:  cpu time    0.6072: real time    0.6116
    TRIAL :  cpu time   27.8925: real time   28.2280
    CORREC:  cpu time   10.8487: real time   10.9304
    CHARGE:  cpu time    2.3302: real time    2.3483
    --------------------------------------------
      LOOP:  cpu time   41.8847: real time   42.3263

 eigenvalue-minimisations  :     0
 total energy-change (2. order) : 0.9243418E+02  (-0.3119599E+02)
 number of electron     104.0000001 magnetization 
 augmentation part       14.7886821 magnetization 

 Free energy of the ion-electron system (eV)
  ---------------------------------------------------
  alpha Z        PSCENC =       451.71296512
  Ewald energy   TEWEN  =     -7224.25275367
  -Hartree energ DENC   =     -3843.94656212
  -exchange      EXHF   =         0.00000000
  -V(xc)+E(xc)   XCENC  =       490.25831137
  PAW double counting   =     15356.36682328   -15357.02680598
  entropy T*S    EENTRO =        -0.00247333
  eigenvalues    EBANDS =     -1681.91738109
  atomic energy  EATOM  =     11664.50664672
  ---------------------------------------------------
  free energy    TOTEN  =      -144.30131958 eV

  energy without entropy =     -144.29884625  energy(sigma->0) =     -144.30008291


--------------------------------------------------------------------------------------------------------




--------------------------------------- Iteration      1(   7)  ---------------------------------------


    POTLOK:  cpu time    0.1404: real time    0.1417
    SETDIJ:  cpu time    0.5946: real time    0.5999
    TRIAL :  cpu time   34.1588: real time   34.4494
    CORREC:  cpu time    9.9859: real time   10.0621
    CHARGE:  cpu time    3.1809: real time    3.2016
    --------------------------------------------
      LOOP:  cpu time   48.0613: real time   48.4564

 eigenvalue-minimisations  :     0
 total energy-change (2. order) :-0.3114796E+02  (-0.4054481E+01)
 number of electron     104.0000001 magnetization 
 augmentation part       14.3250188 magnetization 

 Free energy of the ion-electron system (eV)
  ---------------------------------------------------
  alpha Z        PSCENC =       451.71296512
  Ewald energy   TEWEN  =     -7224.25275367
  -Hartree energ DENC   =     -4029.40484111
  -exchange      EXHF   =         0.00000000
  -V(xc)+E(xc)   XCENC  =       497.13597543
  PAW double counting   =     14366.21612403   -14351.39268326
  entropy T*S    EENTRO =        -0.00196550
  eigenvalues    EBANDS =     -1549.96823488
  atomic energy  EATOM  =     11664.50664672
  ---------------------------------------------------
  free energy    TOTEN  =      -175.44927496 eV

  energy without entropy =     -175.44730946  energy(sigma->0) =     -175.44829221


--------------------------------------------------------------------------------------------------------




--------------------------------------- Iteration      1(   8)  ---------------------------------------


    POTLOK:  cpu time    0.1485: real time    0.1494
    SETDIJ:  cpu time    1.0760: real time    1.0831
    TRIAL :  cpu time   37.6026: real time   37.9108
    CORREC:  cpu time   11.5195: real time   11.6011
    CHARGE:  cpu time    2.5142: real time    2.5320
    --------------------------------------------
      LOOP:  cpu time   53.7943: real time   54.2156

 eigenvalue-minimisations  :     0
 total energy-change (2. order) :-0.4034865E+01  (-0.1299522E+01)
 number of electron     104.0000001 magnetization 
 augmentation part       14.2341401 magnetization 

 Free energy of the ion-electron system (eV)
  ---------------------------------------------------
  alpha Z        PSCENC =       451.71296512
  Ewald energy   TEWEN  =     -7224.25275367
  -Hartree energ DENC   =     -3985.74554916
  -exchange      EXHF   =         0.00000000
  -V(xc)+E(xc)   XCENC  =       495.19706865
  PAW double counting   =     14125.85389730   -14110.82362416
  entropy T*S    EENTRO =        -0.00264314
  eigenvalues    EBANDS =     -1595.93082553
  atomic energy  EATOM  =     11664.50664672
  ---------------------------------------------------
  free energy    TOTEN  =      -179.48414024 eV

  energy without entropy =     -179.48149710  energy(sigma->0) =     -179.48281867


--------------------------------------------------------------------------------------------------------




--------------------------------------- Iteration      1(   9)  ---------------------------------------


    POTLOK:  cpu time    0.1507: real time    0.1517
    SETDIJ:  cpu time    0.6501: real time    0.6548
    TRIAL :  cpu time   37.4607: real time   37.7612
    CORREC:  cpu time   10.9827: real time   11.0671
    CHARGE:  cpu time    3.7846: real time    3.8089
    --------------------------------------------
      LOOP:  cpu time   53.6460: real time   54.0655

 eigenvalue-minimisations  :     0
 total energy-change (2. order) :-0.1303467E+01  (-0.7135750E+00)
 number of electron     104.0000001 magnetization 
 augmentation part       14.2882284 magnetization 

 Free energy of the ion-electron system (eV)
  ---------------------------------------------------
  alpha Z        PSCENC =       451.71296512
  Ewald energy   TEWEN  =     -7224.25275367
  -Hartree energ DENC   =     -3981.08305988
  -exchange      EXHF   =         0.00000000
  -V(xc)+E(xc)   XCENC  =       495.07994275
  PAW double counting   =     13940.35010761   -13923.41720057
  entropy T*S    EENTRO =        -0.00271275
  eigenvalues    EBANDS =     -1603.68161186
  atomic energy  EATOM  =     11664.50664672
  ---------------------------------------------------
  free energy    TOTEN  =      -180.78760692 eV

  energy without entropy =     -180.78489417  energy(sigma->0) =     -180.78625055


--------------------------------------------------------------------------------------------------------




--------------------------------------- Iteration      1(  10)  ---------------------------------------


    POTLOK:  cpu time    0.7138: real time    0.7177
    SETDIJ:  cpu time    0.5230: real time    0.5265
    TRIAL :  cpu time   36.2566: real time   36.5426
    CORREC:  cpu time    9.5542: real time    9.6251
    CHARGE:  cpu time    3.9961: real time    4.0216
    --------------------------------------------
      LOOP:  cpu time   51.0484: real time   51.4386

 eigenvalue-minimisations  :     0
 total energy-change (2. order) :-0.7141597E+00  (-0.2581358E+00)
 number of electron     104.0000001 magnetization 
 augmentation part       14.3278492 magnetization 

 Free energy of the ion-electron system (eV)
  ---------------------------------------------------
  alpha Z        PSCENC =       451.71296512
  Ewald energy   TEWEN  =     -7224.25275367
  -Hartree energ DENC   =     -3996.80869728
  -exchange      EXHF   =         0.00000000
  -V(xc)+E(xc)   XCENC  =       495.83782036
  PAW double counting   =     13778.67927807   -13759.42124862
  entropy T*S    EENTRO =        -0.00269776
  eigenvalues    EBANDS =     -1591.75306461
  atomic energy  EATOM  =     11664.50664672
  ---------------------------------------------------
  free energy    TOTEN  =      -181.50176667 eV

  energy without entropy =     -181.49906891  energy(sigma->0) =     -181.50041779


--------------------------------------------------------------------------------------------------------




--------------------------------------- Iteration      1(  11)  ---------------------------------------


    POTLOK:  cpu time    0.1466: real time    0.1475
    SETDIJ:  cpu time    0.6391: real time    0.6438
    TRIAL :  cpu time   33.4920: real time   33.7748
    CORREC:  cpu time   10.8544: real time   10.9369
    CHARGE:  cpu time    3.6056: real time    3.6299
    --------------------------------------------
      LOOP:  cpu time   48.7474: real time   49.1437

 eigenvalue-minimisations  :     0
 total energy-change (2. order) :-0.2577134E+00  (-0.9657650E-01)
 number of electron     104.0000001 magnetization 
 augmentation part       14.3327134 magnetization 

 Free energy of the ion-electron system (eV)
  ---------------------------------------------------
  alpha Z        PSCENC =       451.71296512
  Ewald energy   TEWEN  =     -7224.25275367
  -Hartree energ DENC   =     -4003.55775635
  -exchange      EXHF   =         0.00000000
  -V(xc)+E(xc)   XCENC  =       496.17648093
  PAW double counting   =     13712.69188503   -13692.65333705
  entropy T*S    EENTRO =        -0.00289769
  eigenvalues    EBANDS =     -1586.38091307
  atomic energy  EATOM  =     11664.50664672
  ---------------------------------------------------
  free energy    TOTEN  =      -181.75948008 eV

  energy without entropy =     -181.75658239  energy(sigma->0) =     -181.75803124


--------------------------------------------------------------------------------------------------------




--------------------------------------- Iteration      1(  12)  ---------------------------------------


    POTLOK:  cpu time    0.1521: real time    0.1531
    SETDIJ:  cpu time    1.3284: real time    1.3381
    TRIAL :  cpu time   30.8856: real time   31.1589
    CORREC:  cpu time    9.8723: real time    9.9527
    CHARGE:  cpu time    2.3001: real time    2.3183
[...]
     58       8.2152      0.00000
     59       8.4668      0.00000
     60       8.5396      0.00000
     61       8.6521      0.00000
     62       8.9103      0.00000
     63       9.0083      0.00000
     64       9.3113      0.00000
     65       9.3879      0.00000
     66       9.5998      0.00000

 k-point   110 :      -0.1429    0.1429    0.5000
  band No.  band energies     occupation 
      1     -56.3234      2.00000
      2     -56.2810      2.00000
      3     -56.1461      2.00000
      4     -56.1415      2.00000
      5     -55.8179      2.00000
      6     -55.7754      2.00000
      7     -31.0362      2.00000
      8     -30.9140      2.00000
      9     -30.3893      2.00000
     10     -30.0010      2.00000
     11     -29.8351      2.00000
     12     -29.7340      2.00000
     13     -29.6941      2.00000
     14     -29.6748      2.00000
     15     -29.6747      2.00000
     16     -29.6512      2.00000
     17     -29.5424      2.00000
     18     -29.5383      2.00000
     19     -29.3207      2.00000
     20     -29.2918      2.00000
     21     -29.2666      2.00000
     22     -29.0204      2.00000
     23     -28.4260      2.00000
     24     -28.2816      2.00000
     25      -3.9315      2.00000
     26      -3.7444      2.00000
     27      -2.1008      2.00000
     28      -0.7019      2.00000
     29       0.0891      2.00000
     30       0.2724      2.00000
     31       1.2909      2.00000
     32       1.7001      2.00000
     33       1.7722      2.00000
     34       1.9394      2.00000
     35       2.2633      2.00000
     36       2.3111      2.00000
     37       2.4919      2.00000
     38       2.6849      2.00000
     39       3.1705      2.00000
     40       3.2434      2.00000
     41       3.7308      2.00000
     42       3.7612      2.00000
     43       3.9983      2.00000
     44       4.0431      2.00000
     45       4.2872      2.00000
     46       4.8518      2.00000
     47       4.9803      2.00000
     48       5.0470      2.00000
     49       5.6857      2.00000
     50       6.1513      2.00000
     51       6.1937      2.00000
     52       6.2790      2.00000
     53       6.8864      0.00000
     54       6.9707      0.00000
     55       7.2492      0.00000
     56       7.6648      0.00000
     57       7.8349      0.00000
     58       8.1260      0.00000
     59       8.3554      0.00000
     60       8.4447      0.00000
     61       8.9580      0.00000
     62       8.9867      0.00000
     63       9.4302      0.00000
     64       9.4580      0.00000
     65       9.7308      0.00000
     66      10.3499      0.00000

 k-point   111 :       0.2857    0.2857    0.5000
  band No.  band energies     occupation 
      1     -56.3648      2.00000
      2     -56.2253      2.00000
      3     -56.1455      2.00000
      4     -56.1359      2.00000
      5     -55.8785      2.00000
      6     -55.7352      2.00000
      7     -31.0445      2.00000
      8     -30.7955      2.00000
      9     -30.5819      2.00000
     10     -29.9670      2.00000
     11     -29.8339      2.00000
     12     -29.7651      2.00000
     13     -29.7279      2.00000
     14     -29.6756      2.00000
     15     -29.6386      2.00000
     16     -29.6078      2.00000
     17     -29.5404      2.00000
     18     -29.5313      2.00000
     19     -29.3435      2.00000
     20     -29.3389      2.00000
     21     -29.2335      2.00000
     22     -28.8082      2.00000
     23     -28.5803      2.00000
     24     -28.2774      2.00000
     25      -4.2495      2.00000
     26      -3.4609      2.00000
     27      -1.5758      2.00000
     28      -1.4829      2.00000
     29       0.0217      2.00000
     30       0.5692      2.00000
     31       1.0524      2.00000
     32       1.2643      2.00000
     33       1.7389      2.00000
     34       2.0150      2.00000
     35       2.2041      2.00000
     36       2.3334      2.00000
     37       3.0290      2.00000
     38       3.1149      2.00000
     39       3.3471      2.00000
     40       3.3589      2.00000
     41       3.6798      2.00000
     42       3.7299      2.00000
     43       4.1212      2.00000
     44       4.2236      2.00000
     45       4.3871      2.00000
     46       4.5892      2.00000
     47       4.7822      2.00000
     48       5.7932      2.00000
     49       5.7945      2.00000
     50       6.1398      2.00000
     51       6.3590      2.00000
     52       6.3939      2.00000
     53       6.6322      0.06315
     54       6.9780      0.00000
     55       7.0092      0.00000
     56       7.3246      0.00000
     57       7.7038      0.00000
     58       8.0239      0.00000
     59       8.0655      0.00000
     60       8.1346      0.00000
     61       8.6610      0.00000
     62       8.6813      0.00000
     63       8.9610      0.00000
     64       9.2475      0.00000
     65       9.2898      0.00000
     66       9.9105      0.00000

 k-point   112 :       0.4286    0.2857    0.5000
  band No.  band energies     occupation 
      1     -56.3780      2.00000
      2     -56.2007      2.00000
      3     -56.1445      2.00000
      4     -56.1344      2.00000
      5     -55.9059      2.00000
      6     -55.7218      2.00000
      7     -31.0190      2.00000
      8     -30.9350      2.00000
      9     -30.3578      2.00000
     10     -30.1220      2.00000
     11     -29.7835      2.00000
     12     -29.7415      2.00000
     13     -29.7403      2.00000
     14     -29.6908      2.00000
     15     -29.6310      2.00000
     16     -29.5868      2.00000
     17     -29.5379      2.00000
     18     -29.5300      2.00000
     19     -29.3642      2.00000
     20     -29.2541      2.00000
     21     -29.2248      2.00000
     22     -29.0448      2.00000
     23     -28.4157      2.00000
     24     -28.3116      2.00000
     25      -4.3184      2.00000
     26      -3.3663      2.00000
     27      -1.7328      2.00000
     28      -1.1906      2.00000
     29       0.0546      2.00000
     30       0.3341      2.00000
     31       1.0308      2.00000
     32       1.0480      2.00000
     33       1.7928      2.00000
     34       2.0106      2.00000
     35       2.1155      2.00000
     36       2.3296      2.00000
     37       2.6544      2.00000
     38       3.0179      2.00000
     39       3.4678      2.00000
     40       3.5916      2.00000
     41       3.8374      2.00000
     42       3.9902      2.00000
     43       4.0151      2.00000
     44       4.2080      2.00000
     45       4.4802      2.00000
     46       4.7614      2.00000
     47       5.1973      2.00000
     48       5.3554      2.00000
     49       5.7794      2.00000
     50       5.9801      2.00000
     51       6.5355      2.00000
     52       6.6949      0.00000
     53       6.8162      0.00000
     54       6.9149      0.00000
     55       7.0740      0.00000
     56       7.1943      0.00000
     57       7.4247      0.00000
     58       7.8919      0.00000
     59       8.0205      0.00000
     60       8.1400      0.00000
     61       8.5692      0.00000
     62       8.7489      0.00000
     63       8.9065      0.00000
     64       9.2109      0.00000
     65       9.4625      0.00000
     66       9.8948      0.00000

 k-point   113 :      -0.4286    0.2857    0.5000
  band No.  band energies     occupation 
      1     -56.3780      2.00000
      2     -56.2006      2.00000
      3     -56.1448      2.00000
      4     -56.1343      2.00000
      5     -55.9059      2.00000
      6     -55.7218      2.00000
      7     -31.0194      2.00000
      8     -30.9345      2.00000
      9     -30.3574      2.00000
     10     -30.1223      2.00000
     11     -29.7835      2.00000
     12     -29.7417      2.00000
     13     -29.7411      2.00000
     14     -29.6911      2.00000
     15     -29.6310      2.00000
     16     -29.5859      2.00000
     17     -29.5381      2.00000
     18     -29.5300      2.00000
     19     -29.3629      2.00000
     20     -29.2538      2.00000
     21     -29.2258      2.00000
     22     -29.0448      2.00000
     23     -28.4154      2.00000
     24     -28.3118      2.00000
     25      -4.3026      2.00000
     26      -3.3736      2.00000
     27      -1.8647      2.00000
     28      -0.9140      2.00000
     29       0.0455      2.00000
     30       0.3230      2.00000
     31       1.0198      2.00000
     32       1.0427      2.00000
     33       1.6401      2.00000
     34       1.9718      2.00000
     35       2.0721      2.00000
     36       2.3624      2.00000
     37       2.4155      2.00000
     38       3.0171      2.00000
     39       3.5814      2.00000
     40       3.6926      2.00000
     41       3.7594      2.00000
     42       4.0021      2.00000
     43       4.0216      2.00000
     44       4.3097      2.00000
     45       4.5078      2.00000
     46       4.8002      2.00000
     47       5.0626      2.00000
     48       5.1776      2.00000
     49       5.6181      2.00000
     50       6.0051      2.00000
     51       6.5434      1.99999
     52       6.7068      0.00000
     53       6.9026      0.00000
     54       7.0556      0.00000
     55       7.1174      0.00000
     56       7.3142      0.00000
     57       7.4464      0.00000
     58       7.8797      0.00000
     59       7.9664      0.00000
     60       8.2828      0.00000
     61       8.7623      0.00000
     62       8.8098      0.00000
     63       9.0880      0.00000
     64       9.2747      0.00000
     65       9.4520      0.00000
     66       9.8858      0.00000

 k-point   114 :      -0.2857    0.2857    0.5000
  band No.  band energies     occupation 
      1     -56.3648      2.00000
      2     -56.2251      2.00000
      3     -56.1460      2.00000
      4     -56.1358      2.00000
      5     -55.8786      2.00000
      6     -55.7351      2.00000
      7     -31.0449      2.00000
      8     -30.7950      2.00000
      9     -30.5815      2.00000
     10     -29.9668      2.00000
     11     -29.8349      2.00000
     12     -29.7650      2.00000
     13     -29.7305      2.00000
     14     -29.6761      2.00000
     15     -29.6384      2.00000
     16     -29.6054      2.00000
     17     -29.5406      2.00000
     18     -29.5315      2.00000
     19     -29.3402      2.00000
     20     -29.3384      2.00000
     21     -29.2362      2.00000
     22     -28.8081      2.00000
     23     -28.5801      2.00000
     24     -28.2776      2.00000
     25      -4.2075      2.00000
     26      -3.4808      2.00000
     27      -1.9689      2.00000
     28      -0.7700      2.00000
     29       0.0113      2.00000
     30       0.5436      2.00000
     31       0.9762      2.00000
     32       1.2633      2.00000
     33       1.5032      2.00000
     34       1.8868      2.00000
     35       2.1493      2.00000
     36       2.3015      2.00000
     37       2.3956      2.00000
     38       3.3089      2.00000
     39       3.3626      2.00000
     40       3.6024      2.00000
     41       3.6801      2.00000
     42       3.7129      2.00000
     43       3.9442      2.00000
     44       4.4340      2.00000
     45       4.6648      2.00000
     46       4.7806      2.00000
     47       4.8209      2.00000
     48       5.0037      2.00000
     49       5.2861      2.00000
     50       5.9911      2.00000
     51       6.3946      2.00000
     52       6.6187      0.36680
     53       7.0194      0.00000
     54       7.1446      0.00000
     55       7.4756      0.00000
     56       7.5519      0.00000
     57       7.6704      0.00000
     58       7.9994      0.00000
     59       8.1728      0.00000
     60       8.5664      0.00000
     61       8.6885      0.00000
     62       8.7013      0.00000
     63       9.1646      0.00000
     64       9.2429      0.00000
     65       9.6249      0.00000
     66      10.1202      0.00000

 k-point   115 :       0.4286    0.4286    0.5000
  band No.  band energies     occupation 
      1     -56.3934      2.00000
      2     -56.1595      2.00000
      3     -56.1454      2.00000
      4     -56.1331      2.00000
      5     -55.9483      2.00000
      6     -55.7056      2.00000
      7     -31.0513      2.00000
      8     -31.0233      2.00000
      9     -30.1136      2.00000
     10     -29.9335      2.00000
     11     -29.8358      2.00000
     12     -29.7942      2.00000
     13     -29.7548      2.00000
     14     -29.7302      2.00000
     15     -29.6260      2.00000
     16     -29.5508      2.00000
     17     -29.5382      2.00000
     18     -29.5290      2.00000
     19     -29.3981      2.00000
     20     -29.3527      2.00000
     21     -29.2606      2.00000
     22     -29.2134      2.00000
     23     -28.3100      2.00000
     24     -28.2742      2.00000
     25      -4.4043      2.00000
     26      -3.2101      2.00000
     27      -1.8060      2.00000
     28      -0.9406      2.00000
     29       0.0086      2.00000
     30       0.0936      2.00000
     31       0.8117      2.00000
     32       1.0113      2.00000
     33       1.5630      2.00000
     34       2.0180      2.00000
     35       2.0824      2.00000
     36       2.2013      2.00000
     37       2.3744      2.00000
     38       3.2289      2.00000
     39       3.6824      2.00000
     40       3.7946      2.00000
     41       3.8259      2.00000
     42       3.9851      2.00000
     43       4.4482      2.00000
     44       4.5835      2.00000
     45       4.6779      2.00000
     46       4.9181      2.00000
     47       5.3114      2.00000
     48       5.4383      2.00000
     49       5.7152      2.00000
     50       5.9517      2.00000
     51       6.5524      1.99985
     52       6.5557      1.99962
     53       6.5605      1.99867
     54       6.6778      0.00000
     55       6.7773      0.00000
     56       7.0297      0.00000
     57       7.3179      0.00000
     58       7.8220      0.00000
     59       7.9662      0.00000
     60       8.0369      0.00000
     61       8.6336      0.00000
     62       9.0337      0.00000
     63       9.0996      0.00000
     64       9.2138      0.00000
     65       9.6915      0.00000
     66      10.1156      0.00000

 k-point   116 :      -0.4286    0.4286    0.5000
  band No.  band energies     occupation 
      1     -56.3934      2.00000
      2     -56.1591      2.00000
      3     -56.1459      2.00000
      4     -56.1331      2.00000
      5     -55.9483      2.00000
      6     -55.7056      2.00000
      7     -31.0518      2.00000
      8     -31.0228      2.00000
      9     -30.1133      2.00000
     10     -29.9332      2.00000
     11     -29.8367      2.00000
     12     -29.7942      2.00000
     13     -29.7552      2.00000
     14     -29.7302      2.00000
     15     -29.6260      2.00000
     16     -29.5500      2.00000
     17     -29.5389      2.00000
     18     -29.5290      2.00000
     19     -29.3975      2.00000
     20     -29.3521      2.00000
     21     -29.2609      2.00000
     22     -29.2137      2.00000
     23     -28.3097      2.00000
     24     -28.2744      2.00000
     25      -4.3984      2.00000
     26      -3.2123      2.00000
     27      -1.8505      2.00000
     28      -0.8205      2.00000
     29       0.0045      2.00000
     30       0.0882      2.00000
     31       0.8120      2.00000
     32       1.0088      2.00000
     33       1.4659      2.00000
     34       2.0035      2.00000
     35       2.0618      2.00000
     36       2.2154      2.00000
     37       2.2991      2.00000
     38       3.2277      2.00000
     39       3.6486      2.00000
     40       3.8631      2.00000
     41       3.8977      2.00000
     42       3.9838      2.00000
     43       4.5368      2.00000
     44       4.5906      2.00000
     45       4.6592      2.00000
     46       4.8165      2.00000
     47       5.2398      2.00000
     48       5.3898      2.00000
     49       5.7064      2.00000
     50       5.9499      2.00000
     51       6.5564      1.99954
     52       6.5574      1.99941
     53       6.5614      1.99836
     54       6.6797      0.00000
     55       6.7794      0.00000
     56       7.0501      0.00000
     57       7.4214      0.00000
     58       7.8538      0.00000
     59       7.8900      0.00000
     60       8.0635      0.00000
     61       8.6603      0.00000
     62       9.1059      0.00000
     63       9.2278      0.00000
     64       9.4757      0.00000
     65       9.6902      0.00000
     66      10.0990      0.00000


--------------------------------------------------------------------------------------------------------


 soft charge-density along one line, spin component           1
         0         1         2         3         4         5         6         7         8         9
 total charge-density along one line
 
 pseudopotential strength for first ion, spin component:           1
  6.155   9.337   0.001   0.002   0.001  -0.002  -0.002  -0.001
  9.337  14.156   0.002   0.002   0.001  -0.002  -0.003  -0.002
  0.001   0.002  -2.016  -0.020   0.002  -3.378  -0.039   0.004
  0.002   0.002  -0.020  -2.015  -0.014  -0.039  -3.376  -0.027
  0.001   0.001   0.002  -0.014  -2.017   0.004  -0.027  -3.381
 -0.002  -0.002  -3.378  -0.039   0.004  -5.450  -0.073   0.007
 -0.002  -0.003  -0.039  -3.376  -0.027  -0.073  -5.447  -0.051
 -0.001  -0.002   0.004  -0.027  -3.381   0.007  -0.051  -5.455
 total augmentation occupancy for first ion, spin component:           1
  4.284  -1.109   0.765   0.944   0.538  -0.254  -0.314  -0.179
 -1.109   0.313  -0.236  -0.291  -0.166   0.080   0.098   0.056
  0.765  -0.236   3.425   0.912  -0.157  -0.916  -0.258   0.037
  0.944  -0.291   0.912   3.337   0.642  -0.258  -0.896  -0.182
  0.538  -0.166  -0.157   0.642   3.538   0.037  -0.182  -0.943
 -0.254   0.080  -0.916  -0.258   0.037   0.256   0.078  -0.013
 -0.314   0.098  -0.258  -0.896  -0.182   0.078   0.248   0.055
 -0.179   0.056   0.037  -0.182  -0.943  -0.013   0.055   0.265


------------------------ aborting loop because EDIFF is reached ----------------------------------------




--------------------------------------------------------------------------------------------------------



  FREE ENERGIE OF THE ION-ELECTRON SYSTEM (eV)
  ---------------------------------------------------
  free  energy   TOTEN  =      -181.95071889 eV

  energy  without entropy=     -181.94796243  energy(sigma->0) =     -181.94934066
 


--------------------------------------------------------------------------------------------------------


    POTLOK:  cpu time    1.2552: real time    1.2633


--------------------------------------------------------------------------------------------------------


 writing wavefunctions
     LOOP+:  cpu time 2051.2709: real time 2068.3014
    4ORBIT:  cpu time    0.0000: real time    0.0000

 total amount of memory used by VASP MPI-rank0   453530. kBytes
=======================================================================

   base      :      30000. kBytes
   nonl-proj :     174756. kBytes
   fftplans  :      17772. kBytes
   grid      :      13358. kBytes
   one-center:         93. kBytes
   wavefun   :     217551. kBytes
 
  
  
 General timing and accounting informations for this job:
 ========================================================
  
                  Total CPU time used (sec):     2059.825
                            User time (sec):     2036.290
                          System time (sec):       23.535
                         Elapsed time (sec):     2083.571
  
                   Maximum memory used (kb):      653932.
                   Average memory used (kb):          N/A
  
                          Minor page faults:      2766034
                          Major page faults:           18
                 Voluntary context switches:        14112
