 vasp.6.2.0 18Jan21 (build Jan 05 2022 15:41:44) complex                        
  
 executed on             LinuxIFC date 2025.05.07  15:06:29
 running on   24 total cores
 distrk:  each k-point on   12 cores,    2 groups
 distr:  one band on NCORE=   2 cores,    6 groups


--------------------------------------------------------------------------------------------------------


 INCAR:
   SYSTEM = routine with relax: pwdword
   ICHARG = 2
   NPAR = 6
   KPAR = 2
   NCORE = 2
   ADDGRID = T
   PREC = Acc
   ENCUT = 600
   METAGGA = R2SCAN
   LASPH = .TRUE.
   LMIXTAU = .FALSE.
   ALGO = A
   EDIFF = 1E-9
   NELM = 100
   NELMIN = 6
   IALGO = 38
   LREAL = F
   NSW = 0
   ISIF = -1
   ISMEAR = 0
   SIGMA = 0.02
   SYMPREC = 1E-4

 POTCAR:    PAW_PBE B 06Sep2000                   
 POTCAR:    PAW_PBE Mo_sv 02Feb2006               
 POTCAR:    PAW_PBE Si 05Jan2001                  
 -----------------------------------------------------------------------------
|                                                                             |
|           W    W    AA    RRRRR   N    N  II  N    N   GGGG   !!!           |
|           W    W   A  A   R    R  NN   N  II  NN   N  G    G  !!!           |
|           W    W  A    A  R    R  N N  N  II  N N  N  G       !!!           |
|           W WW W  AAAAAA  RRRRR   N  N N  II  N  N N  G  GGG   !            |
|           WW  WW  A    A  R   R   N   NN  II  N   NN  G    G                |
|           W    W  A    A  R    R  N    N  II  N    N   GGGG   !!!           |
|                                                                             |
|     For optimal performance we recommend to set                             |
|       NCORE = 2 up to number-of-cores-per-socket                            |
|     NCORE specifies how many cores store one orbital (NPAR=cpu/NCORE).      |
|     This setting can greatly improve the performance of VASP for DFT.       |
|     The default, NCORE=1 might be grossly inefficient on modern             |
|     multi-core architectures or massively parallel machines. Do your        |
|     own testing! More info at https://www.vasp.at/wiki/index.php/NCORE      |
|     Unfortunately you need to use the default for GW and RPA                |
|     calculations (for HF NCORE is supported but not extensively tested      |
|     yet).                                                                   |
|                                                                             |
 -----------------------------------------------------------------------------

 POTCAR:    PAW_PBE B 06Sep2000                   
   VRHFIN =B: s2p1                                                                                  
   LEXCH  = PE                                                                                      
   EATOM  =    71.1703 eV,    5.2309 Ry                                                             
                                                                                                    
   TITEL  = PAW_PBE B 06Sep2000                                                                     
   LULTRA =        F    use ultrasoft PP ?                                                          
   IUNSCR =        1    unscreen: 0-lin 1-nonlin 2-no                                               
   RPACOR =    1.200    partial core radius                                                         
   POMASS =   10.811; ZVAL   =    3.000    mass and valenz                                          
   RCORE  =    1.700    outmost cutoff radius                                                       
   RWIGS  =    1.710; RWIGS  =    0.905    wigner-seitz radius (au A)                               
   ENMAX  =  318.614; ENMIN  =  238.960 eV                                                          
   ICORE  =        2    local potential                                                             
   LCOR   =        T    correct aug charges                                                         
   LPAW   =        T    paw PP                                                                      
   EAUG   =  535.514                                                                                
   DEXC   =    0.000                                                                                
   RMAX   =    1.732    core radius for proj-oper                                                   
   RAUG   =    1.300    factor for augmentation sphere                                              
   RDEP   =    1.757    radius for radial grids                                                     
   RDEPT  =    1.436    core radius for aug-charge                                                  
                                                                                                    
   Atomic configuration                                                                             
    4 entries                                                                                       
     n  l   j            E        occ.                                                              
     1  0  0.50      -180.5896   2.0000                                                             
     2  0  0.50        -9.4431   2.0000                                                             
     2  1  0.50        -3.6068   1.0000                                                             
     3  2  1.50        -4.0817   0.0000                                                             
   Description                                                                                      
     l       E           TYP  RCUT    TYP  RCUT                                                     
     0     -9.4430752     23  1.500                                                                 
     0      0.8675899     23  1.500                                                                 
     1     -3.6067955     23  1.700                                                                 
     1      6.1086146     23  1.700                                                                 
     2     -4.0817478      7  1.700                                                                 
  local pseudopotential read in
  partial core-charges read in
  partial kinetic energy density read in
  atomic valenz-charges read in
  non local Contribution for L=           0  read in
    real space projection operators read in
  non local Contribution for L=           0  read in
    real space projection operators read in
  non local Contribution for L=           1  read in
    real space projection operators read in
  non local Contribution for L=           1  read in
    real space projection operators read in
    PAW grid and wavefunctions read in
 
   number of l-projection  operators is LMAX  =           4
   number of lm-projection operators is LMMAX =           8
 
 POTCAR:    PAW_PBE Mo_sv 02Feb2006               
   VRHFIN =Mo: 4p5s4d                                                                               
   LEXCH  = PE                                                                                      
   EATOM  =  1862.2866 eV,  136.8742 Ry                                                             
                                                                                                    
   TITEL  = PAW_PBE Mo_sv 02Feb2006                                                                 
   LULTRA =        F    use ultrasoft PP ?                                                          
   IUNSCR =        1    unscreen: 0-lin 1-nonlin 2-no                                               
   RPACOR =    2.200    partial core radius                                                         
   POMASS =   95.940; ZVAL   =   14.000    mass and valenz                                          
   RCORE  =    2.500    outmost cutoff radius                                                       
   RWIGS  =    2.750; RWIGS  =    1.455    wigner-seitz radius (au A)                               
   ENMAX  =  242.676; ENMIN  =  182.007 eV                                                          
   ICORE  =        3    local potential                                                             
   LCOR   =        T    correct aug charges                                                         
   LPAW   =        T    paw PP                                                                      
   EAUG   =  446.014                                                                                
   DEXC   =    0.000                                                                                
   RMAX   =    2.563    core radius for proj-oper                                                   
   RAUG   =    1.300    factor for augmentation sphere                                              
   RDEP   =    2.641    radius for radial grids                                                     
   RDEPT  =    2.031    core radius for aug-charge                                                  
                                                                                                    
   Atomic configuration                                                                             
   11 entries                                                                                       
     n  l   j            E        occ.                                                              
     1  0  0.50    -19819.0341   2.0000                                                             
     2  0  0.50     -2799.0127   2.0000                                                             
     2  1  1.50     -2502.0276   6.0000                                                             
     3  0  0.50      -476.4449   2.0000                                                             
     3  1  1.50      -379.1496   6.0000                                                             
     3  2  2.50      -220.9367  10.0000                                                             
     4  0  0.50       -64.3378   2.0000                                                             
     5  0  0.50        -4.0862   1.0000                                                             
     4  1  1.50       -38.4773   6.0000                                                             
     4  2  2.50        -3.7535   5.0000                                                             
     4  3  2.50        -1.3606   0.0000                                                             
   Description                                                                                      
     l       E           TYP  RCUT    TYP  RCUT                                                     
     0    -64.3377829     23  2.100                                                                 
     0     -4.0861640     23  2.400                                                                 
     1    -38.4772993     23  2.100                                                                 
     1     13.6058260     23  2.100                                                                 
     2     -3.7534941     23  2.400                                                                 
     2     -5.1140767     23  2.400                                                                 
     3     -4.0817478     23  2.500                                                                 
  local pseudopotential read in
  partial core-charges read in
  partial kinetic energy density read in
  atomic valenz-charges read in
  non local Contribution for L=           0  read in
    real space projection operators read in
  non local Contribution for L=           0  read in
    real space projection operators read in
  non local Contribution for L=           1  read in
    real space projection operators read in
  non local Contribution for L=           1  read in
    real space projection operators read in
  non local Contribution for L=           2  read in
    real space projection operators read in
  non local Contribution for L=           2  read in
    real space projection operators read in
    PAW grid and wavefunctions read in
 
   number of l-projection  operators is LMAX  =           6
   number of lm-projection operators is LMMAX =          18
 
 POTCAR:    PAW_PBE Si 05Jan2001                  
   VRHFIN =Si: s2p2                                                                                 
   LEXCH  = PE                                                                                      
   EATOM  =   103.0669 eV,    7.5752 Ry                                                             
                                                                                                    
   TITEL  = PAW_PBE Si 05Jan2001                                                                    
   LULTRA =        F    use ultrasoft PP ?                                                          
   IUNSCR =        1    unscreen: 0-lin 1-nonlin 2-no                                               
   RPACOR =    1.500    partial core radius                                                         
   POMASS =   28.085; ZVAL   =    4.000    mass and valenz                                          
   RCORE  =    1.900    outmost cutoff radius                                                       
   RWIGS  =    2.480; RWIGS  =    1.312    wigner-seitz radius (au A)                               
   ENMAX  =  245.345; ENMIN  =  184.009 eV                                                          
   ICORE  =        2    local potential                                                             
   LCOR   =        T    correct aug charges                                                         
   LPAW   =        T    paw PP                                                                      
   EAUG   =  322.069                                                                                
   DEXC   =    0.000                                                                                
   RMAX   =    1.950    core radius for proj-oper                                                   
   RAUG   =    1.300    factor for augmentation sphere                                              
   RDEP   =    1.993    radius for radial grids                                                     
   RDEPT  =    1.837    core radius for aug-charge                                                  
                                                                                                    
   Atomic configuration                                                                             
    6 entries                                                                                       
     n  l   j            E        occ.                                                              
     1  0  0.50     -1785.8828   2.0000                                                             
     2  0  0.50      -139.4969   2.0000                                                             
     2  1  1.50       -95.5546   6.0000                                                             
     3  0  0.50       -10.8127   2.0000                                                             
     3  1  0.50        -4.0811   2.0000                                                             
     3  2  1.50        -4.0817   0.0000                                                             
   Description                                                                                      
     l       E           TYP  RCUT    TYP  RCUT                                                     
     0    -10.8127223     23  1.900                                                                 
     0     -7.6451159     23  1.900                                                                 
     1     -4.0811372     23  1.900                                                                 
     1      2.4879257     23  1.900                                                                 
     2     -4.0817478      7  1.900                                                                 
  local pseudopotential read in
  partial core-charges read in
  partial kinetic energy density read in
  atomic valenz-charges read in
  non local Contribution for L=           0  read in
    real space projection operators read in
  non local Contribution for L=           0  read in
    real space projection operators read in
  non local Contribution for L=           1  read in
    real space projection operators read in
  non local Contribution for L=           1  read in
    real space projection operators read in
    PAW grid and wavefunctions read in
 
   number of l-projection  operators is LMAX  =           4
   number of lm-projection operators is LMMAX =           8
 
 -----------------------------------------------------------------------------
|                                                                             |
|               ----> ADVICE to this user running VASP <----                  |
|                                                                             |
|     You have a (more or less) 'large supercell' and for larger cells it     |
|     might be more efficient to use real-space projection operators.         |
|     Therefore, try LREAL= Auto in the INCAR file.                           |
|     Mind: For very accurate calculation, you might also keep the            |
|     reciprocal projection scheme (i.e. LREAL=.FALSE.).                      |
|                                                                             |
 -----------------------------------------------------------------------------

  PAW_PBE B 06Sep2000                   :
 energy of atom  1       EATOM=  -71.1703
 kinetic energy error for atom=    0.0007 (will be added to EATOM!!)
  PAW_PBE Mo_sv 02Feb2006               :
 energy of atom  2       EATOM=-1862.2866
 kinetic energy error for atom=    0.0041 (will be added to EATOM!!)
  PAW_PBE Si 05Jan2001                  :
 energy of atom  3       EATOM= -103.0669
 kinetic energy error for atom=    0.0003 (will be added to EATOM!!)
 
 
 POSCAR: EA40
  positions in direct lattice
  No initial velocities read in

 METAGGA = R2SCA    LMAXTAU =  6    LMIXTAU =  F

 exchange correlation table for  LEXCH =        8
   RHO(1)=    0.500       N(1)  =     2000
   RHO(2)=  100.500       N(2)  =     4000
 


--------------------------------------------------------------------------------------------------------


 ion  position               nearest neighbor table
   1  0.500  0.500  0.500-  11 1.47  14 1.47   7 2.53  15 2.53
   2  0.000  0.000  0.500-   9 1.47  16 1.47  15 2.53   7 2.53
   3  0.000  0.500  0.000-   5 1.47  12 1.47  10 2.53  13 2.53
   4  0.500  0.000  0.000-   6 1.47   8 1.47  10 2.53  13 2.53
   5  0.199  0.699  0.218-   3 1.47   7 2.66  15 2.66  14 2.77   9 2.77   6 2.80  13 2.88  12 2.95
                            10 2.97  17 3.22  18 3.22   8 3.22
   6  0.519  0.019  0.218-   4 1.47   7 2.66  15 2.66  11 2.77  16 2.77   5 2.80  13 2.88   8 2.95
                            10 2.97  17 3.22  18 3.22  12 3.22
   7  0.639  0.861  0.500-   2 2.53   1 2.53   6 2.66   8 2.66   5 2.66  12 2.66   9 2.88  11 2.88
                            16 2.97  14 2.97  15 3.19
   8  0.481  0.981  0.782-   4 1.47   7 2.66  15 2.66  14 2.77   9 2.77  12 2.80  10 2.88   6 2.95
                            13 2.97  17 3.22  18 3.22   5 3.22
   9  0.019  0.801  0.500-   2 1.47  13 2.66  10 2.66   5 2.77   8 2.77  11 2.80   7 2.88  16 2.95
                            15 2.97  18 3.22  17 3.22  14 3.22
  10  0.861  0.361  0.222-   3 2.53   4 2.53  11 2.66  16 2.66  14 2.66   9 2.66  12 2.88   8 2.88
                             5 2.97   6 2.97  13 3.19
  11  0.699  0.481  0.500-   1 1.47  10 2.66  13 2.66  12 2.77   6 2.77   9 2.80   7 2.88  14 2.95
                            15 2.97  18 3.22  17 3.22  16 3.22
  12  0.801  0.301  0.782-   3 1.47  15 2.66   7 2.66  11 2.77  16 2.77   8 2.80  10 2.88   5 2.95
                            13 2.97  17 3.22  18 3.22   6 3.22
  13  0.139  0.639  0.778-   3 2.53   4 2.53   9 2.66  14 2.66  11 2.66  16 2.66   5 2.88   6 2.88
                            12 2.97   8 2.97  10 3.19
  14  0.301  0.519  0.500-   1 1.47  13 2.66  10 2.66   5 2.77   8 2.77  16 2.80  15 2.88  11 2.95
                             7 2.97  17 3.22  18 3.22   9 3.22
  15  0.361  0.139  0.500-   2 2.53   1 2.53   6 2.66   8 2.66  12 2.66   5 2.66  16 2.88  14 2.88
                             9 2.97  11 2.97   7 3.19
  16  0.981  0.199  0.500-   2 1.47  10 2.66  13 2.66  12 2.77   6 2.77  14 2.80  15 2.88   9 2.95
                             7 2.97  17 3.22  18 3.22  11 3.22
  17  0.250  0.250  0.000-   6 3.22   8 3.22   5 3.22  12 3.22  16 3.22  14 3.22   9 3.22  11 3.22

  18  0.750  0.750  0.000-   6 3.22   8 3.22   5 3.22  12 3.22   9 3.22  11 3.22  16 3.22  14 3.22

 
  LATTYP: Found a body centered tetragonal cell.
 ALAT       =     8.0897810354
 C/A-ratio  =     1.0808727336
  
  Lattice vectors:
  
 A1 = (   6.6924082625,   0.0000000000,  -2.6548475862)
 A2 = (  -3.0864501019,   5.9381945169,  -2.6548475862)
 A3 = (   0.0000000000,   0.0000000000,   7.1997600000)


Analysis of symmetry for initial positions (statically):
=====================================================================
 Subroutine PRICEL returns:
 Original cell was already a primitive cell.
 

 Routine SETGRP: Setting up the symmetry group for a 
 body centered tetragonal supercell.


 Subroutine GETGRP returns: Found 16 space group operations
 (whereof  8 operations were pure point group operations)
 out of a pool of 16 trial point group operations.


The static configuration has the point symmetry C_4h.
 The point group associated with its full space group is D_4h.


Analysis of symmetry for dynamics (positions and initial velocities):
=====================================================================
 Subroutine PRICEL returns:
 Original cell was already a primitive cell.
 

 Routine SETGRP: Setting up the symmetry group for a 
 body centered tetragonal supercell.


 Subroutine GETGRP returns: Found 16 space group operations
 (whereof  8 operations were pure point group operations)
 out of a pool of 16 trial point group operations.


The dynamic configuration has the point symmetry C_4h.
 The point group associated with its full space group is D_4h.


 Subroutine INISYM returns: Found 16 space group operations
 (whereof  8 operations are pure point group operations),
 and found     1 'primitive' translations


----------------------------------------------------------------------------------------

                                     Primitive cell                                     

  volume of cell :     286.1244

  direct lattice vectors                    reciprocal lattice vectors
     6.692408262  0.000000000 -2.654847586     0.149423042  0.077664476  0.000000000
    -3.086450102  5.938194517 -2.654847586     0.000000000  0.168401355  0.000000000
     0.000000000  0.000000000  7.199760000     0.055098420  0.090734590  0.138893519

  length of vectors
     7.199760000  7.199760000  7.199760000     0.168401355  0.168401355  0.174814220

  position of ions in fractional coordinates (direct lattice)
     0.500000000  0.500000000  0.500000000
     0.000000000  0.000000000  0.500000000
     0.000000000  0.500000000  1.000000000
     0.500000000  0.000000000  0.000000000
     0.198850000  0.698850000  0.218280000
     0.519430000  0.019430000  0.218280000
     0.639240000  0.860760000  0.500000000
     0.480570000  0.980570000  0.781720000
     0.019430000  0.801150000  0.500000000
     0.860760000  0.360760000  0.221520000
     0.698850000  0.480570000  0.500000000
     0.801150000  0.301150000  0.781720000
     0.139240000  0.639240000  0.778480000
     0.301150000  0.519430000  0.500000000
     0.360760000  0.139240000  0.500000000
     0.980570000  0.198850000  0.500000000
     0.250000000  0.250000000  1.000000000
     0.750000000  0.750000000  1.000000000

  ion indices of the primitive-cell ions
   primitive index   ion index
                 1           1
                 2           2
                 3           3
                 4           4
                 5           5
                 6           6
                 7           7
                 8           8
                 9           9
                10          10
                11          11
                12          12
                13          13
                14          14
                15          15
                16          16
                17          17
                18          18

----------------------------------------------------------------------------------------

 
 
 KPOINTS: EA                                      

Automatic generation of k-mesh.
 Grid dimensions read from file:
 generate k-points for:    6    6    6

 Generating k-lattice:

  Cartesian coordinates                     Fractional coordinates (reciprocal lattice)
     0.024903840  0.012944079  0.000000000     0.166666667  0.000000000  0.000000000
     0.000000000  0.028066892  0.000000000     0.000000000  0.166666667  0.000000000
     0.009183070  0.015122432  0.023148920     0.000000000  0.000000000  0.166666667

  Length of vectors
     0.028066892  0.028066892  0.029135703

  Shift w.r.t. Gamma in fractional coordinates (k-lattice)
     0.000000000  0.000000000  0.000000000

 
 Subroutine IBZKPT returns following result:
 ===========================================
 
 Found     30 irreducible k-points:
 
 Following reciprocal coordinates:
            Coordinates               Weight
  0.000000  0.000000  0.000000      1.000000
  0.166667 -0.000000  0.000000      8.000000
  0.333333 -0.000000  0.000000      8.000000
  0.500000 -0.000000  0.000000      4.000000
  0.166667  0.166667  0.000000      8.000000
  0.333333  0.166667  0.000000     16.000000
  0.500000  0.166667  0.000000     16.000000
 -0.333333  0.166667  0.000000     16.000000
 -0.166667  0.166667  0.000000      4.000000
  0.333333  0.333333  0.000000      8.000000
  0.500000  0.333333  0.000000     16.000000
 -0.333333  0.333333  0.000000      4.000000
  0.500000  0.500000  0.000000      2.000000
  0.166667  0.166667  0.166667      8.000000
  0.333333  0.166667  0.166667      8.000000
 -0.166667  0.166667  0.166667      4.000000
  0.333333  0.333333  0.166667      4.000000
 -0.333333  0.333333  0.166667      8.000000
 -0.166667  0.333333  0.166667      8.000000
  0.500000  0.500000  0.166667      4.000000
 -0.333333  0.500000  0.166667     16.000000
 -0.166667  0.500000  0.166667      8.000000
 -0.333333 -0.333333  0.166667      8.000000
 -0.166667 -0.333333  0.166667      8.000000
 -0.166667 -0.166667  0.166667      2.000000
 -0.333333  0.333333  0.333333      4.000000
  0.500000  0.500000  0.333333      4.000000
 -0.333333  0.500000  0.333333      8.000000
 -0.333333 -0.333333  0.333333      2.000000
  0.500000  0.500000  0.500000      1.000000
 
 Following cartesian coordinates:
            Coordinates               Weight
  0.000000  0.000000  0.000000      1.000000
  0.024904  0.012944  0.000000      8.000000
  0.049808  0.025888  0.000000      8.000000
  0.074712  0.038832  0.000000      4.000000
  0.024904  0.041011  0.000000      8.000000
  0.049808  0.053955  0.000000     16.000000
  0.074712  0.066899  0.000000     16.000000
 -0.049808  0.002179  0.000000     16.000000
 -0.024904  0.015123  0.000000      4.000000
  0.049808  0.082022  0.000000      8.000000
  0.074712  0.094966  0.000000     16.000000
 -0.049808  0.030246  0.000000      4.000000
  0.074712  0.123033  0.000000      2.000000
  0.034087  0.056133  0.023149      8.000000
  0.058991  0.069077  0.023149      8.000000
 -0.015721  0.030245  0.023149      4.000000
  0.058991  0.097144  0.023149      4.000000
 -0.040625  0.045368  0.023149      8.000000
 -0.015721  0.058312  0.023149      8.000000
  0.083895  0.138155  0.023149      4.000000
 -0.040625  0.073435  0.023149     16.000000
 -0.015721  0.086379  0.023149      8.000000
 -0.040625 -0.066900  0.023149      8.000000
 -0.015721 -0.053955  0.023149      8.000000
 -0.015721 -0.025889  0.023149      2.000000
 -0.031442  0.060490  0.046298      4.000000
  0.093078  0.153278  0.046298      4.000000
 -0.031442  0.088557  0.046298      8.000000
 -0.031442 -0.051777  0.046298      2.000000
  0.102261  0.168400  0.069447      1.000000
 


--------------------------------------------------------------------------------------------------------




 Dimension of arrays:
   k-points           NKPTS =     30   k-points in BZ     NKDIM =     30   number of bands    NBANDS=    114
   number of dos      NEDOS =    301   number of ions     NIONS =     18
   non local maximal  LDIM  =      6   non local SUM 2l+1 LMDIM =     18
   total plane-waves  NPLWV = 216000
   max r-space proj   IRMAX =      1   max aug-charges    IRDMAX= 264278
   dimension x,y,z NGX =    60 NGY =   60 NGZ =   60
   dimension x,y,z NGXF=   120 NGYF=  120 NGZF=  120
   support grid    NGXF=   240 NGYF=  240 NGZF=  240
   ions per type =               4  12   2
   NGX,Y,Z   is equivalent  to a cutoff of  13.85, 13.85, 13.85 a.u.
   NGXF,Y,Z  is equivalent  to a cutoff of  27.71, 27.71, 27.71 a.u.

 SYSTEM =  routine with relax: pwdword             
 POSCAR =  EA40                                    

 Startparameter for this run:
   NWRITE =      2    write-flag & timer
   PREC   = acc       normal or accurate (medium, high low for compatibility)
   ISTART =      0    job   : 0-new  1-cont  2-samecut
   ICHARG =      2    charge: 1-file 2-atom 10-const
   ISPIN  =      1    spin polarized calculation?
   LNONCOLLINEAR =      F non collinear calculations
   LSORBIT =      F    spin-orbit coupling
   INIWAV =      1    electr: 0-lowe 1-rand  2-diag
   LASPH  =      T    aspherical Exc in radial PAW
   METAGGA=      F    non-selfconsistent MetaGGA calc.

 Electronic Relaxation 1
   ENCUT  =  600.0 eV  44.10 Ry    6.64 a.u.  14.38 14.38 14.38*2*pi/ulx,y,z
   ENINI  =  600.0     initial cutoff
   ENAUG  =  535.5 eV  augmentation charge cutoff
   NELM   =    100;   NELMIN=  6; NELMDL= -5     # of ELM steps 
   EDIFF  = 0.1E-08   stopping-criterion for ELM
   LREAL  =      F    real-space projection
   NLSPLINE    = F    spline interpolate recip. space projectors
   LCOMPAT=      F    compatible to vasp.4.4
   GGA_COMPAT  = T    GGA compatible to vasp.4.4-vasp.4.6
   LMAXPAW     = -100 max onsite density
   LMAXMIX     =    2 max onsite mixed and CHGCAR
   VOSKOWN=      0    Vosko Wilk Nusair interpolation
   ROPT   =    0.00000   0.00000   0.00000
 Ionic relaxation
   EDIFFG = 0.1E-07   stopping-criterion for IOM
   NSW    =      0    number of steps for IOM
   NBLOCK =      1;   KBLOCK =      1    inner block; outer block 
   IBRION =     -1    ionic relax: 0-MD 1-quasi-New 2-CG
   NFREE  =      0    steps in history (QN), initial steepest desc. (CG)
   ISIF   =     -1    stress and relaxation
   IWAVPR =     10    prediction:  0-non 1-charg 2-wave 3-comb
   ISYM   =      2    0-nonsym 1-usesym 2-fastsym
   LCORR  =      T    Harris-Foulkes like correction to forces

   POTIM  = 0.5000    time-step for ionic-motion
   TEIN   =    0.0    initial temperature
   TEBEG  =    0.0;   TEEND  =   0.0 temperature during run
   SMASS  =  -3.00    Nose mass-parameter (am)
   estimated Nose-frequenzy (Omega)   =  0.10E-29 period in steps = 0.13E+47 mass=  -0.118E-26a.u.
   SCALEE = 1.0000    scale energy and forces
   NPACO  =    256;   APACO  = 16.0  distance and # of slots for P.C.
   PSTRESS=    0.0 pullay stress

  Mass of Ions in am
   POMASS =  10.81 95.94 28.09
  Ionic Valenz
   ZVAL   =   3.00 14.00  4.00
  Atomic Wigner-Seitz radii
   RWIGS  =  -1.00 -1.00 -1.00
  virtual crystal weights 
   VCA    =   1.00  1.00  1.00
   NELECT =     188.0000    total number of electrons
   NUPDOWN=      -1.0000    fix difference up-down

 DOS related values:
   EMIN   =  10.00;   EMAX   =-10.00  energy-range for DOS
   EFERMI =   0.00
   ISMEAR =     0;   SIGMA  =   0.02  broadening in eV -4-tet -1-fermi 0-gaus

 Electronic relaxation 2 (details)
   IALGO  =     58    algorithm
   LDIAG  =      T    sub-space diagonalisation (order eigenvalues)
   LSUBROT=      F    optimize rotation matrix (better conditioning)
   TURBO    =      0    0=normal 1=particle mesh
   IRESTART =      0    0=no restart 2=restart with 2 vectors
   NREBOOT  =      0    no. of reboots
   NMIN     =      0    reboot dimension
   EREF     =   0.00    reference energy to select bands
   IMIX   =      4    mixing-type and parameters
     AMIX     =   0.40;   BMIX     =  1.00
     AMIX_MAG =   1.60;   BMIX_MAG =  1.00
     AMIN     =   0.10
     WC   =   100.;   INIMIX=   1;  MIXPRE=   1;  MAXMIX= -45

 Intra band minimization:
   WEIMIN = 0.0000     energy-eigenvalue tresh-hold
   EBREAK =  0.22E-11  absolut break condition
   DEPER  =   0.30     relativ break condition  

   TIME   =   0.40     timestep for ELM

  volume/ion in A,a.u.               =      15.90       107.27
  Fermi-wavevector in a.u.,A,eV,Ry     =   1.423232  2.689519 27.559832  2.025590
  Thomas-Fermi vector in A             =   2.543852
 
 Write flags
   LWAVE        =      T    write WAVECAR
   LDOWNSAMPLE  =      F    k-point downsampling of WAVECAR
   LCHARG       =      T    write CHGCAR
   LVTOT        =      F    write LOCPOT, total local potential
   LVHAR        =      F    write LOCPOT, Hartree potential only
   LELF         =      F    write electronic localiz. function (ELF)
   LORBIT       =      0    0 simple, 1 ext, 2 COOP (PROOUT), +10 PAW based schemes


 Dipole corrections
   LMONO  =      F    monopole corrections only (constant potential shift)
   LDIPOL =      F    correct potential (dipole corrections)
   IDIPOL =      0    1-x, 2-y, 3-z, 4-all directions 
   EPSILON=  1.0000000 bulk dielectric constant

 Exchange correlation treatment:
   GGA     =    --    GGA type
   LEXCH   =     8    internal setting for exchange type
   VOSKOWN=      0    Vosko Wilk Nusair interpolation
   LHFCALC =     F    Hartree Fock is set to
   LHFONE  =     F    Hartree Fock one center treatment
   AEXX    =    0.0000 exact exchange contribution

 Linear response parameters
   LEPSILON=     F    determine dielectric tensor
   LRPA    =     F    only Hartree local field effects (RPA)
   LNABLA  =     F    use nabla operator in PAW spheres
   LVEL    =     F    velocity operator in full k-point grid
   LINTERFAST=   F  fast interpolation
   KINTER  =     0    interpolate to denser k-point grid
   CSHIFT  =0.1000    complex shift for real part using Kramers Kronig
   OMEGAMAX=  -1.0    maximum frequency
   DEG_THRESHOLD= 0.2000000E-02 threshold for treating states as degnerate
   RTIME   =   -0.100 relaxation time in fs
  (WPLASMAI=    0.000 imaginary part of plasma frequency in eV, 0.658/RTIME)
   DFIELD  = 0.0000000 0.0000000 0.0000000 field for delta impulse in time
 
 Orbital magnetization related:
   ORBITALMAG=     F  switch on orbital magnetization
   LCHIMAG   =     F  perturbation theory with respect to B field
   DQ        =  0.001000  dq finite difference perturbation B field
   LLRAUG    =     F  two centre corrections for induced B field



--------------------------------------------------------------------------------------------------------


 Static calculation
 charge density and potential will be updated during run
 non-spin polarized calculation
 Conjugate gradient for all bands (Freysoldt, et al. PRB 79, 241103 (2009))
 preconditioned conjugated gradient                                        
 perform sub-space diagonalisation
    before iterative eigenvector-optimisation
 modified Broyden-mixing scheme, WC =      100.0
 initial mixing is a Kerker type mixing with AMIX =  0.4000 and BMIX =      1.0000
 Hartree-type preconditioning will be used
 using additional bands           20
 reciprocal scheme for non local part
 use partial core corrections
 no Harris-corrections to forces 
 use gradient corrections 
 use of overlap-Matrix (Vanderbilt PP)
 Gauss-broadening in eV      SIGMA  =   0.02


--------------------------------------------------------------------------------------------------------


  energy-cutoff  :      600.00
  volume of cell :      286.12
      direct lattice vectors                 reciprocal lattice vectors
     6.692408262  0.000000000 -2.654847586     0.149423042  0.077664476  0.000000000
    -3.086450102  5.938194517 -2.654847586     0.000000000  0.168401355  0.000000000
     0.000000000  0.000000000  7.199760000     0.055098420  0.090734590  0.138893519

  length of vectors
     7.199760000  7.199760000  7.199760000     0.168401355  0.168401355  0.174814220


 
 k-points in units of 2pi/SCALE and weight: EA                                      
   0.00000000  0.00000000  0.00000000       0.005
   0.02490384  0.01294408  0.00000000       0.037
   0.04980768  0.02588816  0.00000000       0.037
   0.07471152  0.03883224  0.00000000       0.019
   0.02490384  0.04101097  0.00000000       0.037
   0.04980768  0.05395505  0.00000000       0.074
   0.07471152  0.06689913  0.00000000       0.074
  -0.04980768  0.00217873  0.00000000       0.074
  -0.02490384  0.01512281  0.00000000       0.019
   0.04980768  0.08202194  0.00000000       0.037
   0.07471152  0.09496602  0.00000000       0.074
  -0.04980768  0.03024563  0.00000000       0.019
   0.07471152  0.12303292  0.00000000       0.009
   0.03408691  0.05613340  0.02314892       0.037
   0.05899075  0.06907748  0.02314892       0.037
  -0.01572077  0.03024524  0.02314892       0.019
   0.05899075  0.09714438  0.02314892       0.019
  -0.04062461  0.04536806  0.02314892       0.037
  -0.01572077  0.05831214  0.02314892       0.037
   0.08389459  0.13815535  0.02314892       0.019
  -0.04062461  0.07343495  0.02314892       0.074
  -0.01572077  0.08637903  0.02314892       0.037
  -0.04062461 -0.06689951  0.02314892       0.037
  -0.01572077 -0.05395543  0.02314892       0.037
  -0.01572077 -0.02588854  0.02314892       0.009
  -0.03144154  0.06049049  0.04629784       0.019
   0.09307766  0.15327778  0.04629784       0.019
  -0.03144154  0.08855738  0.04629784       0.037
  -0.03144154 -0.05177708  0.04629784       0.009
   0.10226073  0.16840021  0.06944676       0.005
 
 k-points in reciprocal lattice and weights: EA                                      
   0.00000000  0.00000000  0.00000000       0.005
   0.16666667 -0.00000000  0.00000000       0.037
   0.33333333 -0.00000000  0.00000000       0.037
   0.50000000 -0.00000000  0.00000000       0.019
   0.16666667  0.16666667  0.00000000       0.037
   0.33333333  0.16666667  0.00000000       0.074
   0.50000000  0.16666667  0.00000000       0.074
  -0.33333333  0.16666667  0.00000000       0.074
  -0.16666667  0.16666667  0.00000000       0.019
   0.33333333  0.33333333  0.00000000       0.037
   0.50000000  0.33333333  0.00000000       0.074
  -0.33333333  0.33333333  0.00000000       0.019
   0.50000000  0.50000000  0.00000000       0.009
   0.16666667  0.16666667  0.16666667       0.037
   0.33333333  0.16666667  0.16666667       0.037
  -0.16666667  0.16666667  0.16666667       0.019
   0.33333333  0.33333333  0.16666667       0.019
  -0.33333333  0.33333333  0.16666667       0.037
  -0.16666667  0.33333333  0.16666667       0.037
   0.50000000  0.50000000  0.16666667       0.019
  -0.33333333  0.50000000  0.16666667       0.074
  -0.16666667  0.50000000  0.16666667       0.037
  -0.33333333 -0.33333333  0.16666667       0.037
  -0.16666667 -0.33333333  0.16666667       0.037
  -0.16666667 -0.16666667  0.16666667       0.009
  -0.33333333  0.33333333  0.33333333       0.019
   0.50000000  0.50000000  0.33333333       0.019
  -0.33333333  0.50000000  0.33333333       0.037
  -0.33333333 -0.33333333  0.33333333       0.009
   0.50000000  0.50000000  0.50000000       0.005
 
 position of ions in fractional coordinates (direct lattice) 
   0.50000000  0.50000000  0.50000000
   0.00000000  0.00000000  0.50000000
   0.00000000  0.50000000  0.00000000
   0.50000000  0.00000000  0.00000000
   0.19885000  0.69885000  0.21828000
   0.51943000  0.01943000  0.21828000
   0.63924000  0.86076000  0.50000000
   0.48057000  0.98057000  0.78172000
   0.01943000  0.80115000  0.50000000
   0.86076000  0.36076000  0.22152000
   0.69885000  0.48057000  0.50000000
   0.80115000  0.30115000  0.78172000
   0.13924000  0.63924000  0.77848000
   0.30115000  0.51943000  0.50000000
   0.36076000  0.13924000  0.50000000
   0.98057000  0.19885000  0.50000000
   0.25000000  0.25000000  0.00000000
   0.75000000  0.75000000  0.00000000
 
 position of ions in cartesian coordinates  (Angst):
   1.80297908  2.96909726  0.94503241
   0.00000000  0.00000000  3.59988000
  -1.54322505  2.96909726 -1.32742379
   3.34620413  0.00000000 -1.32742379
  -0.82618027  4.14990724 -0.81169307
   3.41626790  0.11537912  0.14097244
   1.62136227  5.11136031 -0.38239138
   0.18969026  5.82281540  1.74909239
  -2.34267601  4.75738454  1.42136517
   4.64708960  2.14226305 -1.64805859
   3.19373419  2.85371814  0.46869966
   4.43213843  1.78828728  2.70175789
  -1.04113144  3.79593146  3.53812342
   0.41222397  3.08447638  1.42136517
   1.98459589  0.82683420  2.27245621
   5.94863417  1.18080998  0.46869966
   0.90148954  1.48454863 -1.32742379
   2.70446862  4.45364589 -3.98227138
 


--------------------------------------------------------------------------------------------------------


 k-point   1 :   0.0000 0.0000 0.0000  plane waves:    9533
 k-point   2 :   0.1667-0.0000 0.0000  plane waves:    9564
 k-point   3 :   0.3333-0.0000 0.0000  plane waves:    9564
 k-point   4 :   0.5000-0.0000 0.0000  plane waves:    9528
 k-point   5 :   0.1667 0.1667 0.0000  plane waves:    9543
 k-point   6 :   0.3333 0.1667 0.0000  plane waves:    9544
 k-point   7 :   0.5000 0.1667 0.0000  plane waves:    9547
 k-point   8 :  -0.3333 0.1667 0.0000  plane waves:    9564
 k-point   9 :  -0.1667 0.1667 0.0000  plane waves:    9575
 k-point  10 :   0.3333 0.3333 0.0000  plane waves:    9535
 k-point  11 :   0.5000 0.3333 0.0000  plane waves:    9555
 k-point  12 :  -0.3333 0.3333 0.0000  plane waves:    9557
 k-point  13 :   0.5000 0.5000 0.0000  plane waves:    9550
 k-point  14 :   0.1667 0.1667 0.1667  plane waves:    9556
 k-point  15 :   0.3333 0.1667 0.1667  plane waves:    9534
 k-point  16 :  -0.1667 0.1667 0.1667  plane waves:    9562
 k-point  17 :   0.3333 0.3333 0.1667  plane waves:    9558
 k-point  18 :  -0.3333 0.3333 0.1667  plane waves:    9542
 k-point  19 :  -0.1667 0.3333 0.1667  plane waves:    9558
 k-point  20 :   0.5000 0.5000 0.1667  plane waves:    9564
 k-point  21 :  -0.3333 0.5000 0.1667  plane waves:    9536
 k-point  22 :  -0.1667 0.5000 0.1667  plane waves:    9553
 k-point  23 :  -0.3333-0.3333 0.1667  plane waves:    9539
 k-point  24 :  -0.1667-0.3333 0.1667  plane waves:    9541
 k-point  25 :  -0.1667-0.1667 0.1667  plane waves:    9521
 k-point  26 :  -0.3333 0.3333 0.3333  plane waves:    9546
 k-point  27 :   0.5000 0.5000 0.3333  plane waves:    9518
 k-point  28 :  -0.3333 0.5000 0.3333  plane waves:    9526
 k-point  29 :  -0.3333-0.3333 0.3333  plane waves:    9554
 k-point  30 :   0.5000 0.5000 0.5000  plane waves:    9594

 maximum and minimum number of plane-waves per node :      4797     4744

 maximum number of plane-waves:      9594
 maximum index in each direction: 
   IXMAX=   14   IYMAX=   14   IZMAX=   14
   IXMIN=  -14   IYMIN=  -14   IZMIN=  -14


 parallel 3D FFT for wavefunctions:
    minimum data exchange during FFTs selected (reduces bandwidth)
 parallel 3D FFT for charge:
    minimum data exchange during FFTs selected (reduces bandwidth)


 total amount of memory used by VASP MPI-rank0   271310. kBytes
=======================================================================

   base      :      30000. kBytes
   nonl-proj :      63590. kBytes
   fftplans  :      24337. kBytes
   grid      :      18307. kBytes
   one-center:        139. kBytes
   wavefun   :     134937. kBytes
 
     INWAV:  cpu time    0.0001: real time    0.0001
 Broyden mixing: mesh for mixing (old mesh)
   NGX = 29   NGY = 29   NGZ = 29
  (NGX  =120   NGY  =120   NGZ  =120)
  gives a total of  24389 points

 initial charge density was supplied:
 charge density of overlapping atoms calculated
 number of electron     188.0000000 magnetization 
 keeping initial charge density in first step


--------------------------------------------------------------------------------------------------------


 Maximum index for augmentation-charges        21502 (set IRDMAX)


--------------------------------------------------------------------------------------------------------


 First call to EWALD:  gamma=   0.269
 Maximum number of real-space cells 3x 3x 3
 Maximum number of reciprocal cells 3x 3x 3

    FEWALD:  cpu time    0.0059: real time    0.0060


--------------------------------------- Iteration      1(   1)  ---------------------------------------


    POTLOK:  cpu time    0.2644: real time    0.2665
    SETDIJ:  cpu time    0.7633: real time    0.7686
    TRIAL :  cpu time   26.2306: real time   26.4564
    CORREC:  cpu time    0.0011: real time    0.0011
    --------------------------------------------
      LOOP:  cpu time   27.3053: real time   27.5422

 eigenvalue-minimisations  :  7164
 total energy-change (2. order) : 0.2344355E+04  (-0.1306537E+05)
 number of electron     188.0000000 magnetization 
 augmentation part      188.0000000 magnetization 

 Free energy of the ion-electron system (eV)
  ---------------------------------------------------
  alpha Z        PSCENC =      1109.21529219
  Ewald energy   TEWEN  =    -15924.66352569
  -Hartree energ DENC   =     -6654.96862266
  -exchange      EXHF   =         0.00000000
  -V(xc)+E(xc)   XCENC  =       946.21451182
  PAW double counting   =     18167.42904368   -18107.57746203
  entropy T*S    EENTRO =        -0.00222165
  eigenvalues    EBANDS =       -29.49420715
  atomic energy  EATOM  =     22838.20177132
  ---------------------------------------------------
  free energy    TOTEN  =      2344.35457984 eV

  energy without entropy =     2344.35680149  energy(sigma->0) =     2344.35569066


--------------------------------------------------------------------------------------------------------




--------------------------------------- Iteration      1(   2)  ---------------------------------------


    TRIAL :  cpu time   26.1520: real time   26.5896
    CORREC:  cpu time    0.0010: real time    0.0010
    --------------------------------------------
      LOOP:  cpu time   26.1556: real time   26.5937

 eigenvalue-minimisations  :  7380
 total energy-change (2. order) :-0.2617744E+04  (-0.2545270E+04)
 number of electron     188.0000000 magnetization 
 augmentation part      188.0000000 magnetization 

 Free energy of the ion-electron system (eV)
  ---------------------------------------------------
  alpha Z        PSCENC =      1109.21529219
  Ewald energy   TEWEN  =    -15924.66352569
  -Hartree energ DENC   =     -6654.96862266
  -exchange      EXHF   =         0.00000000
  -V(xc)+E(xc)   XCENC  =       946.21451182
  PAW double counting   =     18167.42904368   -18107.57746203
  entropy T*S    EENTRO =        -0.00302964
  eigenvalues    EBANDS =     -2647.23690299
  atomic energy  EATOM  =     22838.20177132
  ---------------------------------------------------
  free energy    TOTEN  =      -273.38892400 eV

  energy without entropy =     -273.38589435  energy(sigma->0) =     -273.38740918


--------------------------------------------------------------------------------------------------------




--------------------------------------- Iteration      1(   3)  ---------------------------------------


    TRIAL :  cpu time   30.2575: real time   30.6876
    CORREC:  cpu time    0.0010: real time    0.0010
    --------------------------------------------
      LOOP:  cpu time   30.2607: real time   30.6914

 eigenvalue-minimisations  :  9132
 total energy-change (2. order) :-0.1201913E+03  (-0.1146802E+03)
 number of electron     188.0000000 magnetization 
 augmentation part      188.0000000 magnetization 

 Free energy of the ion-electron system (eV)
  ---------------------------------------------------
  alpha Z        PSCENC =      1109.21529219
  Ewald energy   TEWEN  =    -15924.66352569
  -Hartree energ DENC   =     -6654.96862266
  -exchange      EXHF   =         0.00000000
  -V(xc)+E(xc)   XCENC  =       946.21451182
  PAW double counting   =     18167.42904368   -18107.57746203
  entropy T*S    EENTRO =        -0.00169507
  eigenvalues    EBANDS =     -2767.42953304
  atomic energy  EATOM  =     22838.20177132
  ---------------------------------------------------
  free energy    TOTEN  =      -393.58021947 eV

  energy without entropy =     -393.57852441  energy(sigma->0) =     -393.57937194


--------------------------------------------------------------------------------------------------------




--------------------------------------- Iteration      1(   4)  ---------------------------------------


    TRIAL :  cpu time   28.5420: real time   29.0090
    CORREC:  cpu time    0.0010: real time    0.0010
    --------------------------------------------
      LOOP:  cpu time   28.5453: real time   29.0129

 eigenvalue-minimisations  :  8340
 total energy-change (2. order) :-0.3531203E+01  (-0.3456413E+01)
 number of electron     188.0000000 magnetization 
 augmentation part      188.0000000 magnetization 

 Free energy of the ion-electron system (eV)
  ---------------------------------------------------
  alpha Z        PSCENC =      1109.21529219
  Ewald energy   TEWEN  =    -15924.66352569
  -Hartree energ DENC   =     -6654.96862266
  -exchange      EXHF   =         0.00000000
  -V(xc)+E(xc)   XCENC  =       946.21451182
  PAW double counting   =     18167.42904368   -18107.57746203
  entropy T*S    EENTRO =        -0.00224158
  eigenvalues    EBANDS =     -2770.96018952
  atomic energy  EATOM  =     22838.20177132
  ---------------------------------------------------
  free energy    TOTEN  =      -397.11142247 eV

  energy without entropy =     -397.10918089  energy(sigma->0) =     -397.11030168


--------------------------------------------------------------------------------------------------------




--------------------------------------- Iteration      1(   5)  ---------------------------------------


    TRIAL :  cpu time   29.0950: real time   29.5606
    CORREC:  cpu time    0.0010: real time    0.0010
    CHARGE:  cpu time    1.9373: real time    1.9556
    --------------------------------------------
      LOOP:  cpu time   31.0345: real time   31.5201

 eigenvalue-minimisations  :  8616
 total energy-change (2. order) :-0.8898829E-01  (-0.8863283E-01)
 number of electron     187.9999990 magnetization 
 augmentation part       27.3962220 magnetization 

 Free energy of the ion-electron system (eV)
  ---------------------------------------------------
  alpha Z        PSCENC =      1109.21529219
  Ewald energy   TEWEN  =    -15924.66352569
  -Hartree energ DENC   =     -6654.96862266
  -exchange      EXHF   =         0.00000000
  -V(xc)+E(xc)   XCENC  =       946.21451182
  PAW double counting   =     18167.42904368   -18107.57746203
  entropy T*S    EENTRO =        -0.00228998
  eigenvalues    EBANDS =     -2771.04912941
  atomic energy  EATOM  =     22838.20177132
  ---------------------------------------------------
  free energy    TOTEN  =      -397.20041075 eV

  energy without entropy =     -397.19812077  energy(sigma->0) =     -397.19926576


--------------------------------------------------------------------------------------------------------




--------------------------------------- Iteration      1(   6)  ---------------------------------------


    POTLOK:  cpu time    0.2444: real time    0.2460
    SETDIJ:  cpu time    0.7577: real time    0.7625
    TRIAL :  cpu time   22.6194: real time   22.8482
    CORREC:  cpu time    8.8431: real time    8.9166
    CHARGE:  cpu time    2.0894: real time    2.1068
    --------------------------------------------
      LOOP:  cpu time   34.5577: real time   34.8844

 eigenvalue-minimisations  :     0
 total energy-change (2. order) : 0.1841565E+03  (-0.6320270E+02)
 number of electron     187.9999998 magnetization 
 augmentation part       28.9708151 magnetization 

 Free energy of the ion-electron system (eV)
  ---------------------------------------------------
  alpha Z        PSCENC =      1109.21529219
  Ewald energy   TEWEN  =    -15924.66352569
  -Hartree energ DENC   =     -6683.62896205
  -exchange      EXHF   =         0.00000000
  -V(xc)+E(xc)   XCENC  =       967.40219096
  PAW double counting   =     29558.66852069   -29559.67095251
  entropy T*S    EENTRO =        -0.00321049
  eigenvalues    EBANDS =     -2518.56591312
  atomic energy  EATOM  =     22838.20177132
  ---------------------------------------------------
  free energy    TOTEN  =      -213.04386819 eV

  energy without entropy =     -213.04065770  energy(sigma->0) =     -213.04226295


--------------------------------------------------------------------------------------------------------




--------------------------------------- Iteration      1(   7)  ---------------------------------------


    POTLOK:  cpu time    0.2148: real time    0.2163
    SETDIJ:  cpu time    0.7583: real time    0.7634
    TRIAL :  cpu time   23.7277: real time   23.9306
    CORREC:  cpu time    8.2186: real time    8.2864
    CHARGE:  cpu time    2.2687: real time    2.2870
    --------------------------------------------
      LOOP:  cpu time   35.1897: real time   35.4877

 eigenvalue-minimisations  :     0
 total energy-change (2. order) :-0.6597063E+02  (-0.1242440E+02)
 number of electron     188.0000000 magnetization 
 augmentation part       29.3229818 magnetization 

 Free energy of the ion-electron system (eV)
  ---------------------------------------------------
  alpha Z        PSCENC =      1109.21529219
  Ewald energy   TEWEN  =    -15924.66352569
  -Hartree energ DENC   =     -6637.98520734
  -exchange      EXHF   =         0.00000000
  -V(xc)+E(xc)   XCENC  =       967.89956096
  PAW double counting   =     28237.22138503   -28226.76623313
  entropy T*S    EENTRO =        -0.00165195
  eigenvalues    EBANDS =     -2642.13433243
  atomic energy  EATOM  =     22838.20177132
  ---------------------------------------------------
  free energy    TOTEN  =      -279.01449957 eV

  energy without entropy =     -279.01284763  energy(sigma->0) =     -279.01367360


--------------------------------------------------------------------------------------------------------




--------------------------------------- Iteration      1(   8)  ---------------------------------------


    POTLOK:  cpu time    0.2339: real time    0.2358
    SETDIJ:  cpu time    0.8430: real time    0.8483
    TRIAL :  cpu time   24.3888: real time   24.7645
    CORREC:  cpu time    8.2161: real time    8.2862
    CHARGE:  cpu time    2.2430: real time    2.2644
    --------------------------------------------
      LOOP:  cpu time   35.9258: real time   36.4050

 eigenvalue-minimisations  :     0
 total energy-change (2. order) :-0.1239175E+02  (-0.2909682E+01)
 number of electron     187.9999999 magnetization 
 augmentation part       29.4354235 magnetization 

 Free energy of the ion-electron system (eV)
  ---------------------------------------------------
  alpha Z        PSCENC =      1109.21529219
  Ewald energy   TEWEN  =    -15924.66352569
  -Hartree energ DENC   =     -6585.01055757
  -exchange      EXHF   =         0.00000000
  -V(xc)+E(xc)   XCENC  =       967.74167794
  PAW double counting   =     26861.96290762   -26842.60895616
  entropy T*S    EENTRO =        -0.00265705
  eigenvalues    EBANDS =     -2716.24320717
  atomic energy  EATOM  =     22838.20177132
  ---------------------------------------------------
  free energy    TOTEN  =      -291.40624948 eV

  energy without entropy =     -291.40359242  energy(sigma->0) =     -291.40492095


--------------------------------------------------------------------------------------------------------




--------------------------------------- Iteration      1(   9)  ---------------------------------------


    POTLOK:  cpu time    0.2202: real time    0.2217
    SETDIJ:  cpu time    0.7641: real time    0.7693
    TRIAL :  cpu time   23.6027: real time   23.8201
    CORREC:  cpu time    8.2815: real time    8.3542
    CHARGE:  cpu time    2.0515: real time    2.0691
    --------------------------------------------
      LOOP:  cpu time   34.9216: real time   35.2372

 eigenvalue-minimisations  :     0
 total energy-change (2. order) :-0.2909957E+01  (-0.1112323E+01)
 number of electron     187.9999999 magnetization 
 augmentation part       29.4904042 magnetization 

 Free energy of the ion-electron system (eV)
  ---------------------------------------------------
  alpha Z        PSCENC =      1109.21529219
  Ewald energy   TEWEN  =    -15924.66352569
  -Hartree energ DENC   =     -6573.78820172
  -exchange      EXHF   =         0.00000000
  -V(xc)+E(xc)   XCENC  =       968.47917873
  PAW double counting   =     26225.17706781   -26201.25521923
  entropy T*S    EENTRO =        -0.00247366
  eigenvalues    EBANDS =     -2735.67991330
  atomic energy  EATOM  =     22838.20177132
  ---------------------------------------------------
  free energy    TOTEN  =      -294.31620693 eV

  energy without entropy =     -294.31373327  energy(sigma->0) =     -294.31497010


--------------------------------------------------------------------------------------------------------




--------------------------------------- Iteration      1(  10)  ---------------------------------------


    POTLOK:  cpu time    0.2193: real time    0.2207
    SETDIJ:  cpu time    0.7554: real time    0.7600
    TRIAL :  cpu time   23.9542: real time   24.2304
    CORREC:  cpu time    8.1037: real time    8.1738
    CHARGE:  cpu time    2.0042: real time    2.0231
    --------------------------------------------
      LOOP:  cpu time   35.0377: real time   35.4228

 eigenvalue-minimisations  :     0
 total energy-change (2. order) :-0.1112074E+01  (-0.3966130E+00)
 number of electron     187.9999999 magnetization 
 augmentation part       29.4422395 magnetization 

 Free energy of the ion-electron system (eV)
  ---------------------------------------------------
  alpha Z        PSCENC =      1109.21529219
  Ewald energy   TEWEN  =    -15924.66352569
  -Hartree energ DENC   =     -6592.23519466
  -exchange      EXHF   =         0.00000000
  -V(xc)+E(xc)   XCENC  =       969.58602488
  PAW double counting   =     25884.90633686   -25858.08313026
  entropy T*S    EENTRO =        -0.00277222
  eigenvalues    EBANDS =     -2722.35338203
  atomic energy  EATOM  =     22838.20177132
  ---------------------------------------------------
  free energy    TOTEN  =      -295.42828105 eV

  energy without entropy =     -295.42550883  energy(sigma->0) =     -295.42689494


--------------------------------------------------------------------------------------------------------




--------------------------------------- Iteration      1(  11)  ---------------------------------------


    POTLOK:  cpu time    0.4685: real time    0.4715
    SETDIJ:  cpu time    0.6750: real time    0.6793
    TRIAL :  cpu time   23.6738: real time   23.9042
    CORREC:  cpu time    8.3519: real time    8.4222
    CHARGE:  cpu time    2.0621: real time    2.0795
    --------------------------------------------
      LOOP:  cpu time   35.2340: real time   35.5605

 eigenvalue-minimisations  :     0
 total energy-change (2. order) :-0.3966837E+00  (-0.1553111E+00)
 number of electron     187.9999999 magnetization 
 augmentation part       29.3941069 magnetization 

 Free energy of the ion-electron system (eV)
  ---------------------------------------------------
  alpha Z        PSCENC =      1109.21529219
  Ewald energy   TEWEN  =    -15924.66352569
  -Hartree energ DENC   =     -6598.62464718
  -exchange      EXHF   =         0.00000000
  -V(xc)+E(xc)   XCENC  =       969.77988042
  PAW double counting   =     25728.75270650   -25701.43373693
  entropy T*S    EENTRO =        -0.00249470
  eigenvalues    EBANDS =     -2717.04993316
  atomic energy  EATOM  =     22838.20177132
  ---------------------------------------------------
  free energy    TOTEN  =      -295.82496475 eV

  energy without entropy =     -295.82247004  energy(sigma->0) =     -295.82371739


--------------------------------------------------------------------------------------------------------




--------------------------------------- Iteration      1(  12)  ---------------------------------------


    POTLOK:  cpu time    0.3185: real time    0.3205
    SETDIJ:  cpu time    0.6834: real time    0.6877
    TRIAL :  cpu time   23.3410: real time   23.6539
    CORREC:  cpu time    8.0520: real time    8.1219
    CHARGE:  cpu time    1.8966: real time    1.9145
    --------------------------------------------
      LOOP:  cpu time   34.4062: real time   34.8155

 eigenvalue-minimisations  :     0
 total energy-change (2. order) :-0.1552462E+00  (-0.6979777E-01)
 number of electron     187.9999999 magnetization 
 augmentation part       29.3991377 magnetization 

 Free energy of the ion-electron system (eV)
  ---------------------------------------------------
  alpha Z        PSCENC =      1109.21529219
  Ewald energy   TEWEN  =    -15924.66352569
  -Hartree energ DENC   =     -6588.13844356
  -exchange      EXHF   =         0.00000000
  -V(xc)+E(xc)   XCENC  =       969.38328780
  PAW double counting   =     25700.70119125   -25673.90481981
  entropy T*S    EENTRO =        -0.00222977
  eigenvalues    EBANDS =     -2726.77246974
  atomic energy  EATOM  =     22838.20177132
  ---------------------------------------------------
  free energy    TOTEN  =      -295.98021095 eV

  energy without entropy =     -295.97798118  energy(sigma->0) =     -295.97909607


--------------------------------------------------------------------------------------------------------




--------------------------------------- Iteration      1(  13)  ---------------------------------------


    POTLOK:  cpu time    0.2297: real time    0.2312
    SETDIJ:  cpu time    0.8577: real time    0.8633
    TRIAL :  cpu time   23.5341: real time   23.8612
    CORREC:  cpu time    8.1346: real time    8.2034
    CHARGE:  cpu time    2.0171: real time    2.0353
    --------------------------------------------
      LOOP:  cpu time   34.7751: real time   35.1979

 eigenvalue-minimisations  :     0
 total energy-change (2. order) :-0.6975502E-01  (-0.3347752E-01)
 number of electron     187.9999999 magnetization 
 augmentation part       29.4169887 magnetization 

 Free energy of the ion-electron system (eV)
  ---------------------------------------------------
  alpha Z        PSCENC =      1109.21529219
  Ewald energy   TEWEN  =    -15924.66352569
  -Hartree energ DENC   =     -6584.39087196
  -exchange      EXHF   =         0.00000000
  -V(xc)+E(xc)   XCENC  =       969.26032038
  PAW double counting   =     25737.70405156   -25711.08848853
  entropy T*S    EENTRO =        -0.00206888
  eigenvalues    EBANDS =     -2730.28628548
  atomic energy  EATOM  =     22838.20177132
  ---------------------------------------------------
  free energy    TOTEN  =      -296.04996597 eV

  energy without entropy =     -296.04789709  energy(sigma->0) =     -296.04893153


--------------------------------------------------------------------------------------------------------




--------------------------------------- Iteration      1(  14)  ---------------------------------------


    POTLOK:  cpu time    0.2163: real time    0.2177
    SETDIJ:  cpu time    0.8458: real time    0.8511
    TRIAL :  cpu time   23.2782: real time   23.4787
    CORREC:  cpu time    8.2447: real time    8.3144
    CHARGE:  cpu time    1.9780: real time    1.9960
    --------------------------------------------
      LOOP:  cpu time   34.5644: real time   34.8602

 eigenvalue-minimisations  :     0
 total energy-change (2. order) :-0.3347220E-01  (-0.1799051E-01)
 number of electron     187.9999999 magnetization 
 augmentation part       29.4218435 magnetization 

 Free energy of the ion-electron system (eV)
  ---------------------------------------------------
  alpha Z        PSCENC =      1109.21529219
  Ewald energy   TEWEN  =    -15924.66352569
  -Hartree energ DENC   =     -6587.67799229
  -exchange      EXHF   =         0.00000000
  -V(xc)+E(xc)   XCENC  =       969.39192597
  PAW double counting   =     25780.86996561   -25754.13299948
  entropy T*S    EENTRO =        -0.00205897
  eigenvalues    EBANDS =     -2727.28580692
  atomic energy  EATOM  =     22838.20177132
  ---------------------------------------------------
  free energy    TOTEN  =      -296.08343817 eV

  energy without entropy =     -296.08137920  energy(sigma->0) =     -296.08240868


--------------------------------------------------------------------------------------------------------




--------------------------------------- Iteration      1(  15)  ---------------------------------------


    POTLOK:  cpu time    0.3040: real time    0.3058
    SETDIJ:  cpu time    0.6753: real time    0.6792
    TRIAL :  cpu time   24.0194: real time   24.4109
    CORREC:  cpu time    8.1768: real time    8.2470
    CHARGE:  cpu time    1.9691: real time    1.9857
    --------------------------------------------
      LOOP:  cpu time   35.1459: real time   35.6311

 eigenvalue-minimisations  :     0
 total energy-change (2. order) :-0.1797608E-01  (-0.8821430E-02)
 number of electron     187.9999999 magnetization 
 augmentation part       29.4167546 magnetization 

 Free energy of the ion-electron system (eV)
  ---------------------------------------------------
  alpha Z        PSCENC =      1109.21529219
  Ewald energy   TEWEN  =    -15924.66352569
  -Hartree energ DENC   =     -6589.19623573
  -exchange      EXHF   =         0.00000000
  -V(xc)+E(xc)   XCENC  =       969.47485355
  PAW double counting   =     25810.47418746   -25783.56728860
  entropy T*S    EENTRO =        -0.00212126
  eigenvalues    EBANDS =     -2726.03840979
  atomic energy  EATOM  =     22838.20177132
  ---------------------------------------------------
  free energy    TOTEN  =      -296.10141425 eV

  energy without entropy =     -296.09929299  energy(sigma->0) =     -296.10035362


--------------------------------------------------------------------------------------------------------




--------------------------------------- Iteration      1(  16)  ---------------------------------------


    POTLOK:  cpu time    0.2390: real time    0.2406
    SETDIJ:  cpu time    0.8366: real time    0.8421
    TRIAL :  cpu time   23.9997: real time   24.3474
    CORREC:  cpu time    8.1712: real time    8.2404
    CHARGE:  cpu time    2.0655: real time    2.0846
    --------------------------------------------
      LOOP:  cpu time   35.3142: real time   35.7589

 eigenvalue-minimisations  :     0
 total energy-change (2. order) :-0.8832568E-02  (-0.4365241E-02)
 number of electron     187.9999999 magnetization 
 augmentation part       29.4197968 magnetization 

 Free energy of the ion-electron system (eV)
  ---------------------------------------------------
  alpha Z        PSCENC =      1109.21529219
  Ewald energy   TEWEN  =    -15924.66352569
  -Hartree energ DENC   =     -6588.64597014
  -exchange      EXHF   =         0.00000000
  -V(xc)+E(xc)   XCENC  =       969.45742680
  PAW double counting   =     25811.58164672   -25784.64573398
  entropy T*S    EENTRO =        -0.00222653
  eigenvalues    EBANDS =     -2726.60903278
  atomic energy  EATOM  =     22838.20177132
  ---------------------------------------------------
  free energy    TOTEN  =      -296.11024682 eV

  energy without entropy =     -296.10802029  energy(sigma->0) =     -296.10913356


--------------------------------------------------------------------------------------------------------




--------------------------------------- Iteration      1(  17)  ---------------------------------------


    POTLOK:  cpu time    0.2252: real time    0.2268
    SETDIJ:  cpu time    0.8403: real time    0.8459
    TRIAL :  cpu time   24.2320: real time   24.5854
    CORREC:  cpu time    8.1156: real time    8.1830
    CHARGE:  cpu time    1.9836: real time    2.0014
    --------------------------------------------
      LOOP:  cpu time   35.3988: real time   35.8463

 eigenvalue-minimisations  :     0
 total energy-change (2. order) :-0.4363803E-02  (-0.1968134E-02)
 number of electron     187.9999999 magnetization 
 augmentation part       29.4192703 magnetization 

 Free energy of the ion-electron system (eV)
  ---------------------------------------------------
  alpha Z        PSCENC =      1109.21529219
  Ewald energy   TEWEN  =    -15924.66352569
  -Hartree energ DENC   =     -6589.45031067
  -exchange      EXHF   =         0.00000000
  -V(xc)+E(xc)   XCENC  =       969.46804388
  PAW double counting   =     25803.60737491   -25776.63159899
  entropy T*S    EENTRO =        -0.00228404
  eigenvalues    EBANDS =     -2725.85943104
  atomic energy  EATOM  =     22838.20177132
  ---------------------------------------------------
  free energy    TOTEN  =      -296.11461062 eV

  energy without entropy =     -296.11232658  energy(sigma->0) =     -296.11346860


--------------------------------------------------------------------------------------------------------




--------------------------------------- Iteration      1(  18)  ---------------------------------------


    POTLOK:  cpu time    0.2191: real time    0.2206
    SETDIJ:  cpu time    0.7488: real time    0.7536
    TRIAL :  cpu time   23.3452: real time   23.6317
    CORREC:  cpu time    8.1674: real time    8.2384
    CHARGE:  cpu time    2.0741: real time    2.0927
    --------------------------------------------
      LOOP:  cpu time   34.5574: real time   34.9412

 eigenvalue-minimisations  :     0
 total energy-change (2. order) :-0.1964924E-02  (-0.8731262E-03)
 number of electron     187.9999999 magnetization 
 augmentation part       29.4200998 magnetization 

 Free energy of the ion-electron system (eV)
  ---------------------------------------------------
  alpha Z        PSCENC =      1109.21529219
  Ewald energy   TEWEN  =    -15924.66352569
  -Hartree energ DENC   =     -6588.85988259
  -exchange      EXHF   =         0.00000000
  -V(xc)+E(xc)   XCENC  =       969.45160152
  PAW double counting   =     25797.48739535   -25770.55023043
  entropy T*S    EENTRO =        -0.00232741
  eigenvalues    EBANDS =     -2726.39671318
  atomic energy  EATOM  =     22838.20177132
  ---------------------------------------------------
  free energy    TOTEN  =      -296.11657555 eV

  energy without entropy =     -296.11424814  energy(sigma->0) =     -296.11541184


--------------------------------------------------------------------------------------------------------




--------------------------------------- Iteration      1(  19)  ---------------------------------------


    POTLOK:  cpu time    0.3218: real time    0.3239
    SETDIJ:  cpu time    0.6802: real time    0.6848
    TRIAL :  cpu time   22.4891: real time   22.6819
    CORREC:  cpu time    8.1578: real time    8.2258
    CHARGE:  cpu time    1.9992: real time    2.0172
    --------------------------------------------
      LOOP:  cpu time   33.6560: real time   33.9426

 eigenvalue-minimisations  :     0
 total energy-change (2. order) :-0.8721155E-03  (-0.4184400E-03)
 number of electron     187.9999999 magnetization 
 augmentation part       29.4197116 magnetization 

 Free energy of the ion-electron system (eV)
  ---------------------------------------------------
  alpha Z        PSCENC =      1109.21529219
  Ewald energy   TEWEN  =    -15924.66352569
  -Hartree energ DENC   =     -6588.89610658
  -exchange      EXHF   =         0.00000000
  -V(xc)+E(xc)   XCENC  =       969.45464094
  PAW double counting   =     25797.61555070   -25770.68566161
  entropy T*S    EENTRO =        -0.00234847
  eigenvalues    EBANDS =     -2726.35708152
  atomic energy  EATOM  =     22838.20177132
  ---------------------------------------------------
  free energy    TOTEN  =      -296.11744766 eV

  energy without entropy =     -296.11509920  energy(sigma->0) =     -296.11627343


--------------------------------------------------------------------------------------------------------




--------------------------------------- Iteration      1(  20)  ---------------------------------------


    POTLOK:  cpu time    0.2073: real time    0.2086
    SETDIJ:  cpu time    0.7599: real time    0.7647
    TRIAL :  cpu time   23.7464: real time   24.0841
    CORREC:  cpu time    8.2972: real time    8.3668
    CHARGE:  cpu time    1.8916: real time    1.9091
    --------------------------------------------
      LOOP:  cpu time   34.9051: real time   35.3366

 eigenvalue-minimisations  :     0
 total energy-change (2. order) :-0.4177963E-03  (-0.1936003E-03)
 number of electron     187.9999999 magnetization 
 augmentation part       29.4189108 magnetization 

 Free energy of the ion-electron system (eV)
  ---------------------------------------------------
  alpha Z        PSCENC =      1109.21529219
  Ewald energy   TEWEN  =    -15924.66352569
  -Hartree energ DENC   =     -6589.02929718
  -exchange      EXHF   =         0.00000000
  -V(xc)+E(xc)   XCENC  =       969.45570577
  PAW double counting   =     25798.81635663   -25771.90052270
  entropy T*S    EENTRO =        -0.00235739
  eigenvalues    EBANDS =     -2726.21129734
  atomic energy  EATOM  =     22838.20177132
  ---------------------------------------------------
  free energy    TOTEN  =      -296.11786546 eV

  energy without entropy =     -296.11550807  energy(sigma->0) =     -296.11668677


--------------------------------------------------------------------------------------------------------




--------------------------------------- Iteration      1(  21)  ---------------------------------------


    POTLOK:  cpu time    0.2243: real time    0.2257
    SETDIJ:  cpu time    0.8278: real time    0.8328
    TRIAL :  cpu time   23.7176: real time   23.9554
    CORREC:  cpu time    8.2608: real time    8.3312
    CHARGE:  cpu time    1.9840: real time    2.0026
    --------------------------------------------
      LOOP:  cpu time   35.0151: real time   35.3494

 eigenvalue-minimisations  :     0
 total energy-change (2. order) :-0.1936700E-03  (-0.7872343E-04)
 number of electron     187.9999999 magnetization 
 augmentation part       29.4188191 magnetization 

 Free energy of the ion-electron system (eV)
  ---------------------------------------------------
  alpha Z        PSCENC =      1109.21529219
  Ewald energy   TEWEN  =    -15924.66352569
  -Hartree energ DENC   =     -6588.86684174
  -exchange      EXHF   =         0.00000000
  -V(xc)+E(xc)   XCENC  =       969.44986031
  PAW double counting   =     25799.60726781   -25772.69928295
  entropy T*S    EENTRO =        -0.00235570
  eigenvalues    EBANDS =     -2726.36024299
  atomic energy  EATOM  =     22838.20177132
  ---------------------------------------------------
  free energy    TOTEN  =      -296.11805913 eV

  energy without entropy =     -296.11570343  energy(sigma->0) =     -296.11688128


--------------------------------------------------------------------------------------------------------




--------------------------------------- Iteration      1(  22)  ---------------------------------------


    POTLOK:  cpu time    0.2138: real time    0.2153
    SETDIJ:  cpu time    0.7733: real time    0.7786
    TRIAL :  cpu time   23.1734: real time   23.5451
    CORREC:  cpu time    8.2588: real time    8.3290
    CHARGE:  cpu time    1.9565: real time    1.9749
    --------------------------------------------
      LOOP:  cpu time   34.3804: real time   34.8484

 eigenvalue-minimisations  :     0
 total energy-change (2. order) :-0.7834176E-04  (-0.3432164E-04)
 number of electron     187.9999999 magnetization 
 augmentation part       29.4192091 magnetization 

 Free energy of the ion-electron system (eV)
  ---------------------------------------------------
  alpha Z        PSCENC =      1109.21529219
  Ewald energy   TEWEN  =    -15924.66352569
  -Hartree energ DENC   =     -6588.83375847
  -exchange      EXHF   =         0.00000000
  -V(xc)+E(xc)   XCENC  =       969.44983210
  PAW double counting   =     25798.60322442   -25771.69775388
  entropy T*S    EENTRO =        -0.00235447
  eigenvalues    EBANDS =     -2726.39086375
  atomic energy  EATOM  =     22838.20177132
  ---------------------------------------------------
  free energy    TOTEN  =      -296.11813747 eV

  energy without entropy =     -296.11578300  energy(sigma->0) =     -296.11696024


--------------------------------------------------------------------------------------------------------




--------------------------------------- Iteration      1(  23)  ---------------------------------------


    POTLOK:  cpu time    0.3408: real time    0.3428
    SETDIJ:  cpu time    0.6811: real time    0.6856
    TRIAL :  cpu time   23.3209: real time   23.6973
    CORREC:  cpu time    8.2257: real time    8.3028
    CHARGE:  cpu time    1.9656: real time    1.9828
    --------------------------------------------
      LOOP:  cpu time   34.5358: real time   35.0149

 eigenvalue-minimisations  :     0
 total energy-change (2. order) :-0.3428428E-04  (-0.1848184E-04)
 number of electron     187.9999999 magnetization 
 augmentation part       29.4189752 magnetization 

 Free energy of the ion-electron system (eV)
  ---------------------------------------------------
  alpha Z        PSCENC =      1109.21529219
  Ewald energy   TEWEN  =    -15924.66352569
  -Hartree energ DENC   =     -6588.92945093
  -exchange      EXHF   =         0.00000000
  -V(xc)+E(xc)   XCENC  =       969.45294924
  PAW double counting   =     25797.68142337   -25770.77142749
  entropy T*S    EENTRO =        -0.00234988
  eigenvalues    EBANDS =     -2726.30284930
  atomic energy  EATOM  =     22838.20177132
  ---------------------------------------------------
  free energy    TOTEN  =      -296.11817176 eV

  energy without entropy =     -296.11582187  energy(sigma->0) =     -296.11699681


--------------------------------------------------------------------------------------------------------




--------------------------------------- Iteration      1(  24)  ---------------------------------------


    POTLOK:  cpu time    0.2165: real time    0.2179
    SETDIJ:  cpu time    0.7743: real time    0.7789
    TRIAL :  cpu time   22.8301: real time   23.0238
    CORREC:  cpu time    9.1944: real time    9.2710
    CHARGE:  cpu time    1.9234: real time    1.9402
    --------------------------------------------
      LOOP:  cpu time   34.9419: real time   35.2354

 eigenvalue-minimisations  :     0
 total energy-change (2. order) :-0.1848000E-04  (-0.8056972E-05)
 number of electron     187.9999999 magnetization 
 augmentation part       29.4188422 magnetization 

 Free energy of the ion-electron system (eV)
  ---------------------------------------------------
  alpha Z        PSCENC =      1109.21529219
  Ewald energy   TEWEN  =    -15924.66352569
  -Hartree energ DENC   =     -6588.88951638
  -exchange      EXHF   =         0.00000000
  -V(xc)+E(xc)   XCENC  =       969.45117210
[...]
     92       8.4555      2.00000
     93       8.7570      1.95702
     94       8.8528      0.00000
     95       9.0976      0.00000
     96       9.1069      0.00000
     97       9.4289      0.00000
     98       9.4379      0.00000
     99       9.5331      0.00000
    100       9.7584      0.00000
    101       9.7949      0.00000
    102      10.1180      0.00000
    103      10.1843      0.00000
    104      10.4006      0.00000
    105      10.4404      0.00000
    106      10.5188      0.00000
    107      10.7785      0.00000
    108      10.8112      0.00000
    109      11.0228      0.00000
    110      11.1043      0.00000
    111      11.1491      0.00000
    112      11.2357      0.00000
    113      11.5153      0.00000
    114      11.6256      0.00000

 k-point    27 :       0.5000    0.5000    0.3333
  band No.  band energies     occupation 
      1     -53.9147      2.00000
      2     -53.9101      2.00000
      3     -53.8799      2.00000
      4     -53.8780      2.00000
      5     -53.4752      2.00000
      6     -53.4313      2.00000
      7     -53.4096      2.00000
      8     -53.4027      2.00000
      9     -53.3997      2.00000
     10     -53.3896      2.00000
     11     -53.3685      2.00000
     12     -53.3193      2.00000
     13     -28.3125      2.00000
     14     -28.2524      2.00000
     15     -28.1004      2.00000
     16     -28.0938      2.00000
     17     -28.0809      2.00000
     18     -27.9555      2.00000
     19     -27.8620      2.00000
     20     -27.8149      2.00000
     21     -27.5188      2.00000
     22     -27.4766      2.00000
     23     -27.4519      2.00000
     24     -27.4098      2.00000
     25     -27.4069      2.00000
     26     -27.3942      2.00000
     27     -27.3194      2.00000
     28     -27.2116      2.00000
     29     -27.1426      2.00000
     30     -27.1047      2.00000
     31     -27.0983      2.00000
     32     -26.9499      2.00000
     33     -26.8964      2.00000
     34     -26.7467      2.00000
     35     -26.7348      2.00000
     36     -26.7054      2.00000
     37     -26.6938      2.00000
     38     -26.6225      2.00000
     39     -26.5732      2.00000
     40     -26.5510      2.00000
     41     -26.4816      2.00000
     42     -26.4587      2.00000
     43     -26.4142      2.00000
     44     -26.4005      2.00000
     45     -26.3804      2.00000
     46     -26.3460      2.00000
     47     -26.3391      2.00000
     48     -26.1905      2.00000
     49       0.4274      2.00000
     50       0.5401      2.00000
     51       1.9347      2.00000
     52       2.2393      2.00000
     53       2.2739      2.00000
     54       2.4513      2.00000
     55       2.5721      2.00000
     56       2.9735      2.00000
     57       3.0626      2.00000
     58       3.4347      2.00000
     59       3.5920      2.00000
     60       3.7216      2.00000
     61       3.8949      2.00000
     62       4.1390      2.00000
     63       4.3499      2.00000
     64       4.8906      2.00000
     65       4.9041      2.00000
     66       5.0611      2.00000
     67       5.5206      2.00000
     68       5.5911      2.00000
     69       6.0820      2.00000
     70       6.1659      2.00000
     71       6.2278      2.00000
     72       6.2935      2.00000
     73       6.3912      2.00000
     74       6.4619      2.00000
     75       6.5455      2.00000
     76       6.5668      2.00000
     77       6.7165      2.00000
     78       6.7776      2.00000
     79       6.8335      2.00000
     80       6.8831      2.00000
     81       7.1509      2.00000
     82       7.2472      2.00000
     83       7.2497      2.00000
     84       7.3147      2.00000
     85       7.5179      2.00000
     86       7.6419      2.00000
     87       7.7579      2.00000
     88       7.8682      2.00000
     89       7.9044      2.00000
     90       8.1708      2.00000
     91       8.2217      2.00000
     92       8.4351      2.00000
     93       8.8939      0.00000
     94       8.9924      0.00000
     95       9.1868      0.00000
     96       9.2020      0.00000
     97       9.5096      0.00000
     98       9.5298      0.00000
     99       9.6782      0.00000
    100       9.7096      0.00000
    101       9.8115      0.00000
    102       9.9112      0.00000
    103      10.1479      0.00000
    104      10.1831      0.00000
    105      10.5362      0.00000
    106      10.5515      0.00000
    107      10.8011      0.00000
    108      10.9983      0.00000
    109      11.0353      0.00000
    110      11.1224      0.00000
    111      11.2028      0.00000
    112      11.3671      0.00000
    113      11.4880      0.00000
    114      11.5376      0.00000

 k-point    28 :      -0.3333    0.5000    0.3333
  band No.  band energies     occupation 
      1     -53.9127      2.00000
      2     -53.9118      2.00000
      3     -53.8792      2.00000
      4     -53.8789      2.00000
      5     -53.4763      2.00000
      6     -53.4289      2.00000
      7     -53.4114      2.00000
      8     -53.4091      2.00000
      9     -53.3911      2.00000
     10     -53.3901      2.00000
     11     -53.3693      2.00000
     12     -53.3199      2.00000
     13     -28.3161      2.00000
     14     -28.2466      2.00000
     15     -28.1119      2.00000
     16     -28.0950      2.00000
     17     -28.0895      2.00000
     18     -27.9427      2.00000
     19     -27.8452      2.00000
     20     -27.8276      2.00000
     21     -27.5166      2.00000
     22     -27.4738      2.00000
     23     -27.4696      2.00000
     24     -27.4124      2.00000
     25     -27.4006      2.00000
     26     -27.3790      2.00000
     27     -27.3311      2.00000
     28     -27.2183      2.00000
     29     -27.1195      2.00000
     30     -27.1029      2.00000
     31     -27.0950      2.00000
     32     -26.9671      2.00000
     33     -26.8699      2.00000
     34     -26.7428      2.00000
     35     -26.7335      2.00000
     36     -26.6929      2.00000
     37     -26.6923      2.00000
     38     -26.6380      2.00000
     39     -26.5942      2.00000
     40     -26.5935      2.00000
     41     -26.4532      2.00000
     42     -26.4344      2.00000
     43     -26.4328      2.00000
     44     -26.3903      2.00000
     45     -26.3865      2.00000
     46     -26.3380      2.00000
     47     -26.3379      2.00000
     48     -26.2016      2.00000
     49       0.4550      2.00000
     50       0.4809      2.00000
     51       2.1239      2.00000
     52       2.1592      2.00000
     53       2.3513      2.00000
     54       2.3704      2.00000
     55       2.7161      2.00000
     56       2.9450      2.00000
     57       2.9877      2.00000
     58       3.4641      2.00000
     59       3.6069      2.00000
     60       3.6304      2.00000
     61       3.8017      2.00000
     62       4.0764      2.00000
     63       4.4089      2.00000
     64       4.9428      2.00000
     65       5.0461      2.00000
     66       5.1123      2.00000
     67       5.5064      2.00000
     68       5.5695      2.00000
     69       6.0518      2.00000
     70       6.1017      2.00000
     71       6.1606      2.00000
     72       6.2247      2.00000
     73       6.2847      2.00000
     74       6.4448      2.00000
     75       6.5092      2.00000
     76       6.6212      2.00000
     77       6.6506      2.00000
     78       6.8035      2.00000
     79       6.8389      2.00000
     80       6.9383      2.00000
     81       6.9714      2.00000
     82       7.2171      2.00000
     83       7.2875      2.00000
     84       7.3601      2.00000
     85       7.5038      2.00000
     86       7.6063      2.00000
     87       7.7763      2.00000
     88       7.8484      2.00000
     89       7.9155      2.00000
     90       8.3088      2.00000
     91       8.3434      2.00000
     92       8.6068      2.00000
     93       8.6727      2.00000
     94       8.7541      1.97417
     95       8.9198      0.00000
     96       9.2521      0.00000
     97       9.5971      0.00000
     98       9.6832      0.00000
     99       9.7302      0.00000
    100       9.8291      0.00000
    101       9.9012      0.00000
    102      10.0289      0.00000
    103      10.1767      0.00000
    104      10.3313      0.00000
    105      10.4942      0.00000
    106      10.5340      0.00000
    107      10.6371      0.00000
    108      10.8499      0.00000
    109      10.9803      0.00000
    110      11.0042      0.00000
    111      11.1066      0.00000
    112      11.2912      0.00000
    113      11.3212      0.00000
    114      11.6293      0.00000

 k-point    29 :      -0.3333   -0.3333    0.3333
  band No.  band energies     occupation 
      1     -53.9180      2.00000
      2     -53.9067      2.00000
      3     -53.8789      2.00000
      4     -53.8788      2.00000
      5     -53.4758      2.00000
      6     -53.4233      2.00000
      7     -53.4231      2.00000
      8     -53.4191      2.00000
      9     -53.3801      2.00000
     10     -53.3799      2.00000
     11     -53.3706      2.00000
     12     -53.3242      2.00000
     13     -28.3186      2.00000
     14     -28.2274      2.00000
     15     -28.1232      2.00000
     16     -28.1230      2.00000
     17     -28.1106      2.00000
     18     -27.9407      2.00000
     19     -27.8271      2.00000
     20     -27.8268      2.00000
     21     -27.5046      2.00000
     22     -27.4698      2.00000
     23     -27.4697      2.00000
     24     -27.4225      2.00000
     25     -27.3592      2.00000
     26     -27.3590      2.00000
     27     -27.3271      2.00000
     28     -27.2207      2.00000
     29     -27.1077      2.00000
     30     -27.1076      2.00000
     31     -27.0692      2.00000
     32     -27.0106      2.00000
     33     -26.8247      2.00000
     34     -26.8012      2.00000
     35     -26.7060      2.00000
     36     -26.6769      2.00000
     37     -26.6753      2.00000
     38     -26.6752      2.00000
     39     -26.6638      2.00000
     40     -26.6638      2.00000
     41     -26.4208      2.00000
     42     -26.4208      2.00000
     43     -26.4092      2.00000
     44     -26.3968      2.00000
     45     -26.3615      2.00000
     46     -26.3189      2.00000
     47     -26.3188      2.00000
     48     -26.2339      2.00000
     49       0.3112      2.00000
     50       0.5251      2.00000
     51       2.2817      2.00000
     52       2.3399      2.00000
     53       2.3400      2.00000
     54       2.4355      2.00000
     55       2.9543      2.00000
     56       2.9544      2.00000
     57       2.9783      2.00000
     58       3.3809      2.00000
     59       3.3811      2.00000
     60       3.3980      2.00000
     61       3.6119      2.00000
     62       4.0626      2.00000
     63       4.5828      2.00000
     64       5.1262      2.00000
     65       5.3749      2.00000
     66       5.3750      2.00000
     67       5.4328      2.00000
     68       5.4450      2.00000
     69       5.9143      2.00000
     70       5.9144      2.00000
     71       6.1899      2.00000
     72       6.1900      2.00000
     73       6.1948      2.00000
     74       6.2058      2.00000
     75       6.3688      2.00000
     76       6.6012      2.00000
     77       6.7200      2.00000
     78       6.7200      2.00000
     79       6.7345      2.00000
     80       6.8688      2.00000
     81       6.8689      2.00000
     82       7.1256      2.00000
     83       7.4042      2.00000
     84       7.7395      2.00000
     85       7.7395      2.00000
     86       7.7965      2.00000
     87       7.7966      2.00000
     88       7.8566      2.00000
     89       7.8653      2.00000
     90       8.1556      2.00000
     91       8.3332      2.00000
     92       8.4131      2.00000
     93       8.4132      2.00000
     94       8.4261      2.00000
     95       9.1068      0.00000
     96       9.1649      0.00000
     97       9.6220      0.00000
     98       9.6221      0.00000
     99       9.8688      0.00000
    100       9.9379      0.00000
    101       9.9379      0.00000
    102      10.1377      0.00000
    103      10.3997      0.00000
    104      10.5825      0.00000
    105      10.5887      0.00000
    106      10.6054      0.00000
    107      10.7534      0.00000
    108      10.8534      0.00000
    109      10.8684      0.00000
    110      10.9368      0.00000
    111      10.9550      0.00000
    112      11.0496      0.00000
    113      11.1652      0.00000
    114      11.5575      0.00000

 k-point    30 :       0.5000    0.5000    0.5000
  band No.  band energies     occupation 
      1     -53.9123      2.00000
      2     -53.9109      2.00000
      3     -53.8799      2.00000
      4     -53.8798      2.00000
      5     -53.4789      2.00000
      6     -53.4214      2.00000
      7     -53.4027      2.00000
      8     -53.4025      2.00000
      9     -53.3997      2.00000
     10     -53.3995      2.00000
     11     -53.3746      2.00000
     12     -53.3164      2.00000
     13     -28.3233      2.00000
     14     -28.2492      2.00000
     15     -28.1009      2.00000
     16     -28.0808      2.00000
     17     -28.0806      2.00000
     18     -27.8973      2.00000
     19     -27.8620      2.00000
     20     -27.8617      2.00000
     21     -27.5252      2.00000
     22     -27.4787      2.00000
     23     -27.4786      2.00000
     24     -27.4053      2.00000
     25     -27.3955      2.00000
     26     -27.3954      2.00000
     27     -27.3798      2.00000
     28     -27.2164      2.00000
     29     -27.1181      2.00000
     30     -27.1019      2.00000
     31     -27.1019      2.00000
     32     -26.9301      2.00000
     33     -26.8802      2.00000
     34     -26.7351      2.00000
     35     -26.7028      2.00000
     36     -26.6882      2.00000
     37     -26.6880      2.00000
     38     -26.6248      2.00000
     39     -26.5610      2.00000
     40     -26.5610      2.00000
     41     -26.4928      2.00000
     42     -26.4435      2.00000
     43     -26.4435      2.00000
     44     -26.3988      2.00000
     45     -26.3913      2.00000
     46     -26.3547      2.00000
     47     -26.3546      2.00000
     48     -26.1895      2.00000
     49       0.4556      2.00000
     50       0.5327      2.00000
     51       2.1671      2.00000
     52       2.1712      2.00000
     53       2.1713      2.00000
     54       2.4733      2.00000
     55       2.5314      2.00000
     56       2.9188      2.00000
     57       2.9190      2.00000
     58       3.7254      2.00000
     59       3.7356      2.00000
     60       3.7358      2.00000
     61       3.9417      2.00000
     62       4.0288      2.00000
     63       4.0377      2.00000
     64       4.8907      2.00000
     65       5.2228      2.00000
     66       5.2228      2.00000
     67       5.2621      2.00000
     68       5.3105      2.00000
     69       6.0923      2.00000
     70       6.0923      2.00000
     71       6.2640      2.00000
     72       6.2641      2.00000
     73       6.3523      2.00000
     74       6.4247      2.00000
     75       6.5509      2.00000
     76       6.6095      2.00000
     77       6.6095      2.00000
     78       6.8271      2.00000
     79       7.0643      2.00000
     80       7.0644      2.00000
     81       7.0764      2.00000
     82       7.2229      2.00000
     83       7.2230      2.00000
     84       7.2630      2.00000
     85       7.2983      2.00000
     86       7.3808      2.00000
     87       7.6108      2.00000
     88       7.8370      2.00000
     89       7.8372      2.00000
     90       8.2091      2.00000
     91       8.6941      2.00000
     92       8.6941      2.00000
     93       8.7165      2.00000
     94       8.9164      0.00000
     95       9.0350      0.00000
     96       9.3475      0.00000
     97       9.5687      0.00000
     98       9.6423      0.00000
     99       9.6423      0.00000
    100       9.9719      0.00000
    101       9.9939      0.00000
    102       9.9940      0.00000
    103      10.2326      0.00000
    104      10.2327      0.00000
    105      10.5640      0.00000
    106      10.6819      0.00000
    107      10.7736      0.00000
    108      10.8751      0.00000
    109      10.8843      0.00000
    110      10.9499      0.00000
    111      11.0292      0.00000
    112      11.2366      0.00000
    113      11.5078      0.00000
    114      11.5656      0.00000


--------------------------------------------------------------------------------------------------------


 soft charge-density along one line, spin component           1
         0         1         2         3         4         5         6         7         8         9
 total charge-density along one line
 
 pseudopotential strength for first ion, spin component:           1
  6.239   9.464  -0.000  -0.000   0.000  -0.000  -0.000   0.000
  9.464  14.349  -0.000  -0.000   0.000  -0.000  -0.000   0.000
 -0.000  -0.000  -1.953  -0.001   0.008  -3.257  -0.003   0.017
 -0.000  -0.000  -0.001  -1.962   0.034  -0.003  -3.277   0.068
  0.000   0.000   0.008   0.034  -2.049   0.017   0.068  -3.452
 -0.000  -0.000  -3.257  -0.003   0.017  -5.220  -0.007   0.033
 -0.000  -0.000  -0.003  -3.277   0.068  -0.007  -5.259   0.133
  0.000   0.000   0.017   0.068  -3.452   0.033   0.133  -5.601
 total augmentation occupancy for first ion, spin component:           1
  5.974  -2.015   0.000   0.000   0.000   0.000   0.000   0.000
 -2.015   0.954   0.000   0.000   0.000   0.000   0.000   0.000
  0.000   0.000   4.188  -0.047  -0.402  -1.131  -0.006   0.183
  0.000   0.000  -0.047   4.502  -1.514  -0.007  -1.307   0.712
  0.000   0.000  -0.402  -1.514   8.349   0.185   0.710  -3.124
  0.000   0.000  -1.131  -0.007   0.185   0.323   0.016  -0.093
  0.000   0.000  -0.006  -1.307   0.710   0.016   0.428  -0.373
  0.000   0.000   0.183   0.712  -3.124  -0.093  -0.373   1.383


------------------------ aborting loop because EDIFF is reached ----------------------------------------




--------------------------------------------------------------------------------------------------------



  FREE ENERGIE OF THE ION-ELECTRON SYSTEM (eV)
  ---------------------------------------------------
  free  energy   TOTEN  =      -296.11820525 eV

  energy  without entropy=     -296.11586218  energy(sigma->0) =     -296.11703371
 


--------------------------------------------------------------------------------------------------------


    POTLOK:  cpu time    1.0183: real time    1.0253


--------------------------------------------------------------------------------------------------------


 writing wavefunctions
     LOOP+:  cpu time 1308.0578: real time 1323.5134
    4ORBIT:  cpu time    0.0000: real time    0.0000

 total amount of memory used by VASP MPI-rank0   271310. kBytes
=======================================================================

   base      :      30000. kBytes
   nonl-proj :      63590. kBytes
   fftplans  :      24337. kBytes
   grid      :      18307. kBytes
   one-center:        139. kBytes
   wavefun   :     134937. kBytes
 
  
  
 General timing and accounting informations for this job:
 ========================================================
  
                  Total CPU time used (sec):     1315.053
                            User time (sec):     1286.515
                          System time (sec):       28.538
                         Elapsed time (sec):     1334.285
  
                   Maximum memory used (kb):      486736.
                   Average memory used (kb):          N/A
  
                          Minor page faults:      5909918
                          Major page faults:           37
                 Voluntary context switches:         8335
