<?xml version="1.0" encoding="ISO-8859-1"?>
<modeling>
 <generator>
  <i name="program" type="string">vasp </i>
  <i name="version" type="string">6.2.0  </i>
  <i name="subversion" type="string">18Jan21 (build Jan 05 2022 15:41:44) complex                          parallel </i>
  <i name="platform" type="string">LinuxIFC </i>
  <i name="date" type="string">2025 05 07 </i>
  <i name="time" type="string">16:04:11 </i>
 </generator>
 <incar>
  <i type="string" name="SYSTEM">routine with relax: pwdword</i>
  <i type="string" name="PREC">Acc</i>
  <i type="int" name="IALGO">    38</i>
  <i type="string" name="ALGO">A</i>
  <i type="logical" name="ADDGRID"> T  </i>
  <i type="int" name="ICHARG">     2</i>
  <i type="int" name="NELM">   100</i>
  <i type="int" name="NELMIN">     6</i>
  <i name="EDIFF">      0.00000000</i>
  <i type="int" name="NSW">     0</i>
  <i type="int" name="ISIF">    -1</i>
  <i name="ENCUT">    600.00000000</i>
  <i type="logical" name="LREAL"> F  </i>
  <i type="int" name="ISMEAR">     0</i>
  <i name="SIGMA">      0.02000000</i>
  <i type="logical" name="LASPH"> T  </i>
  <i type="string" name="METAGGA">R2SCAN</i>
  <i type="logical" name="LMIXTAU"> F  </i>
 </incar>
 <primitive_cell>
  <structure name="primitive_cell" >
   <crystal>
    <varray name="basis" >
     <v>       6.14740561       0.00000000      -2.25668994 </v>
     <v>      -2.99645801       5.36766570      -2.25668994 </v>
     <v>       0.00000000       0.00000000       6.54853000 </v>
    </varray>
    <i name="volume">    216.08327334 </i>
    <varray name="rec_basis" >
     <v>       0.16267025       0.09080941       0.00000000 </v>
     <v>       0.00000000       0.18630072       0.00000000 </v>
     <v>       0.05605782       0.09549497       0.15270603 </v>
    </varray>
   </crystal>
   <varray name="positions" >
    <v>       0.50000000       0.00000000       0.50000000 </v>
    <v>       0.00000000       0.50000000       0.50000000 </v>
    <v>       0.25000000       0.25000000       1.00000000 </v>
    <v>       0.25000000       0.75000000       0.50000000 </v>
    <v>       0.75000000       0.75000000       1.00000000 </v>
    <v>       0.75000000       0.25000000       0.50000000 </v>
    <v>       0.20878000       0.05443000       0.26321000 </v>
    <v>       0.79122000       0.94557000       0.73679000 </v>
    <v>       0.05443000       0.79122000       0.84566000 </v>
    <v>       0.94557000       0.20878000       0.15434000 </v>
    <v>       0.29122000       0.55443000       0.84566000 </v>
    <v>       0.70878000       0.44557000       0.15434000 </v>
    <v>       0.44557000       0.29122000       0.73679000 </v>
    <v>       0.55443000       0.70878000       0.26321000 </v>
   </varray>
  </structure>
  <varray name="primitive_index" >
   <v type="int" >        1 </v>
   <v type="int" >        2 </v>
   <v type="int" >        3 </v>
   <v type="int" >        4 </v>
   <v type="int" >        5 </v>
   <v type="int" >        6 </v>
   <v type="int" >        7 </v>
   <v type="int" >        8 </v>
   <v type="int" >        9 </v>
   <v type="int" >       10 </v>
   <v type="int" >       11 </v>
   <v type="int" >       12 </v>
   <v type="int" >       13 </v>
   <v type="int" >       14 </v>
  </varray>
 </primitive_cell>
 <kpoints>
  <generation param="Gamma">
   <v type="int" name="divisions">       7        7        7 </v>
   <v name="usershift">      0.00000000       0.00000000       0.00000000 </v>
   <v name="genvec1">      0.14285714       0.00000000       0.00000000 </v>
   <v name="genvec2">      0.00000000       0.14285714       0.00000000 </v>
   <v name="genvec3">     -0.00000000       0.00000000       0.14285714 </v>
   <v name="shift">      0.00000000       0.00000000       0.00000000 </v>
  </generation>
  <varray name="kpointlist" >
   <v>       0.00000000       0.00000000       0.00000000 </v>
   <v>       0.14285714      -0.00000000       0.00000000 </v>
   <v>       0.28571429      -0.00000000       0.00000000 </v>
   <v>       0.42857143      -0.00000000       0.00000000 </v>
   <v>       0.14285714       0.14285714       0.00000000 </v>
   <v>       0.28571429       0.14285714       0.00000000 </v>
   <v>       0.42857143       0.14285714       0.00000000 </v>
   <v>      -0.42857143       0.14285714       0.00000000 </v>
   <v>      -0.28571429       0.14285714       0.00000000 </v>
   <v>      -0.14285714       0.14285714       0.00000000 </v>
   <v>       0.28571429       0.28571429       0.00000000 </v>
   <v>       0.42857143       0.28571429       0.00000000 </v>
   <v>      -0.42857143       0.28571429       0.00000000 </v>
   <v>      -0.28571429       0.28571429       0.00000000 </v>
   <v>       0.42857143       0.42857143       0.00000000 </v>
   <v>      -0.42857143       0.42857143       0.00000000 </v>
   <v>      -0.00000000      -0.00000000       0.14285714 </v>
   <v>       0.14285714      -0.00000000       0.14285714 </v>
   <v>       0.28571429      -0.00000000       0.14285714 </v>
   <v>       0.42857143      -0.00000000       0.14285714 </v>
   <v>      -0.42857143       0.00000000       0.14285714 </v>
   <v>      -0.28571429       0.00000000       0.14285714 </v>
   <v>      -0.14285714       0.00000000       0.14285714 </v>
   <v>       0.14285714       0.14285714       0.14285714 </v>
   <v>       0.28571429       0.14285714       0.14285714 </v>
   <v>       0.42857143       0.14285714       0.14285714 </v>
   <v>      -0.42857143       0.14285714       0.14285714 </v>
   <v>      -0.28571429       0.14285714       0.14285714 </v>
   <v>      -0.14285714       0.14285714       0.14285714 </v>
   <v>       0.28571429       0.28571429       0.14285714 </v>
   <v>       0.42857143       0.28571429       0.14285714 </v>
   <v>      -0.42857143       0.28571429       0.14285714 </v>
   <v>      -0.28571429       0.28571429       0.14285714 </v>
   <v>      -0.14285714       0.28571429       0.14285714 </v>
   <v>       0.42857143       0.42857143       0.14285714 </v>
   <v>      -0.42857143       0.42857143       0.14285714 </v>
   <v>      -0.28571429       0.42857143       0.14285714 </v>
   <v>      -0.14285714       0.42857143       0.14285714 </v>
   <v>      -0.42857143      -0.42857143       0.14285714 </v>
   <v>      -0.28571429      -0.42857143       0.14285714 </v>
   <v>      -0.14285714      -0.42857143       0.14285714 </v>
   <v>      -0.28571429      -0.28571429       0.14285714 </v>
   <v>      -0.14285714      -0.28571429       0.14285714 </v>
   <v>      -0.14285714      -0.14285714       0.14285714 </v>
   <v>       0.00000000      -0.00000000       0.28571429 </v>
   <v>       0.14285714      -0.00000000       0.28571429 </v>
   <v>       0.28571429      -0.00000000       0.28571429 </v>
   <v>       0.42857143      -0.00000000       0.28571429 </v>
   <v>      -0.42857143      -0.00000000       0.28571429 </v>
   <v>      -0.28571429      -0.00000000       0.28571429 </v>
   <v>      -0.14285714      -0.00000000       0.28571429 </v>
   <v>       0.14285714       0.14285714       0.28571429 </v>
   <v>       0.28571429       0.14285714       0.28571429 </v>
   <v>       0.42857143       0.14285714       0.28571429 </v>
   <v>      -0.42857143       0.14285714       0.28571429 </v>
   <v>      -0.28571429       0.14285714       0.28571429 </v>
   <v>      -0.14285714       0.14285714       0.28571429 </v>
   <v>       0.28571429       0.28571429       0.28571429 </v>
   <v>       0.42857143       0.28571429       0.28571429 </v>
   <v>      -0.42857143       0.28571429       0.28571429 </v>
   <v>      -0.28571429       0.28571429       0.28571429 </v>
   <v>      -0.14285714       0.28571429       0.28571429 </v>
   <v>       0.42857143       0.42857143       0.28571429 </v>
   <v>      -0.42857143       0.42857143       0.28571429 </v>
   <v>      -0.28571429       0.42857143       0.28571429 </v>
   <v>      -0.14285714       0.42857143       0.28571429 </v>
   <v>      -0.42857143      -0.42857143       0.28571429 </v>
   <v>      -0.28571429      -0.42857143       0.28571429 </v>
   <v>      -0.14285714      -0.42857143       0.28571429 </v>
   <v>      -0.28571429      -0.28571429       0.28571429 </v>
   <v>      -0.14285714      -0.28571429       0.28571429 </v>
   <v>      -0.14285714      -0.14285714       0.28571429 </v>
   <v>       0.00000000      -0.00000000       0.42857143 </v>
   <v>       0.14285714      -0.00000000       0.42857143 </v>
   <v>       0.28571429      -0.00000000       0.42857143 </v>
   <v>       0.42857143      -0.00000000       0.42857143 </v>
   <v>      -0.42857143      -0.00000000       0.42857143 </v>
   <v>      -0.28571429      -0.00000000       0.42857143 </v>
   <v>      -0.14285714      -0.00000000       0.42857143 </v>
   <v>       0.14285714       0.14285714       0.42857143 </v>
   <v>       0.28571429       0.14285714       0.42857143 </v>
   <v>       0.42857143       0.14285714       0.42857143 </v>
   <v>      -0.42857143       0.14285714       0.42857143 </v>
   <v>      -0.28571429       0.14285714       0.42857143 </v>
   <v>      -0.14285714       0.14285714       0.42857143 </v>
   <v>       0.28571429       0.28571429       0.42857143 </v>
   <v>       0.42857143       0.28571429       0.42857143 </v>
   <v>      -0.42857143       0.28571429       0.42857143 </v>
   <v>      -0.28571429       0.28571429       0.42857143 </v>
   <v>      -0.14285714       0.28571429       0.42857143 </v>
   <v>       0.42857143       0.42857143       0.42857143 </v>
   <v>      -0.42857143       0.42857143       0.42857143 </v>
   <v>      -0.28571429       0.42857143       0.42857143 </v>
   <v>      -0.14285714       0.42857143       0.42857143 </v>
   <v>      -0.42857143      -0.42857143       0.42857143 </v>
   <v>      -0.28571429      -0.42857143       0.42857143 </v>
   <v>      -0.14285714      -0.42857143       0.42857143 </v>
   <v>      -0.28571429      -0.28571429       0.42857143 </v>
   <v>      -0.14285714      -0.28571429       0.42857143 </v>
   <v>      -0.14285714      -0.14285714       0.42857143 </v>
  </varray>
  <varray name="weights" >
   <v>       0.00291545 </v>
   <v>       0.01166181 </v>
   <v>       0.01166181 </v>
   <v>       0.01166181 </v>
   <v>       0.00583090 </v>
   <v>       0.01166181 </v>
   <v>       0.01166181 </v>
   <v>       0.01166181 </v>
   <v>       0.01166181 </v>
   <v>       0.00583090 </v>
   <v>       0.00583090 </v>
   <v>       0.01166181 </v>
   <v>       0.01166181 </v>
   <v>       0.00583090 </v>
   <v>       0.00583090 </v>
   <v>       0.00583090 </v>
   <v>       0.00583090 </v>
   <v>       0.01166181 </v>
   <v>       0.01166181 </v>
   <v>       0.01166181 </v>
   <v>       0.01166181 </v>
   <v>       0.01166181 </v>
   <v>       0.01166181 </v>
   <v>       0.00583090 </v>
   <v>       0.01166181 </v>
   <v>       0.01166181 </v>
   <v>       0.01166181 </v>
   <v>       0.01166181 </v>
   <v>       0.01166181 </v>
   <v>       0.00583090 </v>
   <v>       0.01166181 </v>
   <v>       0.01166181 </v>
   <v>       0.01166181 </v>
   <v>       0.01166181 </v>
   <v>       0.00583090 </v>
   <v>       0.01166181 </v>
   <v>       0.01166181 </v>
   <v>       0.01166181 </v>
   <v>       0.00583090 </v>
   <v>       0.01166181 </v>
   <v>       0.01166181 </v>
   <v>       0.00583090 </v>
   <v>       0.01166181 </v>
   <v>       0.00583090 </v>
   <v>       0.00583090 </v>
   <v>       0.01166181 </v>
   <v>       0.01166181 </v>
   <v>       0.01166181 </v>
   <v>       0.01166181 </v>
   <v>       0.01166181 </v>
   <v>       0.01166181 </v>
   <v>       0.00583090 </v>
   <v>       0.01166181 </v>
   <v>       0.01166181 </v>
   <v>       0.01166181 </v>
   <v>       0.01166181 </v>
   <v>       0.01166181 </v>
   <v>       0.00583090 </v>
   <v>       0.01166181 </v>
   <v>       0.01166181 </v>
   <v>       0.01166181 </v>
   <v>       0.01166181 </v>
   <v>       0.00583090 </v>
   <v>       0.01166181 </v>
   <v>       0.01166181 </v>
   <v>       0.01166181 </v>
   <v>       0.00583090 </v>
   <v>       0.01166181 </v>
   <v>       0.01166181 </v>
   <v>       0.00583090 </v>
   <v>       0.01166181 </v>
   <v>       0.00583090 </v>
   <v>       0.00583090 </v>
   <v>       0.01166181 </v>
   <v>       0.01166181 </v>
   <v>       0.01166181 </v>
   <v>       0.01166181 </v>
   <v>       0.01166181 </v>
   <v>       0.01166181 </v>
   <v>       0.00583090 </v>
   <v>       0.01166181 </v>
   <v>       0.01166181 </v>
   <v>       0.01166181 </v>
   <v>       0.01166181 </v>
   <v>       0.01166181 </v>
   <v>       0.00583090 </v>
   <v>       0.01166181 </v>
   <v>       0.01166181 </v>
   <v>       0.01166181 </v>
   <v>       0.01166181 </v>
   <v>       0.00583090 </v>
   <v>       0.01166181 </v>
   <v>       0.01166181 </v>
   <v>       0.01166181 </v>
   <v>       0.00583090 </v>
   <v>       0.01166181 </v>
   <v>       0.01166181 </v>
   <v>       0.00583090 </v>
   <v>       0.01166181 </v>
   <v>       0.00583090 </v>
  </varray>
 </kpoints>
 <parameters>
  <separator name="general" >
   <i type="string" name="SYSTEM">routine with relax: pwdword</i>
   <i type="logical" name="LCOMPAT"> F  </i>
  </separator>
  <separator name="electronic" >
   <i type="string" name="PREC">acc</i>
   <i name="ENMAX">    600.00000000</i>
   <i name="ENAUG">    535.51400000</i>
   <i name="EDIFF">      0.00000000</i>
   <i type="int" name="IALGO">    58</i>
   <i type="int" name="IWAVPR">    10</i>
   <i type="int" name="NBANDS">    60</i>
   <i type="int" name="NBANDSLOW">    -1</i>
   <i type="int" name="NBANDSHIGH">    -1</i>
   <i name="NELECT">     94.00000000</i>
   <i type="int" name="TURBO">     0</i>
   <i type="int" name="IRESTART">     0</i>
   <i type="int" name="NREBOOT">     0</i>
   <i type="int" name="NMIN">     0</i>
   <i name="EREF">      0.00000000</i>
   <separator name="electronic smearing" >
    <i type="int" name="ISMEAR">     0</i>
    <i name="SIGMA">      0.02000000</i>
    <i name="KSPACING">      0.50000000</i>
    <i type="logical" name="KGAMMA"> T  </i>
    <i type="logical" name="KBLOWUP"> T  </i>
   </separator>
   <separator name="electronic projectors" >
    <i type="logical" name="LREAL"> F  </i>
    <v name="ROPT">      0.00000000      0.00000000      0.00000000</v>
    <i type="int" name="LMAXPAW">  -100</i>
    <i type="int" name="LMAXMIX">     2</i>
    <i type="logical" name="NLSPLINE"> F  </i>
   </separator>
   <separator name="electronic startup" >
    <i type="int" name="ISTART">     0</i>
    <i type="int" name="ICHARG">     2</i>
    <i type="int" name="INIWAV">     1</i>
   </separator>
   <separator name="electronic spin" >
    <i type="int" name="ISPIN">     1</i>
    <i type="logical" name="LNONCOLLINEAR"> F  </i>
    <v name="MAGMOM">      1.00000000      1.00000000      1.00000000      1.00000000      1.00000000      1.00000000      1.00000000      1.00000000      1.00000000      1.00000000      1.00000000      1.00000000      1.00000000      1.00000000</v>
    <i name="NUPDOWN">     -1.00000000</i>
    <i type="logical" name="LSORBIT"> F  </i>
    <v name="SAXIS">      0.00000000      0.00000000      1.00000000</v>
    <i type="logical" name="LSPIRAL"> F  </i>
    <v name="QSPIRAL">      0.00000000      0.00000000      0.00000000</v>
    <i type="logical" name="LZEROZ"> F  </i>
   </separator>
   <separator name="electronic exchange-correlation" >
    <i type="logical" name="LASPH"> T  </i>
    <i type="logical" name="LMETAGGA"> F  </i>
   </separator>
   <separator name="electronic convergence" >
    <i type="int" name="NELM">   100</i>
    <i type="int" name="NELMDL">    -5</i>
    <i type="int" name="NELMIN">     6</i>
    <i name="ENINI">    600.00000000</i>
    <separator name="electronic convergence detail" >
     <i type="logical" name="LDIAG"> T  </i>
     <i type="logical" name="LSUBROT"> F  </i>
     <i name="WEIMIN">      0.00000000</i>
     <i name="EBREAK">      0.00000000</i>
     <i name="DEPER">      0.30000000</i>
     <i type="int" name="NRMM">     4</i>
     <i name="TIME">      0.40000000</i>
    </separator>
   </separator>
   <separator name="electronic mixer" >
    <i name="AMIX">      0.40000000</i>
    <i name="BMIX">      1.00000000</i>
    <i name="AMIN">      0.10000000</i>
    <i name="AMIX_MAG">      1.60000000</i>
    <i name="BMIX_MAG">      1.00000000</i>
    <separator name="electronic mixer details" >
     <i type="int" name="IMIX">     4</i>
     <i type="logical" name="MIXFIRST"> F  </i>
     <i type="int" name="MAXMIX">   -45</i>
     <i name="WC">    100.00000000</i>
     <i type="int" name="INIMIX">     1</i>
     <i type="int" name="MIXPRE">     1</i>
     <i type="int" name="MREMOVE">     5</i>
    </separator>
   </separator>
   <separator name="electronic dipolcorrection" >
    <i type="logical" name="LDIPOL"> F  </i>
    <i type="logical" name="LMONO"> F  </i>
    <i type="int" name="IDIPOL">     0</i>
    <i name="EPSILON">      1.00000000</i>
    <v name="DIPOL">   -100.00000000   -100.00000000   -100.00000000</v>
    <i name="EFIELD">      0.00000000</i>
   </separator>
  </separator>
  <separator name="grids" >
   <i type="int" name="NGX">    54</i>
   <i type="int" name="NGY">    54</i>
   <i type="int" name="NGZ">    54</i>
   <i type="int" name="NGXF">   108</i>
   <i type="int" name="NGYF">   108</i>
   <i type="int" name="NGZF">   108</i>
   <i type="logical" name="ADDGRID"> T  </i>
  </separator>
  <separator name="ionic" >
   <i type="int" name="NSW">     0</i>
   <i type="int" name="IBRION">    -1</i>
   <i type="int" name="MDALGO">     0</i>
   <i type="int" name="ISIF">    -1</i>
   <i name="PSTRESS">      0.00000000</i>
   <i name="EDIFFG">      0.00000001</i>
   <i type="int" name="NFREE">     0</i>
   <i name="POTIM">      0.50000000</i>
   <i name="SMASS">     -3.00000000</i>
   <i name="SCALEE">      1.00000000</i>
  </separator>
  <separator name="ionic md" >
   <i name="TEBEG">      0.00010000</i>
   <i name="TEEND">      0.00010000</i>
   <i type="int" name="NBLOCK">     1</i>
   <i type="int" name="KBLOCK">     1</i>
   <i type="int" name="NPACO">   256</i>
   <i name="APACO">     16.00000000</i>
  </separator>
  <separator name="symmetry" >
   <i type="int" name="ISYM">     2</i>
   <i name="SYMPREC">      0.00001000</i>
  </separator>
  <separator name="dos" >
   <i type="int" name="LORBIT">     0</i>
   <v name="RWIGS">     -1.00000000     -1.00000000     -1.00000000</v>
   <i type="int" name="NEDOS">   301</i>
   <i name="EMIN">     10.00000000</i>
   <i name="EMAX">    -10.00000000</i>
   <i name="EFERMI">      0.00000000</i>
  </separator>
  <separator name="writing" >
   <i type="int" name="NWRITE">     2</i>
   <i type="logical" name="LWAVE"> T  </i>
   <i type="logical" name="LDOWNSAMPLE"> F  </i>
   <i type="logical" name="LCHARG"> T  </i>
   <i type="logical" name="LPARD"> F  </i>
   <i type="logical" name="LVTOT"> F  </i>
   <i type="logical" name="LVHAR"> F  </i>
   <i type="logical" name="LELF"> F  </i>
   <i type="logical" name="LOPTICS"> F  </i>
   <v name="STM">      0.00000000      0.00000000      0.00000000      0.00000000      0.00000000      0.00000000      0.00000000</v>
  </separator>
  <separator name="performance" >
   <i type="int" name="NPAR">     6</i>
   <i type="int" name="NSIM">     4</i>
   <i type="int" name="NBLK">    -1</i>
   <i type="logical" name="LPLANE"> T  </i>
   <i type="logical" name="LSCALAPACK"> T  </i>
   <i type="logical" name="LSCAAWARE"> F  </i>
   <i type="logical" name="LSCALU"> F  </i>
   <i type="logical" name="LASYNC"> F  </i>
   <i type="logical" name="LORBITALREAL"> F  </i>
  </separator>
  <separator name="miscellaneous" >
   <i type="int" name="IDIOT">     3</i>
   <i type="int" name="PHON_NSTRUCT">    -1</i>
   <i type="logical" name="LMUSIC"> F  </i>
   <v name="POMASS">     10.81100000     95.94000000     28.08500000</v>
   <v name="DARWINR">      0.00000000      0.00000000      0.00000000</v>
   <v name="DARWINV">      1.00000000      1.00000000      1.00000000</v>
   <i type="logical" name="LCORR"> T  </i>
  </separator>
  <i type="logical" name="GGA_COMPAT"> T  </i>
  <i type="logical" name="LBERRY"> F  </i>
  <i type="int" name="ICORELEVEL">     0</i>
  <i type="logical" name="LDAU"> F  </i>
  <i type="int" name="I_CONSTRAINED_M">     0</i>
  <separator name="electronic exchange-correlation" >
   <i type="string" name="GGA">--</i>
   <i type="int" name="VOSKOWN">     0</i>
   <i type="logical" name="LHFCALC"> F  </i>
   <i type="string" name="PRECFOCK"></i>
   <i type="logical" name="LSYMGRAD"> F  </i>
   <i type="logical" name="LHFONE"> F  </i>
   <i type="logical" name="LRHFCALC"> F  </i>
   <i type="logical" name="LTHOMAS"> F  </i>
   <i type="logical" name="LMODELHF"> F  </i>
   <i type="logical" name="LFOCKACE"> F  </i>
   <i name="ENCUT4O">     -1.00000000</i>
   <i type="int" name="EXXOEP">     0</i>
   <i type="int" name="FOURORBIT">     0</i>
   <i name="AEXX">      0.00000000</i>
   <i name="HFALPHA">      0.00000000</i>
   <i name="MCALPHA">      0.00000000</i>
   <i name="ALDAX">      1.00000000</i>
   <i name="AGGAX">      1.00000000</i>
   <i name="ALDAC">      1.00000000</i>
   <i name="AGGAC">      1.00000000</i>
   <i type="int" name="NKREDX">     1</i>
   <i type="int" name="NKREDY">     1</i>
   <i type="int" name="NKREDZ">     1</i>
   <i type="logical" name="SHIFTRED"> F  </i>
   <i type="logical" name="ODDONLY"> F  </i>
   <i type="logical" name="EVENONLY"> F  </i>
   <i type="int" name="LMAXFOCK">     0</i>
   <i type="int" name="NMAXFOCKAE">     0</i>
   <i type="logical" name="LFOCKAEDFT"> F  </i>
   <i name="HFSCREEN">      0.00000000</i>
   <i name="HFSCREENC">      0.00000000</i>
   <i type="int" name="NBANDSGWLOW">     0</i>
  </separator>
  <separator name="vdW DFT" >
   <i type="logical" name="LUSE_VDW"> F  </i>
   <i name="Zab_VDW">     -0.84910000</i>
   <i name="PARAM1">      0.12340000</i>
   <i name="PARAM2">      1.00000000</i>
   <i name="PARAM3">      0.00000000</i>
  </separator>
  <separator name="model GW" >
   <i type="int" name="MODEL_GW">     0</i>
   <i name="MODEL_EPS0">      9.26071171</i>
   <i name="MODEL_ALPHA">      1.00000000</i>
  </separator>
  <separator name="linear response parameters" >
   <i type="logical" name="LEPSILON"> F  </i>
   <i type="logical" name="LRPA"> F  </i>
   <i type="logical" name="LNABLA"> F  </i>
   <i type="logical" name="LVEL"> F  </i>
   <i type="int" name="KINTER">     0</i>
   <i name="CSHIFT">      0.10000000</i>
   <i name="OMEGAMAX">     -1.00000000</i>
   <i name="DEG_THRESHOLD">      0.00200000</i>
   <i name="RTIME">     -0.10000000</i>
   <i name="WPLASMAI">      0.00000000</i>
   <v name="DFIELD">      0.00000000      0.00000000      0.00000000</v>
   <v name="WPLASMA">      0.00000000      0.00000000      0.00000000      0.00000000      0.00000000      0.00000000      0.00000000      0.00000000      0.00000000</v>
  </separator>
  <separator name="orbital magnetization" >
   <i type="logical" name="NUCIND"> F  </i>
   <v name="MAGPOS">      0.00000000      0.00000000      0.00000000</v>
   <i type="logical" name="LNICSALL"> T  </i>
   <i type="logical" name="ORBITALMAG"> F  </i>
   <i type="logical" name="LMAGBLOCH"> F  </i>
   <i type="logical" name="LCHIMAG"> F  </i>
   <i type="logical" name="LGAUGE"> T  </i>
   <i type="int" name="MAGATOM">     0</i>
   <v name="MAGDIPOL">      0.00000000      0.00000000      0.00000000</v>
   <v name="AVECCONST">      0.00000000      0.00000000      0.00000000</v>
  </separator>
  <separator name="response functions" >
   <i type="logical" name="LFINITE_TEMPERATURE"> F  </i>
   <i type="logical" name="LADDER"> F  </i>
   <i type="logical" name="LRPAFORCE"> F  </i>
   <i type="logical" name="LFXC"> F  </i>
   <i type="logical" name="LHARTREE"> T  </i>
   <i type="int" name="IBSE">     0</i>
   <v type="int" name="KPOINT">    -1     0     0     0</v>
   <i type="logical" name="LTCTC"> F  </i>
   <i type="logical" name="LTCTE"> F  </i>
   <i type="logical" name="LTETE"> F  </i>
   <i type="logical" name="LTRIPLET"> F  </i>
   <i type="logical" name="LFXCEPS"> F  </i>
   <i type="logical" name="LFXHEG"> F  </i>
   <i type="int" name="NATURALO">     2</i>
   <i type="logical" name="LHOLEGF"> F  </i>
   <i type="logical" name="L2ORDER"> F  </i>
   <i type="logical" name="LDMP1"> F  </i>
   <i type="logical" name="LMP2LT"> F  </i>
   <i type="logical" name="LSMP2LT"> F  </i>
   <i type="logical" name="LGWLF"> F  </i>
   <i name="ENCUTGW">     -2.00000000</i>
   <i name="ENCUTGWSOFT">     -2.00000000</i>
   <i name="ENCUTLF">     -1.00000000</i>
   <i type="logical" name="LESF_SPLINES"> F  </i>
   <i type="int" name="LMAXMP2">    -1</i>
   <i name="SCISSOR">      0.00000000</i>
   <i type="int" name="NOMEGA">     0</i>
   <i type="int" name="NOMEGAR">     0</i>
   <i type="int" name="NBANDSGW">    -1</i>
   <i type="int" name="NBANDSO">    -1</i>
   <i type="int" name="NBANDSV">    -1</i>
   <i type="int" name="NELM">   100</i>
   <i type="int" name="NELMHF">     1</i>
   <i type="int" name="DIM">     3</i>
   <i type="int" name="IESPILON">     4</i>
   <i type="int" name="ANTIRES">     0</i>
   <i name="OMEGAMAX">    -30.00000000</i>
   <i name="OMEGAMIN">    -30.00000000</i>
   <i name="OMEGATL">   -200.00000000</i>
   <i type="int" name="OMEGAGRID">     0</i>
   <i name="CSHIFT">     -0.10000000</i>
   <i type="logical" name="LSELFENERGY"> F  </i>
   <i type="logical" name="LSPECTRAL"> F  </i>
   <i type="logical" name="LSPECTRALGW"> F  </i>
   <i type="logical" name="LSINGLES"> F  </i>
   <i type="logical" name="LFERMIGW"> F  </i>
   <i type="logical" name="ODDONLYGW"> F  </i>
   <i type="logical" name="EVENONLYGW"> F  </i>
   <i type="int" name="NKREDLFX">     1</i>
   <i type="int" name="NKREDLFY">     1</i>
   <i type="int" name="NKREDLFZ">     1</i>
   <i type="int" name="MAXMEM">  2800</i>
   <i type="int" name="TELESCOPE">     0</i>
   <i type="int" name="NTAUPAR">    -1</i>
   <i type="int" name="NOMEGAPAR">    -1</i>
   <i name="DAMP_NEWTON">      0.80000001</i>
   <i name="LAMBDA">      1.00000000</i>
  </separator>
  <separator name="External order field" >
   <i name="OFIELD_KAPPA">      0.00000000</i>
   <v name="OFIELD_K">      0.00000000      0.00000000      0.00000000</v>
   <i name="OFIELD_Q6_NEAR">      0.00000000</i>
   <i name="OFIELD_Q6_FAR">      0.00000000</i>
   <i name="OFIELD_A">      0.00000000</i>
  </separator>
 </parameters>
 <atominfo>
  <atoms>      14 </atoms>
  <types>       3 </types>
  <array name="atoms" >
   <dimension dim="1">ion</dimension>
   <field type="string">element</field>
   <field type="int">atomtype</field>
   <set>
    <rc><c>B </c><c>   1</c></rc>
    <rc><c>B </c><c>   1</c></rc>
    <rc><c>Mo</c><c>   2</c></rc>
    <rc><c>Mo</c><c>   2</c></rc>
    <rc><c>Mo</c><c>   2</c></rc>
    <rc><c>Mo</c><c>   2</c></rc>
    <rc><c>Si</c><c>   3</c></rc>
    <rc><c>Si</c><c>   3</c></rc>
    <rc><c>Si</c><c>   3</c></rc>
    <rc><c>Si</c><c>   3</c></rc>
    <rc><c>Si</c><c>   3</c></rc>
    <rc><c>Si</c><c>   3</c></rc>
    <rc><c>Si</c><c>   3</c></rc>
    <rc><c>Si</c><c>   3</c></rc>
   </set>
  </array>
  <array name="atomtypes" >
   <dimension dim="1">type</dimension>
   <field type="int">atomspertype</field>
   <field type="string">element</field>
   <field>mass</field>
   <field>valence</field>
   <field type="string">pseudopotential</field>
   <set>
    <rc><c>   2</c><c>B </c><c>     10.81100000</c><c>      3.00000000</c><c>  PAW_PBE B 06Sep2000                   </c></rc>
    <rc><c>   4</c><c>Mo</c><c>     95.94000000</c><c>     14.00000000</c><c>  PAW_PBE Mo_sv 02Feb2006               </c></rc>
    <rc><c>   8</c><c>Si</c><c>     28.08500000</c><c>      4.00000000</c><c>  PAW_PBE Si 05Jan2001                  </c></rc>
   </set>
  </array>
 </atominfo>
 <structure name="initialpos" >
  <crystal>
   <varray name="basis" >
    <v>       6.14740561       0.00000000      -2.25668994 </v>
    <v>      -2.99645801       5.36766570      -2.25668994 </v>
    <v>       0.00000000       0.00000000       6.54853000 </v>
   </varray>
   <i name="volume">    216.08327334 </i>
   <varray name="rec_basis" >
    <v>       0.16267025       0.09080941       0.00000000 </v>
    <v>       0.00000000       0.18630072       0.00000000 </v>
    <v>       0.05605782       0.09549497       0.15270603 </v>
   </varray>
  </crystal>
  <varray name="positions" >
   <v>       0.50000000       0.00000000       0.50000000 </v>
   <v>       0.00000000       0.50000000       0.50000000 </v>
   <v>       0.25000000       0.25000000       0.00000000 </v>
   <v>       0.25000000       0.75000000       0.50000000 </v>
   <v>       0.75000000       0.75000000       0.00000000 </v>
   <v>       0.75000000       0.25000000       0.50000000 </v>
   <v>       0.20878000       0.05443000       0.26321000 </v>
   <v>       0.79122000       0.94557000       0.73679000 </v>
   <v>       0.05443000       0.79122000       0.84566000 </v>
   <v>       0.94557000       0.20878000       0.15434000 </v>
   <v>       0.29122000       0.55443000       0.84566000 </v>
   <v>       0.70878000       0.44557000       0.15434000 </v>
   <v>       0.44557000       0.29122000       0.73679000 </v>
   <v>       0.55443000       0.70878000       0.26321000 </v>
  </varray>
 </structure>
 <calculation>
  <scstep>
   <time name="total">   26.96   27.19</time>
   <energy>
    <i name="alphaZ">    278.29050140 </i>
    <i name="ewald">  -6250.58819804 </i>
    <i name="hartreedc">  -2217.12665374 </i>
    <i name="XCdc">    287.28445063 </i>
    <i name="pawpsdc">   6694.22834458 </i>
    <i name="pawaedc">  -6594.52044824 </i>
    <i name="eentropy">     -0.00090147 </i>
    <i name="bandstr">     76.64385733 </i>
    <i name="atom">   8416.00176099 </i>
    <i name="e_fr_energy">    690.21271343 </i>
    <i name="e_wo_entrp">    690.21361490 </i>
    <i name="e_0_energy">    690.21316417 </i>
   </energy>
  </scstep>
  <scstep>
   <time name="total">   32.11   32.87</time>
   <energy>
    <i name="e_fr_energy">   -171.09651740 </i>
    <i name="e_wo_entrp">   -171.09496153 </i>
    <i name="e_0_energy">   -171.09573946 </i>
   </energy>
  </scstep>
  <scstep>
   <time name="total">   35.84   36.46</time>
   <energy>
    <i name="e_fr_energy">   -211.80881926 </i>
    <i name="e_wo_entrp">   -211.80727300 </i>
    <i name="e_0_energy">   -211.80804613 </i>
   </energy>
  </scstep>
  <scstep>
   <time name="total">   32.22   32.95</time>
   <energy>
    <i name="e_fr_energy">   -212.74092905 </i>
    <i name="e_wo_entrp">   -212.73917455 </i>
    <i name="e_0_energy">   -212.74005180 </i>
   </energy>
  </scstep>
  <scstep>
   <time name="total">   36.33   37.03</time>
   <energy>
    <i name="e_fr_energy">   -212.76070210 </i>
    <i name="e_wo_entrp">   -212.75896047 </i>
    <i name="e_0_energy">   -212.75983129 </i>
   </energy>
  </scstep>
  <scstep>
   <time name="total">   35.71   36.13</time>
   <energy>
    <i name="e_fr_energy">   -151.47879179 </i>
    <i name="e_wo_entrp">   -151.47672736 </i>
    <i name="e_0_energy">   -151.47775958 </i>
   </energy>
  </scstep>
  <scstep>
   <time name="total">   41.47   42.20</time>
   <energy>
    <i name="e_fr_energy">   -171.76079255 </i>
    <i name="e_wo_entrp">   -171.75773397 </i>
    <i name="e_0_energy">   -171.75926326 </i>
   </energy>
  </scstep>
  <scstep>
   <time name="total">   39.61   39.99</time>
   <energy>
    <i name="e_fr_energy">   -175.67342528 </i>
    <i name="e_wo_entrp">   -175.67131776 </i>
    <i name="e_0_energy">   -175.67237152 </i>
   </energy>
  </scstep>
  <scstep>
   <time name="total">   41.28   41.78</time>
   <energy>
    <i name="e_fr_energy">   -176.51452054 </i>
    <i name="e_wo_entrp">   -176.51222660 </i>
    <i name="e_0_energy">   -176.51337357 </i>
   </energy>
  </scstep>
  <scstep>
   <time name="total">   42.18   42.67</time>
   <energy>
    <i name="e_fr_energy">   -176.85573433 </i>
    <i name="e_wo_entrp">   -176.85386429 </i>
    <i name="e_0_energy">   -176.85479931 </i>
   </energy>
  </scstep>
  <scstep>
   <time name="total">   41.11   41.65</time>
   <energy>
    <i name="e_fr_energy">   -177.01012010 </i>
    <i name="e_wo_entrp">   -177.00837968 </i>
    <i name="e_0_energy">   -177.00924989 </i>
   </energy>
  </scstep>
  <scstep>
   <time name="total">   39.56   40.23</time>
   <energy>
    <i name="e_fr_energy">   -177.06138532 </i>
    <i name="e_wo_entrp">   -177.05943226 </i>
    <i name="e_0_energy">   -177.06040879 </i>
   </energy>
  </scstep>
  <scstep>
   <time name="total">   41.20   41.54</time>
   <energy>
    <i name="e_fr_energy">   -177.08729768 </i>
    <i name="e_wo_entrp">   -177.08547480 </i>
    <i name="e_0_energy">   -177.08638624 </i>
   </energy>
  </scstep>
  <scstep>
   <time name="total">   43.00   43.74</time>
   <energy>
    <i name="e_fr_energy">   -177.10090520 </i>
    <i name="e_wo_entrp">   -177.09918413 </i>
    <i name="e_0_energy">   -177.10004466 </i>
   </energy>
  </scstep>
  <scstep>
   <time name="total">   42.06   42.43</time>
   <energy>
    <i name="e_fr_energy">   -177.10665482 </i>
    <i name="e_wo_entrp">   -177.10493745 </i>
    <i name="e_0_energy">   -177.10579614 </i>
   </energy>
  </scstep>
  <scstep>
   <time name="total">   42.27   42.65</time>
   <energy>
    <i name="e_fr_energy">   -177.10892819 </i>
    <i name="e_wo_entrp">   -177.10721472 </i>
    <i name="e_0_energy">   -177.10807146 </i>
   </energy>
  </scstep>
  <scstep>
   <time name="total">   43.74   44.12</time>
   <energy>
    <i name="e_fr_energy">   -177.11050478 </i>
    <i name="e_wo_entrp">   -177.10877554 </i>
    <i name="e_0_energy">   -177.10964016 </i>
   </energy>
  </scstep>
  <scstep>
   <time name="total">   39.52   39.90</time>
   <energy>
    <i name="e_fr_energy">   -177.11112588 </i>
    <i name="e_wo_entrp">   -177.10937937 </i>
    <i name="e_0_energy">   -177.11025262 </i>
   </energy>
  </scstep>
  <scstep>
   <time name="total">   39.80   40.29</time>
   <energy>
    <i name="e_fr_energy">   -177.11130813 </i>
    <i name="e_wo_entrp">   -177.10955306 </i>
    <i name="e_0_energy">   -177.11043059 </i>
   </energy>
  </scstep>
  <scstep>
   <time name="total">   39.41   39.78</time>
   <energy>
    <i name="e_fr_energy">   -177.11141125 </i>
    <i name="e_wo_entrp">   -177.10964118 </i>
    <i name="e_0_energy">   -177.11052621 </i>
   </energy>
  </scstep>
  <scstep>
   <time name="total">   41.57   42.09</time>
   <energy>
    <i name="e_fr_energy">   -177.11146303 </i>
    <i name="e_wo_entrp">   -177.10968284 </i>
    <i name="e_0_energy">   -177.11057293 </i>
   </energy>
  </scstep>
  <scstep>
   <time name="total">   40.53   41.20</time>
   <energy>
    <i name="e_fr_energy">   -177.11148182 </i>
    <i name="e_wo_entrp">   -177.10969872 </i>
    <i name="e_0_energy">   -177.11059027 </i>
   </energy>
  </scstep>
  <scstep>
   <time name="total">   42.64   43.02</time>
   <energy>
    <i name="e_fr_energy">   -177.11148735 </i>
    <i name="e_wo_entrp">   -177.10970142 </i>
    <i name="e_0_energy">   -177.11059439 </i>
   </energy>
  </scstep>
  <scstep>
   <time name="total">   39.31   40.12</time>
   <energy>
    <i name="e_fr_energy">   -177.11149010 </i>
    <i name="e_wo_entrp">   -177.10970232 </i>
    <i name="e_0_energy">   -177.11059621 </i>
   </energy>
  </scstep>
  <scstep>
   <time name="total">   40.18   40.84</time>
   <energy>
    <i name="e_fr_energy">   -177.11149182 </i>
    <i name="e_wo_entrp">   -177.10970173 </i>
    <i name="e_0_energy">   -177.11059677 </i>
   </energy>
  </scstep>
  <scstep>
   <time name="total">   40.70   41.30</time>
   <energy>
    <i name="e_fr_energy">   -177.11149208 </i>
    <i name="e_wo_entrp">   -177.10970265 </i>
    <i name="e_0_energy">   -177.11059736 </i>
   </energy>
  </scstep>
  <scstep>
   <time name="total">   40.43   40.79</time>
   <energy>
    <i name="e_fr_energy">   -177.11149265 </i>
    <i name="e_wo_entrp">   -177.10970344 </i>
    <i name="e_0_energy">   -177.11059805 </i>
   </energy>
  </scstep>
  <scstep>
   <time name="total">   37.85   38.19</time>
   <energy>
    <i name="e_fr_energy">   -177.11149284 </i>
    <i name="e_wo_entrp">   -177.10970368 </i>
    <i name="e_0_energy">   -177.11059826 </i>
   </energy>
  </scstep>
  <scstep>
   <time name="total">   39.67   40.09</time>
   <energy>
    <i name="e_fr_energy">   -177.11149287 </i>
    <i name="e_wo_entrp">   -177.10970387 </i>
    <i name="e_0_energy">   -177.11059837 </i>
   </energy>
  </scstep>
  <scstep>
   <time name="total">   37.78   38.55</time>
   <energy>
    <i name="e_fr_energy">   -177.11149289 </i>
    <i name="e_wo_entrp">   -177.10970399 </i>
    <i name="e_0_energy">   -177.11059844 </i>
   </energy>
  </scstep>
  <scstep>
   <time name="total">   39.77   40.39</time>
   <energy>
    <i name="e_fr_energy">   -177.11149290 </i>
    <i name="e_wo_entrp">   -177.10970403 </i>
    <i name="e_0_energy">   -177.11059846 </i>
   </energy>
  </scstep>
  <scstep>
   <time name="total">   38.90   39.27</time>
   <energy>
    <i name="e_fr_energy">   -177.11149290 </i>
    <i name="e_wo_entrp">   -177.10970408 </i>
    <i name="e_0_energy">   -177.11059849 </i>
   </energy>
  </scstep>
  <scstep>
   <time name="total">   40.84   41.35</time>
   <energy>
    <i name="e_fr_energy">   -177.11149290 </i>
    <i name="e_wo_entrp">   -177.10970411 </i>
    <i name="e_0_energy">   -177.11059850 </i>
   </energy>
  </scstep>
  <scstep>
   <time name="total">   40.44   41.07</time>
   <energy>
    <i name="e_fr_energy">   -177.11149290 </i>
    <i name="e_wo_entrp">   -177.10970415 </i>
    <i name="e_0_energy">   -177.11059852 </i>
   </energy>
  </scstep>
  <scstep>
   <time name="total">   39.94   40.43</time>
   <energy>
    <i name="e_fr_energy">   -177.11149290 </i>
    <i name="e_wo_entrp">   -177.10970418 </i>
    <i name="e_0_energy">   -177.11059854 </i>
   </energy>
  </scstep>
  <scstep>
   <time name="total">   39.37   39.72</time>
   <energy>
    <i name="e_fr_energy">   -177.11149289 </i>
    <i name="e_wo_entrp">   -177.10970420 </i>
    <i name="e_0_energy">   -177.11059855 </i>
   </energy>
  </scstep>
  <scstep>
   <time name="total">   45.65   46.22</time>
   <energy>
    <i name="alphaZ">    278.29050140 </i>
    <i name="ewald">  -6250.58819804 </i>
    <i name="hartreedc">  -2153.28955996 </i>
    <i name="XCdc">    297.32140061 </i>
    <i name="pawpsdc">  14160.09534312 </i>
    <i name="pawaedc"> -14071.23060928 </i>
    <i name="eentropy">     -0.00178867 </i>
    <i name="bandstr">   -853.71034305 </i>
    <i name="atom">   8416.00176099 </i>
    <i name="e_fr_energy">   -177.11149289 </i>
    <i name="e_wo_entrp">   -177.10970422 </i>
    <i name="e_0_energy">   -177.11059856 </i>
   </energy>
  </scstep>
  <structure>
   <crystal>
    <varray name="basis" >
     <v>       6.14740561       0.00000000      -2.25668994 </v>
     <v>      -2.99645801       5.36766570      -2.25668994 </v>
     <v>       0.00000000       0.00000000       6.54853000 </v>
    </varray>
    <i name="volume">    216.08327334 </i>
    <varray name="rec_basis" >
     <v>       0.16267025       0.09080941       0.00000000 </v>
     <v>       0.00000000       0.18630072       0.00000000 </v>
     <v>       0.05605782       0.09549497       0.15270603 </v>
    </varray>
   </crystal>
   <varray name="positions" >
    <v>       0.50000000       0.00000000       0.50000000 </v>
    <v>       0.00000000       0.50000000       0.50000000 </v>
    <v>       0.25000000       0.25000000       0.00000000 </v>
    <v>       0.25000000       0.75000000       0.50000000 </v>
    <v>       0.75000000       0.75000000       0.00000000 </v>
    <v>       0.75000000       0.25000000       0.50000000 </v>
    <v>       0.20878000       0.05443000       0.26321000 </v>
    <v>       0.79122000       0.94557000       0.73679000 </v>
    <v>       0.05443000       0.79122000       0.84566000 </v>
    <v>       0.94557000       0.20878000       0.15434000 </v>
    <v>       0.29122000       0.55443000       0.84566000 </v>
    <v>       0.70878000       0.44557000       0.15434000 </v>
    <v>       0.44557000       0.29122000       0.73679000 </v>
    <v>       0.55443000       0.70878000       0.26321000 </v>
   </varray>
  </structure>
  <varray name="forces" >
   <v>       0.00000000       0.00000000       0.00000000 </v>
   <v>       0.00000000       0.00000000       0.00000000 </v>
   <v>       0.00000000       0.00000000       0.00000000 </v>
   <v>       0.00000000       0.00000000       0.00000000 </v>
   <v>       0.00000000       0.00000000       0.00000000 </v>
   <v>       0.00000000       0.00000000       0.00000000 </v>
   <v>       0.00000000       0.00000000       0.00000000 </v>
   <v>       0.00000000       0.00000000       0.00000000 </v>
   <v>       0.00000000       0.00000000       0.00000000 </v>
   <v>       0.00000000       0.00000000       0.00000000 </v>
   <v>       0.00000000       0.00000000       0.00000000 </v>
   <v>       0.00000000       0.00000000       0.00000000 </v>
   <v>       0.00000000       0.00000000       0.00000000 </v>
   <v>       0.00000000       0.00000000       0.00000000 </v>
  </varray>
  <varray name="stress" >
   <v>       0.00000000       0.00000000       0.00000000 </v>
   <v>       0.00000000       0.00000000       0.00000000 </v>
   <v>       0.00000000       0.00000000       0.00000000 </v>
  </varray>
  <energy>
   <i name="e_fr_energy">   -177.11149289 </i>
   <i name="e_wo_entrp">   -177.10970422 </i>
   <i name="e_0_energy">   -177.11059856 </i>
  </energy>
  <time name="totalsc"> 1465.24 1485.12</time>
  <eigenvalues>
   <array>
    <dimension dim="1">band</dimension>
    <dimension dim="2">kpoint</dimension>
    <dimension dim="3">spin</dimension>
    <field>eigene</field>
    <field>occ</field>
    <set>
     <set comment="spin 1">
      <set comment="kpoint 1">
       <r>  -54.1902    1.0000 </r>
       <r>  -54.1889    1.0000 </r>
       <r>  -53.7957    1.0000 </r>
       <r>  -53.7933    1.0000 </r>
       <r>  -28.0046    1.0000 </r>
       <r>  -27.9979    1.0000 </r>
       <r>  -27.5332    1.0000 </r>
       <r>  -27.5332    1.0000 </r>
       <r>  -27.5264    1.0000 </r>
       <r>  -27.5264    1.0000 </r>
       <r>  -27.4654    1.0000 </r>
       <r>  -27.3949    1.0000 </r>
       <r>  -27.2227    1.0000 </r>
       <r>  -27.2227    1.0000 </r>
       <r>  -27.2156    1.0000 </r>
       <r>  -27.2156    1.0000 </r>
       <r>   -5.0310    1.0000 </r>
       <r>   -1.9913    1.0000 </r>
       <r>   -1.8217    1.0000 </r>
       <r>   -1.8216    1.0000 </r>
       <r>   -1.4440    1.0000 </r>
       <r>   -1.2291    1.0000 </r>
       <r>    0.4902    1.0000 </r>
       <r>    0.4903    1.0000 </r>
       <r>    2.2771    1.0000 </r>
       <r>    3.2410    1.0000 </r>
       <r>    3.4610    1.0000 </r>
       <r>    3.4612    1.0000 </r>
       <r>    3.7543    1.0000 </r>
       <r>    3.7866    1.0000 </r>
       <r>    4.0242    1.0000 </r>
       <r>    5.1403    1.0000 </r>
       <r>    5.1403    1.0000 </r>
       <r>    5.2091    1.0000 </r>
       <r>    5.2093    1.0000 </r>
       <r>    5.4024    1.0000 </r>
       <r>    5.7383    1.0000 </r>
       <r>    5.7384    1.0000 </r>
       <r>    6.3122    1.0000 </r>
       <r>    7.6804    1.0000 </r>
       <r>    7.6804    1.0000 </r>
       <r>    7.7188    1.0000 </r>
       <r>    7.8837    1.0000 </r>
       <r>    7.9721    1.0000 </r>
       <r>    8.4501    1.0000 </r>
       <r>    8.4503    1.0000 </r>
       <r>    8.5446    1.0000 </r>
       <r>    8.6487    1.0000 </r>
       <r>    8.9117    0.0000 </r>
       <r>    8.9677    0.0000 </r>
       <r>    9.2288    0.0000 </r>
       <r>    9.4702    0.0000 </r>
       <r>    9.5878    0.0000 </r>
       <r>    9.9849    0.0000 </r>
       <r>   10.1357    0.0000 </r>
       <r>   10.1982    0.0000 </r>
       <r>   11.0543    0.0000 </r>
       <r>   11.6453    0.0000 </r>
       <r>   12.1399    0.0000 </r>
       <r>   12.3265    0.0000 </r>
      </set>
      <set comment="kpoint 2">
       <r>  -54.1901    1.0000 </r>
       <r>  -54.1890    1.0000 </r>
       <r>  -53.7956    1.0000 </r>
       <r>  -53.7935    1.0000 </r>
       <r>  -28.0042    1.0000 </r>
       <r>  -27.9982    1.0000 </r>
       <r>  -27.5329    1.0000 </r>
       <r>  -27.5326    1.0000 </r>
       <r>  -27.5267    1.0000 </r>
       <r>  -27.5264    1.0000 </r>
       <r>  -27.4620    1.0000 </r>
       <r>  -27.3985    1.0000 </r>
       <r>  -27.2227    1.0000 </r>
       <r>  -27.2224    1.0000 </r>
       <r>  -27.2162    1.0000 </r>
       <r>  -27.2159    1.0000 </r>
       <r>   -4.9293    1.0000 </r>
       <r>   -2.3935    1.0000 </r>
       <r>   -1.8563    1.0000 </r>
       <r>   -1.6606    1.0000 </r>
       <r>   -1.4489    1.0000 </r>
       <r>   -1.1789    1.0000 </r>
       <r>    0.3962    1.0000 </r>
       <r>    0.6779    1.0000 </r>
       <r>    2.4596    1.0000 </r>
       <r>    3.0095    1.0000 </r>
       <r>    3.2961    1.0000 </r>
       <r>    3.5582    1.0000 </r>
       <r>    3.9024    1.0000 </r>
       <r>    3.9326    1.0000 </r>
       <r>    3.9961    1.0000 </r>
       <r>    4.9781    1.0000 </r>
       <r>    5.2258    1.0000 </r>
       <r>    5.2431    1.0000 </r>
       <r>    5.2773    1.0000 </r>
       <r>    5.3683    1.0000 </r>
       <r>    5.8371    1.0000 </r>
       <r>    5.8538    1.0000 </r>
       <r>    6.0134    1.0000 </r>
       <r>    7.1879    1.0000 </r>
       <r>    7.3970    1.0000 </r>
       <r>    7.7489    1.0000 </r>
       <r>    7.7578    1.0000 </r>
       <r>    8.1470    1.0000 </r>
       <r>    8.4777    1.0000 </r>
       <r>    8.6114    1.0000 </r>
       <r>    8.6843    1.0000 </r>
       <r>    8.8855    0.0000 </r>
       <r>    9.0758    0.0000 </r>
       <r>    9.3591    0.0000 </r>
       <r>    9.4286    0.0000 </r>
       <r>    9.4493    0.0000 </r>
       <r>    9.7566    0.0000 </r>
       <r>    9.7889    0.0000 </r>
       <r>    9.9957    0.0000 </r>
       <r>   10.3015    0.0000 </r>
       <r>   10.9988    0.0000 </r>
       <r>   11.4248    0.0000 </r>
       <r>   12.0742    0.0000 </r>
       <r>   12.1921    0.0000 </r>
      </set>
      <set comment="kpoint 3">
       <r>  -54.1899    1.0000 </r>
       <r>  -54.1892    1.0000 </r>
       <r>  -53.7953    1.0000 </r>
       <r>  -53.7938    1.0000 </r>
       <r>  -28.0033    1.0000 </r>
       <r>  -27.9992    1.0000 </r>
       <r>  -27.5320    1.0000 </r>
       <r>  -27.5310    1.0000 </r>
       <r>  -27.5277    1.0000 </r>
       <r>  -27.5267    1.0000 </r>
       <r>  -27.4523    1.0000 </r>
       <r>  -27.4083    1.0000 </r>
       <r>  -27.2225    1.0000 </r>
       <r>  -27.2214    1.0000 </r>
       <r>  -27.2179    1.0000 </r>
       <r>  -27.2169    1.0000 </r>
       <r>   -4.6334    1.0000 </r>
       <r>   -2.9731    1.0000 </r>
       <r>   -1.9606    1.0000 </r>
       <r>   -1.8026    1.0000 </r>
       <r>   -1.3632    1.0000 </r>
       <r>   -0.9643    1.0000 </r>
       <r>    0.3062    1.0000 </r>
       <r>    1.1252    1.0000 </r>
       <r>    2.2187    1.0000 </r>
       <r>    2.9158    1.0000 </r>
       <r>    2.9913    1.0000 </r>
       <r>    3.9392    1.0000 </r>
       <r>    4.0087    1.0000 </r>
       <r>    4.1662    1.0000 </r>
       <r>    4.3092    1.0000 </r>
       <r>    4.7928    1.0000 </r>
       <r>    5.0533    1.0000 </r>
       <r>    5.1717    1.0000 </r>
       <r>    5.2858    1.0000 </r>
       <r>    5.4861    1.0000 </r>
       <r>    5.6750    1.0000 </r>
       <r>    5.9330    1.0000 </r>
       <r>    6.1640    1.0000 </r>
       <r>    6.5646    1.0000 </r>
       <r>    7.0273    1.0000 </r>
       <r>    7.8052    1.0000 </r>
       <r>    7.9941    1.0000 </r>
       <r>    8.2989    1.0000 </r>
       <r>    8.4532    1.0000 </r>
       <r>    8.6723    1.0000 </r>
       <r>    8.7131    1.0000 </r>
       <r>    8.7774    0.4000 </r>
       <r>    9.1292    0.0000 </r>
       <r>    9.2622    0.0000 </r>
       <r>    9.5060    0.0000 </r>
       <r>    9.8089    0.0000 </r>
       <r>    9.9918    0.0000 </r>
       <r>   10.4133    0.0000 </r>
       <r>   10.4422    0.0000 </r>
       <r>   10.6685    0.0000 </r>
       <r>   10.6901    0.0000 </r>
       <r>   11.1790    0.0000 </r>
       <r>   11.8110    0.0000 </r>
       <r>   11.9691    0.0000 </r>
      </set>
      <set comment="kpoint 4">
       <r>  -54.1897    1.0000 </r>
       <r>  -54.1894    1.0000 </r>
       <r>  -53.7948    1.0000 </r>
       <r>  -53.7943    1.0000 </r>
       <r>  -28.0020    1.0000 </r>
       <r>  -28.0005    1.0000 </r>
       <r>  -27.5306    1.0000 </r>
       <r>  -27.5294    1.0000 </r>
       <r>  -27.5287    1.0000 </r>
       <r>  -27.5275    1.0000 </r>
       <r>  -27.4382    1.0000 </r>
       <r>  -27.4225    1.0000 </r>
       <r>  -27.2216    1.0000 </r>
       <r>  -27.2200    1.0000 </r>
       <r>  -27.2200    1.0000 </r>
       <r>  -27.2184    1.0000 </r>
       <r>   -4.1718    1.0000 </r>
       <r>   -3.5943    1.0000 </r>
       <r>   -2.0281    1.0000 </r>
       <r>   -1.9735    1.0000 </r>
       <r>   -1.1726    1.0000 </r>
       <r>   -0.9715    1.0000 </r>
       <r>    0.6146    1.0000 </r>
       <r>    1.2610    1.0000 </r>
       <r>    1.8239    1.0000 </r>
       <r>    2.3869    1.0000 </r>
       <r>    3.6947    1.0000 </r>
       <r>    4.0859    1.0000 </r>
       <r>    4.1248    1.0000 </r>
       <r>    4.2931    1.0000 </r>
       <r>    4.3116    1.0000 </r>
       <r>    4.5154    1.0000 </r>
       <r>    4.9116    1.0000 </r>
       <r>    5.0116    1.0000 </r>
       <r>    5.5186    1.0000 </r>
       <r>    5.6569    1.0000 </r>
       <r>    5.7280    1.0000 </r>
       <r>    6.0221    1.0000 </r>
       <r>    6.0727    1.0000 </r>
       <r>    6.3428    1.0000 </r>
       <r>    7.1233    1.0000 </r>
       <r>    7.7130    1.0000 </r>
       <r>    8.0604    1.0000 </r>
       <r>    8.1136    1.0000 </r>
       <r>    8.2240    1.0000 </r>
       <r>    8.3454    1.0000 </r>
       <r>    8.7871    0.1744 </r>
       <r>    8.8609    0.0000 </r>
       <r>    9.3450    0.0000 </r>
       <r>    9.5249    0.0000 </r>
       <r>    9.7678    0.0000 </r>
       <r>    9.8589    0.0000 </r>
       <r>   10.0552    0.0000 </r>
       <r>   10.4195    0.0000 </r>
       <r>   10.5537    0.0000 </r>
       <r>   10.7166    0.0000 </r>
       <r>   11.0930    0.0000 </r>
       <r>   11.1368    0.0000 </r>
       <r>   11.7159    0.0000 </r>
       <r>   11.9352    0.0000 </r>
      </set>
      <set comment="kpoint 5">
       <r>  -54.1899    1.0000 </r>
       <r>  -54.1892    1.0000 </r>
       <r>  -53.7953    1.0000 </r>
       <r>  -53.7938    1.0000 </r>
       <r>  -28.0033    1.0000 </r>
       <r>  -27.9992    1.0000 </r>
       <r>  -27.5316    1.0000 </r>
       <r>  -27.5316    1.0000 </r>
       <r>  -27.5275    1.0000 </r>
       <r>  -27.5274    1.0000 </r>
       <r>  -27.4522    1.0000 </r>
       <r>  -27.4083    1.0000 </r>
       <r>  -27.2218    1.0000 </r>
       <r>  -27.2217    1.0000 </r>
       <r>  -27.2173    1.0000 </r>
       <r>  -27.2172    1.0000 </r>
       <r>   -4.7293    1.0000 </r>
       <r>   -2.6671    1.0000 </r>
       <r>   -2.1716    1.0000 </r>
       <r>   -1.6908    1.0000 </r>
       <r>   -1.3304    1.0000 </r>
       <r>   -1.0368    1.0000 </r>
       <r>    0.4470    1.0000 </r>
       <r>    0.5694    1.0000 </r>
       <r>    2.6819    1.0000 </r>
       <r>    2.9508    1.0000 </r>
       <r>    2.9958    1.0000 </r>
       <r>    3.8390    1.0000 </r>
       <r>    3.9877    1.0000 </r>
       <r>    4.2446    1.0000 </r>
       <r>    4.3430    1.0000 </r>
       <r>    4.7047    1.0000 </r>
       <r>    5.0951    1.0000 </r>
       <r>    5.1896    1.0000 </r>
       <r>    5.4252    1.0000 </r>
       <r>    5.4368    1.0000 </r>
       <r>    5.5215    1.0000 </r>
       <r>    5.9571    1.0000 </r>
       <r>    5.9625    1.0000 </r>
       <r>    6.6616    1.0000 </r>
       <r>    7.0803    1.0000 </r>
       <r>    7.8777    1.0000 </r>
       <r>    7.9673    1.0000 </r>
       <r>    8.2547    1.0000 </r>
       <r>    8.6001    1.0000 </r>
       <r>    8.6986    1.0000 </r>
       <r>    8.7140    1.0000 </r>
       <r>    8.8810    0.0000 </r>
       <r>    8.9388    0.0000 </r>
       <r>    9.3500    0.0000 </r>
       <r>    9.6121    0.0000 </r>
       <r>    9.8864    0.0000 </r>
       <r>   10.0741    0.0000 </r>
       <r>   10.0995    0.0000 </r>
       <r>   10.2780    0.0000 </r>
       <r>   10.4338    0.0000 </r>
       <r>   10.8401    0.0000 </r>
       <r>   11.0045    0.0000 </r>
       <r>   11.8396    0.0000 </r>
       <r>   12.0139    0.0000 </r>
      </set>
      <set comment="kpoint 6">
       <r>  -54.1897    1.0000 </r>
       <r>  -54.1894    1.0000 </r>
       <r>  -53.7948    1.0000 </r>
       <r>  -53.7943    1.0000 </r>
       <r>  -28.0020    1.0000 </r>
       <r>  -28.0005    1.0000 </r>
       <r>  -27.5302    1.0000 </r>
       <r>  -27.5296    1.0000 </r>
       <r>  -27.5288    1.0000 </r>
       <r>  -27.5282    1.0000 </r>
       <r>  -27.4382    1.0000 </r>
       <r>  -27.4225    1.0000 </r>
       <r>  -27.2211    1.0000 </r>
       <r>  -27.2203    1.0000 </r>
       <r>  -27.2194    1.0000 </r>
       <r>  -27.2187    1.0000 </r>
       <r>   -4.3556    1.0000 </r>
       <r>   -3.2158    1.0000 </r>
       <r>   -2.4137    1.0000 </r>
       <r>   -1.9050    1.0000 </r>
       <r>   -1.0551    1.0000 </r>
       <r>   -0.7443    1.0000 </r>
       <r>    0.3213    1.0000 </r>
       <r>    0.9616    1.0000 </r>
       <r>    2.2013    1.0000 </r>
       <r>    2.7420    1.0000 </r>
       <r>    3.2684    1.0000 </r>
       <r>    3.7841    1.0000 </r>
       <r>    3.9489    1.0000 </r>
       <r>    4.2645    1.0000 </r>
       <r>    4.4727    1.0000 </r>
       <r>    4.8459    1.0000 </r>
       <r>    5.1161    1.0000 </r>
       <r>    5.2486    1.0000 </r>
       <r>    5.3809    1.0000 </r>
       <r>    5.5798    1.0000 </r>
       <r>    5.6534    1.0000 </r>
       <r>    6.0857    1.0000 </r>
       <r>    6.1828    1.0000 </r>
       <r>    6.1989    1.0000 </r>
       <r>    7.0330    1.0000 </r>
       <r>    7.7591    1.0000 </r>
       <r>    7.9850    1.0000 </r>
       <r>    8.2058    1.0000 </r>
       <r>    8.2381    1.0000 </r>
       <r>    8.3197    1.0000 </r>
       <r>    8.8308    0.0000 </r>
       <r>    9.0276    0.0000 </r>
       <r>    9.3171    0.0000 </r>
       <r>    9.4169    0.0000 </r>
       <r>    9.5472    0.0000 </r>
       <r>   10.0002    0.0000 </r>
       <r>   10.2829    0.0000 </r>
       <r>   10.4581    0.0000 </r>
       <r>   10.5441    0.0000 </r>
       <r>   10.6446    0.0000 </r>
       <r>   10.9424    0.0000 </r>
       <r>   11.0261    0.0000 </r>
       <r>   11.4288    0.0000 </r>
       <r>   11.5083    0.0000 </r>
      </set>
      <set comment="kpoint 7">
       <r>  -54.1897    1.0000 </r>
       <r>  -54.1894    1.0000 </r>
       <r>  -53.7948    1.0000 </r>
       <r>  -53.7943    1.0000 </r>
       <r>  -28.0020    1.0000 </r>
       <r>  -28.0005    1.0000 </r>
       <r>  -27.5305    1.0000 </r>
       <r>  -27.5294    1.0000 </r>
       <r>  -27.5285    1.0000 </r>
       <r>  -27.5274    1.0000 </r>
       <r>  -27.4382    1.0000 </r>
       <r>  -27.4225    1.0000 </r>
       <r>  -27.2216    1.0000 </r>
       <r>  -27.2203    1.0000 </r>
       <r>  -27.2200    1.0000 </r>
       <r>  -27.2187    1.0000 </r>
       <r>   -3.8542    1.0000 </r>
       <r>   -3.8251    1.0000 </r>
       <r>   -2.5039    1.0000 </r>
       <r>   -2.0158    1.0000 </r>
       <r>   -0.8554    1.0000 </r>
       <r>   -0.6593    1.0000 </r>
       <r>    0.6215    1.0000 </r>
       <r>    1.2632    1.0000 </r>
       <r>    1.7033    1.0000 </r>
       <r>    2.2855    1.0000 </r>
       <r>    3.6561    1.0000 </r>
       <r>    3.8329    1.0000 </r>
       <r>    3.9164    1.0000 </r>
       <r>    4.0510    1.0000 </r>
       <r>    4.4286    1.0000 </r>
       <r>    4.6325    1.0000 </r>
       <r>    5.1145    1.0000 </r>
       <r>    5.3660    1.0000 </r>
       <r>    5.5376    1.0000 </r>
       <r>    5.6056    1.0000 </r>
       <r>    5.8314    1.0000 </r>
       <r>    5.9409    1.0000 </r>
       <r>    6.2101    1.0000 </r>
       <r>    6.4769    1.0000 </r>
       <r>    7.3315    1.0000 </r>
       <r>    7.4685    1.0000 </r>
       <r>    7.7721    1.0000 </r>
       <r>    7.9269    1.0000 </r>
       <r>    8.1944    1.0000 </r>
       <r>    8.5949    1.0000 </r>
       <r>    8.8313    0.0000 </r>
       <r>    9.0132    0.0000 </r>
       <r>    9.3064    0.0000 </r>
       <r>    9.4752    0.0000 </r>
       <r>    9.5899    0.0000 </r>
       <r>    9.6961    0.0000 </r>
       <r>   10.0759    0.0000 </r>
       <r>   10.1638    0.0000 </r>
       <r>   10.5512    0.0000 </r>
       <r>   10.8264    0.0000 </r>
       <r>   10.9383    0.0000 </r>
       <r>   11.4422    0.0000 </r>
       <r>   11.9767    0.0000 </r>
       <r>   12.2205    0.0000 </r>
      </set>
      <set comment="kpoint 8">
       <r>  -54.1899    1.0000 </r>
       <r>  -54.1892    1.0000 </r>
       <r>  -53.7953    1.0000 </r>
       <r>  -53.7938    1.0000 </r>
       <r>  -28.0034    1.0000 </r>
       <r>  -27.9991    1.0000 </r>
       <r>  -27.5318    1.0000 </r>
       <r>  -27.5306    1.0000 </r>
       <r>  -27.5272    1.0000 </r>
       <r>  -27.5260    1.0000 </r>
       <r>  -27.4523    1.0000 </r>
       <r>  -27.4083    1.0000 </r>
       <r>  -27.2230    1.0000 </r>
       <r>  -27.2217    1.0000 </r>
       <r>  -27.2186    1.0000 </r>
       <r>  -27.2173    1.0000 </r>
       <r>   -4.3539    1.0000 </r>
       <r>   -3.2970    1.0000 </r>
       <r>   -2.4461    1.0000 </r>
       <r>   -2.0252    1.0000 </r>
       <r>   -0.8589    1.0000 </r>
       <r>   -0.6378    1.0000 </r>
       <r>    0.7363    1.0000 </r>
       <r>    1.3012    1.0000 </r>
       <r>    1.7457    1.0000 </r>
       <r>    2.2503    1.0000 </r>
       <r>    3.5114    1.0000 </r>
       <r>    3.6720    1.0000 </r>
       <r>    3.7233    1.0000 </r>
       <r>    3.9026    1.0000 </r>
       <r>    4.6271    1.0000 </r>
       <r>    4.7463    1.0000 </r>
       <r>    4.9905    1.0000 </r>
       <r>    5.3506    1.0000 </r>
       <r>    5.4339    1.0000 </r>
       <r>    5.5134    1.0000 </r>
       <r>    5.7997    1.0000 </r>
       <r>    5.9567    1.0000 </r>
       <r>    6.2716    1.0000 </r>
       <r>    6.7446    1.0000 </r>
       <r>    7.2332    1.0000 </r>
       <r>    7.6906    1.0000 </r>
       <r>    7.8044    1.0000 </r>
       <r>    8.1721    1.0000 </r>
       <r>    8.2600    1.0000 </r>
       <r>    8.5866    1.0000 </r>
       <r>    8.6859    1.0000 </r>
       <r>    8.8487    0.0000 </r>
       <r>    8.9999    0.0000 </r>
       <r>    9.0844    0.0000 </r>
       <r>    9.5830    0.0000 </r>
       <r>    9.7535    0.0000 </r>
       <r>    9.9782    0.0000 </r>
       <r>   10.1960    0.0000 </r>
       <r>   10.5924    0.0000 </r>
       <r>   10.9854    0.0000 </r>
       <r>   11.0274    0.0000 </r>
       <r>   11.5761    0.0000 </r>
       <r>   11.8015    0.0000 </r>
       <r>   12.1356    0.0000 </r>
      </set>
      <set comment="kpoint 9">
       <r>  -54.1901    1.0000 </r>
       <r>  -54.1890    1.0000 </r>
       <r>  -53.7956    1.0000 </r>
       <r>  -53.7935    1.0000 </r>
       <r>  -28.0043    1.0000 </r>
       <r>  -27.9982    1.0000 </r>
       <r>  -27.5327    1.0000 </r>
       <r>  -27.5320    1.0000 </r>
       <r>  -27.5263    1.0000 </r>
       <r>  -27.5257    1.0000 </r>
       <r>  -27.4620    1.0000 </r>
       <r>  -27.3985    1.0000 </r>
       <r>  -27.2235    1.0000 </r>
       <r>  -27.2227    1.0000 </r>
       <r>  -27.2170    1.0000 </r>
       <r>  -27.2163    1.0000 </r>
       <r>   -4.7352    1.0000 </r>
       <r>   -2.7758    1.0000 </r>
       <r>   -2.2680    1.0000 </r>
       <r>   -1.9659    1.0000 </r>
       <r>   -0.9936    1.0000 </r>
       <r>   -0.7057    1.0000 </r>
       <r>    0.5291    1.0000 </r>
       <r>    1.0914    1.0000 </r>
       <r>    2.2195    1.0000 </r>
       <r>    2.7307    1.0000 </r>
       <r>    3.1250    1.0000 </r>
       <r>    3.3966    1.0000 </r>
       <r>    3.6834    1.0000 </r>
       <r>    3.7618    1.0000 </r>
       <r>    3.9983    1.0000 </r>
       <r>    5.0712    1.0000 </r>
       <r>    5.1642    1.0000 </r>
       <r>    5.4036    1.0000 </r>
       <r>    5.4525    1.0000 </r>
       <r>    5.5795    1.0000 </r>
       <r>    5.9456    1.0000 </r>
       <r>    6.0567    1.0000 </r>
       <r>    6.1372    1.0000 </r>
       <r>    6.7376    1.0000 </r>
       <r>    7.4666    1.0000 </r>
       <r>    7.6705    1.0000 </r>
       <r>    7.8375    1.0000 </r>
       <r>    8.0048    1.0000 </r>
       <r>    8.1944    1.0000 </r>
       <r>    8.4604    1.0000 </r>
       <r>    8.5578    1.0000 </r>
       <r>    8.8820    0.0000 </r>
       <r>    9.1458    0.0000 </r>
       <r>    9.3542    0.0000 </r>
       <r>    9.4411    0.0000 </r>
       <r>    9.6857    0.0000 </r>
       <r>    9.9562    0.0000 </r>
       <r>    9.9858    0.0000 </r>
       <r>   10.2641    0.0000 </r>
       <r>   10.5521    0.0000 </r>
       <r>   10.6741    0.0000 </r>
       <r>   11.7598    0.0000 </r>
       <r>   12.1572    0.0000 </r>
       <r>   12.4628    0.0000 </r>
      </set>
      <set comment="kpoint 10">
       <r>  -54.1902    1.0000 </r>
       <r>  -54.1889    1.0000 </r>
       <r>  -53.7957    1.0000 </r>
       <r>  -53.7933    1.0000 </r>
       <r>  -28.0046    1.0000 </r>
       <r>  -27.9979    1.0000 </r>
       <r>  -27.5330    1.0000 </r>
       <r>  -27.5330    1.0000 </r>
       <r>  -27.5260    1.0000 </r>
       <r>  -27.5260    1.0000 </r>
       <r>  -27.4654    1.0000 </r>
       <r>  -27.3950    1.0000 </r>
       <r>  -27.2231    1.0000 </r>
       <r>  -27.2230    1.0000 </r>
       <r>  -27.2159    1.0000 </r>
       <r>  -27.2159    1.0000 </r>
       <r>   -4.9323    1.0000 </r>
       <r>   -2.4116    1.0000 </r>
       <r>   -2.0871    1.0000 </r>
       <r>   -1.7639    1.0000 </r>
       <r>   -1.2543    1.0000 </r>
       <r>   -0.9311    1.0000 </r>
       <r>    0.5684    1.0000 </r>
       <r>    0.6896    1.0000 </r>
       <r>    2.6787    1.0000 </r>
       <r>    2.9423    1.0000 </r>
       <r>    3.0099    1.0000 </r>
       <r>    3.2142    1.0000 </r>
       <r>    3.6867    1.0000 </r>
       <r>    3.8403    1.0000 </r>
       <r>    3.8730    1.0000 </r>
       <r>    5.1590    1.0000 </r>
       <r>    5.3094    1.0000 </r>
       <r>    5.3137    1.0000 </r>
       <r>    5.3195    1.0000 </r>
       <r>    5.5830    1.0000 </r>
       <r>    5.8063    1.0000 </r>
       <r>    5.8388    1.0000 </r>
       <r>    6.2916    1.0000 </r>
       <r>    7.2029    1.0000 </r>
       <r>    7.5389    1.0000 </r>
       <r>    7.7553    1.0000 </r>
       <r>    7.8530    1.0000 </r>
       <r>    7.9017    1.0000 </r>
       <r>    8.0460    1.0000 </r>
       <r>    8.5345    1.0000 </r>
       <r>    8.5539    1.0000 </r>
       <r>    8.9700    0.0000 </r>
       <r>    9.2309    0.0000 </r>
       <r>    9.2673    0.0000 </r>
       <r>    9.2945    0.0000 </r>
       <r>    9.4190    0.0000 </r>
       <r>    9.6408    0.0000 </r>
       <r>    9.9022    0.0000 </r>
       <r>   10.0572    0.0000 </r>
       <r>   10.3466    0.0000 </r>
       <r>   10.9044    0.0000 </r>
       <r>   11.7973    0.0000 </r>
       <r>   12.1161    0.0000 </r>
       <r>   12.4246    0.0000 </r>
      </set>
      <set comment="kpoint 11">
       <r>  -54.1897    1.0000 </r>
       <r>  -54.1894    1.0000 </r>
       <r>  -53.7948    1.0000 </r>
       <r>  -53.7943    1.0000 </r>
       <r>  -28.0020    1.0000 </r>
       <r>  -28.0005    1.0000 </r>
       <r>  -27.5300    1.0000 </r>
       <r>  -27.5298    1.0000 </r>
       <r>  -27.5279    1.0000 </r>
       <r>  -27.5277    1.0000 </r>
       <r>  -27.4382    1.0000 </r>
       <r>  -27.4225    1.0000 </r>
       <r>  -27.2211    1.0000 </r>
       <r>  -27.2208    1.0000 </r>
       <r>  -27.2196    1.0000 </r>
       <r>  -27.2193    1.0000 </r>
       <r>   -3.9433    1.0000 </r>
       <r>   -3.5076    1.0000 </r>
       <r>   -2.9287    1.0000 </r>
       <r>   -2.0701    1.0000 </r>
       <r>   -0.6322    1.0000 </r>
       <r>   -0.3205    1.0000 </r>
       <r>    0.4868    1.0000 </r>
       <r>    0.9408    1.0000 </r>
       <r>    2.0422    1.0000 </r>
       <r>    2.2400    1.0000 </r>
       <r>    3.4104    1.0000 </r>
       <r>    3.5226    1.0000 </r>
       <r>    3.8154    1.0000 </r>
       <r>    3.8588    1.0000 </r>
       <r>    4.7615    1.0000 </r>
       <r>    4.8488    1.0000 </r>
       <r>    5.1706    1.0000 </r>
       <r>    5.5062    1.0000 </r>
       <r>    5.5083    1.0000 </r>
       <r>    5.7158    1.0000 </r>
       <r>    5.8853    1.0000 </r>
       <r>    5.9196    1.0000 </r>
       <r>    6.3862    1.0000 </r>
       <r>    6.5035    1.0000 </r>
       <r>    7.2928    1.0000 </r>
       <r>    7.4267    1.0000 </r>
       <r>    7.5094    1.0000 </r>
       <r>    7.8591    1.0000 </r>
       <r>    8.1644    1.0000 </r>
       <r>    8.7486    0.9629 </r>
       <r>    9.0044    0.0000 </r>
       <r>    9.1227    0.0000 </r>
       <r>    9.1505    0.0000 </r>
       <r>    9.4145    0.0000 </r>
       <r>    9.5111    0.0000 </r>
       <r>    9.5802    0.0000 </r>
       <r>    9.9414    0.0000 </r>
       <r>   10.1939    0.0000 </r>
       <r>   10.5415    0.0000 </r>
       <r>   10.5441    0.0000 </r>
       <r>   11.1575    0.0000 </r>
       <r>   11.6891    0.0000 </r>
       <r>   11.7160    0.0000 </r>
       <r>   12.3431    0.0000 </r>
      </set>
      <set comment="kpoint 12">
       <r>  -54.1899    1.0000 </r>
       <r>  -54.1892    1.0000 </r>
       <r>  -53.7953    1.0000 </r>
       <r>  -53.7938    1.0000 </r>
       <r>  -28.0034    1.0000 </r>
       <r>  -27.9991    1.0000 </r>
       <r>  -27.5313    1.0000 </r>
       <r>  -27.5307    1.0000 </r>
       <r>  -27.5264    1.0000 </r>
       <r>  -27.5259    1.0000 </r>
       <r>  -27.4523    1.0000 </r>
       <r>  -27.4083    1.0000 </r>
       <r>  -27.2231    1.0000 </r>
       <r>  -27.2224    1.0000 </r>
       <r>  -27.2186    1.0000 </r>
       <r>  -27.2180    1.0000 </r>
       <r>   -3.9466    1.0000 </r>
       <r>   -3.4672    1.0000 </r>
       <r>   -3.0789    1.0000 </r>
       <r>   -2.1963    1.0000 </r>
       <r>   -0.3473    1.0000 </r>
       <r>   -0.0366    1.0000 </r>
       <r>    0.7116    1.0000 </r>
       <r>    1.3073    1.0000 </r>
       <r>    1.5324    1.0000 </r>
       <r>    1.9881    1.0000 </r>
       <r>    3.0888    1.0000 </r>
       <r>    3.2340    1.0000 </r>
       <r>    3.5067    1.0000 </r>
       <r>    4.3008    1.0000 </r>
       <r>    4.6530    1.0000 </r>
       <r>    4.9568    1.0000 </r>
       <r>    5.0594    1.0000 </r>
       <r>    5.3688    1.0000 </r>
       <r>    5.5190    1.0000 </r>
       <r>    5.7028    1.0000 </r>
       <r>    5.9791    1.0000 </r>
       <r>    6.0633    1.0000 </r>
       <r>    6.4653    1.0000 </r>
       <r>    6.8525    1.0000 </r>
       <r>    7.2730    1.0000 </r>
       <r>    7.4376    1.0000 </r>
       <r>    7.7502    1.0000 </r>
       <r>    7.9080    1.0000 </r>
       <r>    8.2328    1.0000 </r>
       <r>    8.5713    1.0000 </r>
       <r>    8.6972    1.0000 </r>
       <r>    8.8417    0.0000 </r>
       <r>    8.9642    0.0000 </r>
       <r>    9.0489    0.0000 </r>
       <r>    9.3613    0.0000 </r>
       <r>    9.7691    0.0000 </r>
       <r>    9.8494    0.0000 </r>
       <r>    9.9725    0.0000 </r>
       <r>   10.6953    0.0000 </r>
       <r>   11.0058    0.0000 </r>
       <r>   11.4451    0.0000 </r>
       <r>   11.8031    0.0000 </r>
       <r>   12.0560    0.0000 </r>
       <r>   12.2955    0.0000 </r>
      </set>
      <set comment="kpoint 13">
       <r>  -54.1901    1.0000 </r>
       <r>  -54.1890    1.0000 </r>
       <r>  -53.7956    1.0000 </r>
       <r>  -53.7935    1.0000 </r>
       <r>  -28.0043    1.0000 </r>
       <r>  -27.9982    1.0000 </r>
       <r>  -27.5323    1.0000 </r>
       <r>  -27.5316    1.0000 </r>
       <r>  -27.5255    1.0000 </r>
       <r>  -27.5249    1.0000 </r>
       <r>  -27.4620    1.0000 </r>
       <r>  -27.3985    1.0000 </r>
       <r>  -27.2241    1.0000 </r>
       <r>  -27.2234    1.0000 </r>
       <r>  -27.2176    1.0000 </r>
       <r>  -27.2170    1.0000 </r>
       <r>   -4.3684    1.0000 </r>
       <r>   -3.0278    1.0000 </r>
       <r>   -2.9453    1.0000 </r>
       <r>   -2.2581    1.0000 </r>
       <r>   -0.2690    1.0000 </r>
       <r>   -0.1147    1.0000 </r>
       <r>    0.9140    1.0000 </r>
       <r>    1.3351    1.0000 </r>
       <r>    1.5963    1.0000 </r>
       <r>    2.0076    1.0000 </r>
       <r>    3.0261    1.0000 </r>
       <r>    3.1660    1.0000 </r>
       <r>    3.3177    1.0000 </r>
       <r>    3.7271    1.0000 </r>
       <r>    4.5063    1.0000 </r>
       <r>    5.0544    1.0000 </r>
       <r>    5.1159    1.0000 </r>
       <r>    5.4856    1.0000 </r>
       <r>    5.5955    1.0000 </r>
       <r>    5.7787    1.0000 </r>
       <r>    6.0587    1.0000 </r>
       <r>    6.1668    1.0000 </r>
       <r>    6.4310    1.0000 </r>
       <r>    6.8231    1.0000 </r>
       <r>    7.3497    1.0000 </r>
       <r>    7.5929    1.0000 </r>
       <r>    7.7984    1.0000 </r>
       <r>    7.8972    1.0000 </r>
       <r>    7.9275    1.0000 </r>
       <r>    8.3093    1.0000 </r>
       <r>    8.4339    1.0000 </r>
       <r>    8.6976    1.0000 </r>
       <r>    8.8849    0.0000 </r>
       <r>    9.3345    0.0000 </r>
       <r>    9.5483    0.0000 </r>
       <r>    9.9236    0.0000 </r>
       <r>   10.0203    0.0000 </r>
       <r>   10.1466    0.0000 </r>
       <r>   10.2444    0.0000 </r>
       <r>   10.7451    0.0000 </r>
       <r>   11.2757    0.0000 </r>
       <r>   12.1316    0.0000 </r>
       <r>   12.2987    0.0000 </r>
       <r>   12.5278    0.0000 </r>
      </set>
      <set comment="kpoint 14">
       <r>  -54.1902    1.0000 </r>
       <r>  -54.1889    1.0000 </r>
       <r>  -53.7957    1.0000 </r>
       <r>  -53.7934    1.0000 </r>
       <r>  -28.0046    1.0000 </r>
       <r>  -27.9978    1.0000 </r>
       <r>  -27.5326    1.0000 </r>
       <r>  -27.5324    1.0000 </r>
       <r>  -27.5253    1.0000 </r>
       <r>  -27.5251    1.0000 </r>
       <r>  -27.4655    1.0000 </r>
       <r>  -27.3950    1.0000 </r>
       <r>  -27.2239    1.0000 </r>
       <r>  -27.2236    1.0000 </r>
       <r>  -27.2167    1.0000 </r>
       <r>  -27.2165    1.0000 </r>
       <r>   -4.6444    1.0000 </r>
       <r>   -2.7465    1.0000 </r>
       <r>   -2.6515    1.0000 </r>
       <r>   -2.2217    1.0000 </r>
       <r>   -0.4915    1.0000 </r>
       <r>   -0.3652    1.0000 </r>
       <r>    0.7806    1.0000 </r>
       <r>    1.0872    1.0000 </r>
       <r>    2.1997    1.0000 </r>
       <r>    2.2187    1.0000 </r>
       <r>    3.1546    1.0000 </r>
       <r>    3.2147    1.0000 </r>
       <r>    3.3754    1.0000 </r>
       <r>    3.5013    1.0000 </r>
       <r>    3.9773    1.0000 </r>
       <r>    5.0606    1.0000 </r>
       <r>    5.1921    1.0000 </r>
       <r>    5.5062    1.0000 </r>
       <r>    5.7697    1.0000 </r>
       <r>    5.8827    1.0000 </r>
       <r>    6.0150    1.0000 </r>
       <r>    6.0789    1.0000 </r>
       <r>    6.3796    1.0000 </r>
       <r>    6.8131    1.0000 </r>
       <r>    7.2337    1.0000 </r>
       <r>    7.6361    1.0000 </r>
       <r>    7.6834    1.0000 </r>
       <r>    7.9995    1.0000 </r>
       <r>    8.0638    1.0000 </r>
       <r>    8.1094    1.0000 </r>
       <r>    8.6783    1.0000 </r>
       <r>    8.7612    0.8147 </r>
       <r>    9.0053    0.0000 </r>
       <r>    9.4238    0.0000 </r>
       <r>    9.4804    0.0000 </r>
       <r>    9.7292    0.0000 </r>
       <r>    9.8950    0.0000 </r>
       <r>   10.0896    0.0000 </r>
       <r>   10.3464    0.0000 </r>
       <r>   10.4595    0.0000 </r>
       <r>   10.8952    0.0000 </r>
       <r>   12.2036    0.0000 </r>
       <r>   12.2611    0.0000 </r>
       <r>   12.5608    0.0000 </r>
      </set>
      <set comment="kpoint 15">
       <r>  -54.1901    1.0000 </r>
       <r>  -54.1890    1.0000 </r>
       <r>  -53.7956    1.0000 </r>
       <r>  -53.7935    1.0000 </r>
       <r>  -28.0043    1.0000 </r>
       <r>  -27.9982    1.0000 </r>
       <r>  -27.5319    1.0000 </r>
       <r>  -27.5315    1.0000 </r>
       <r>  -27.5250    1.0000 </r>
       <r>  -27.5247    1.0000 </r>
       <r>  -27.4621    1.0000 </r>
       <r>  -27.3985    1.0000 </r>
       <r>  -27.2243    1.0000 </r>
       <r>  -27.2238    1.0000 </r>
       <r>  -27.2178    1.0000 </r>
       <r>  -27.2174    1.0000 </r>
       <r>   -4.0290    1.0000 </r>
       <r>   -3.4265    1.0000 </r>
       <r>   -3.1060    1.0000 </r>
       <r>   -2.3421    1.0000 </r>
       <r>    0.0910    1.0000 </r>
       <r>    0.5616    1.0000 </r>
       <r>    0.7059    1.0000 </r>
       <r>    1.3162    1.0000 </r>
       <r>    1.3434    1.0000 </r>
       <r>    1.9424    1.0000 </r>
       <r>    2.6477    1.0000 </r>
       <r>    2.8664    1.0000 </r>
       <r>    3.2316    1.0000 </r>
       <r>    3.7101    1.0000 </r>
       <r>    4.9898    1.0000 </r>
       <r>    5.0611    1.0000 </r>
       <r>    5.2843    1.0000 </r>
       <r>    5.4940    1.0000 </r>
       <r>    5.5556    1.0000 </r>
       <r>    5.8503    1.0000 </r>
       <r>    6.1889    1.0000 </r>
       <r>    6.2636    1.0000 </r>
       <r>    6.5306    1.0000 </r>
       <r>    6.7550    1.0000 </r>
       <r>    7.1883    1.0000 </r>
       <r>    7.3975    1.0000 </r>
       <r>    7.6873    1.0000 </r>
       <r>    7.9508    1.0000 </r>
       <r>    8.0728    1.0000 </r>
       <r>    8.2155    1.0000 </r>
       <r>    8.3130    1.0000 </r>
       <r>    8.4255    1.0000 </r>
       <r>    9.0848    0.0000 </r>
       <r>    9.3537    0.0000 </r>
       <r>    9.4293    0.0000 </r>
       <r>    9.8600    0.0000 </r>
       <r>    9.8910    0.0000 </r>
       <r>   10.2091    0.0000 </r>
       <r>   10.5705    0.0000 </r>
       <r>   10.7763    0.0000 </r>
       <r>   11.8610    0.0000 </r>
       <r>   12.0914    0.0000 </r>
       <r>   12.5418    0.0000 </r>
       <r>   12.5738    0.0000 </r>
      </set>
      <set comment="kpoint 16">
       <r>  -54.1902    1.0000 </r>
       <r>  -54.1889    1.0000 </r>
       <r>  -53.7957    1.0000 </r>
       <r>  -53.7934    1.0000 </r>
       <r>  -28.0046    1.0000 </r>
       <r>  -27.9978    1.0000 </r>
       <r>  -27.5322    1.0000 </r>
       <r>  -27.5319    1.0000 </r>
       <r>  -27.5247    1.0000 </r>
       <r>  -27.5244    1.0000 </r>
       <r>  -27.4655    1.0000 </r>
       <r>  -27.3950    1.0000 </r>
       <r>  -27.2246    1.0000 </r>
       <r>  -27.2241    1.0000 </r>
       <r>  -27.2174    1.0000 </r>
       <r>  -27.2171    1.0000 </r>
       <r>   -4.2238    1.0000 </r>
       <r>   -3.3310    1.0000 </r>
       <r>   -2.9161    1.0000 </r>
       <r>   -2.3909    1.0000 </r>
       <r>    0.1777    1.0000 </r>
       <r>    0.3312    1.0000 </r>
       <r>    0.9609    1.0000 </r>
       <r>    1.2812    1.0000 </r>
       <r>    1.4288    1.0000 </r>
       <r>    1.9538    1.0000 </r>
       <r>    2.6550    1.0000 </r>
       <r>    2.8972    1.0000 </r>
       <r>    3.1075    1.0000 </r>
       <r>    3.3770    1.0000 </r>
       <r>    4.9979    1.0000 </r>
       <r>    5.0235    1.0000 </r>
       <r>    5.1213    1.0000 </r>
       <r>    5.6367    1.0000 </r>
       <r>    5.8488    1.0000 </r>
       <r>    5.9444    1.0000 </r>
       <r>    6.0574    1.0000 </r>
       <r>    6.3145    1.0000 </r>
       <r>    6.5297    1.0000 </r>
       <r>    6.8816    1.0000 </r>
       <r>    7.2419    1.0000 </r>
       <r>    7.3966    1.0000 </r>
       <r>    7.5654    1.0000 </r>
       <r>    7.5773    1.0000 </r>
       <r>    8.0695    1.0000 </r>
       <r>    8.0826    1.0000 </r>
       <r>    8.1510    1.0000 </r>
       <r>    8.4925    1.0000 </r>
       <r>    9.1658    0.0000 </r>
       <r>    9.6558    0.0000 </r>
       <r>    9.8004    0.0000 </r>
       <r>    9.8492    0.0000 </r>
       <r>    9.8992    0.0000 </r>
       <r>    9.9645    0.0000 </r>
       <r>   10.3596    0.0000 </r>
       <r>   10.7921    0.0000 </r>
       <r>   11.7874    0.0000 </r>
       <r>   12.1847    0.0000 </r>
       <r>   12.5177    0.0000 </r>
       <r>   13.0927    0.0000 </r>
      </set>
      <set comment="kpoint 17">
       <r>  -54.1902    1.0000 </r>
       <r>  -54.1889    1.0000 </r>
       <r>  -53.7957    1.0000 </r>
       <r>  -53.7933    1.0000 </r>
       <r>  -28.0046    1.0000 </r>
       <r>  -27.9979    1.0000 </r>
       <r>  -27.5330    1.0000 </r>
       <r>  -27.5330    1.0000 </r>
       <r>  -27.5260    1.0000 </r>
       <r>  -27.5260    1.0000 </r>
       <r>  -27.4654    1.0000 </r>
       <r>  -27.3950    1.0000 </r>
       <r>  -27.2231    1.0000 </r>
       <r>  -27.2230    1.0000 </r>
       <r>  -27.2160    1.0000 </r>
       <r>  -27.2159    1.0000 </r>
       <r>   -4.9323    1.0000 </r>
       <r>   -2.4115    1.0000 </r>
       <r>   -2.0870    1.0000 </r>
       <r>   -1.7641    1.0000 </r>
       <r>   -1.2542    1.0000 </r>
       <r>   -0.9310    1.0000 </r>
       <r>    0.5684    1.0000 </r>
       <r>    0.6896    1.0000 </r>
       <r>    2.6787    1.0000 </r>
       <r>    2.9424    1.0000 </r>
       <r>    3.0098    1.0000 </r>
       <r>    3.2142    1.0000 </r>
       <r>    3.6867    1.0000 </r>
       <r>    3.8404    1.0000 </r>
       <r>    3.8729    1.0000 </r>
       <r>    5.1591    1.0000 </r>
       <r>    5.3095    1.0000 </r>
       <r>    5.3135    1.0000 </r>
       <r>    5.3196    1.0000 </r>
       <r>    5.5830    1.0000 </r>
       <r>    5.8065    1.0000 </r>
       <r>    5.8388    1.0000 </r>
       <r>    6.2915    1.0000 </r>
       <r>    7.2030    1.0000 </r>
       <r>    7.5389    1.0000 </r>
       <r>    7.7553    1.0000 </r>
       <r>    7.8530    1.0000 </r>
       <r>    7.9017    1.0000 </r>
       <r>    8.0458    1.0000 </r>
       <r>    8.5345    1.0000 </r>
       <r>    8.5539    1.0000 </r>
       <r>    8.9699    0.0000 </r>
       <r>    9.2308    0.0000 </r>
       <r>    9.2673    0.0000 </r>
       <r>    9.2945    0.0000 </r>
       <r>    9.4193    0.0000 </r>
       <r>    9.6408    0.0000 </r>
       <r>    9.9022    0.0000 </r>
       <r>   10.0573    0.0000 </r>
       <r>   10.3466    0.0000 </r>
       <r>   10.9044    0.0000 </r>
       <r>   11.8033    0.0000 </r>
       <r>   12.1164    0.0000 </r>
       <r>   12.7533    0.0000 </r>
      </set>
      <set comment="kpoint 18">
       <r>  -54.1901    1.0000 </r>
       <r>  -54.1890    1.0000 </r>
       <r>  -53.7956    1.0000 </r>
       <r>  -53.7935    1.0000 </r>
       <r>  -28.0043    1.0000 </r>
       <r>  -27.9982    1.0000 </r>
       <r>  -27.5327    1.0000 </r>
       <r>  -27.5320    1.0000 </r>
       <r>  -27.5263    1.0000 </r>
       <r>  -27.5256    1.0000 </r>
       <r>  -27.4620    1.0000 </r>
[...]
       <r>    5.3809    1.0000 </r>
       <r>    5.5797    1.0000 </r>
       <r>    5.6534    1.0000 </r>
       <r>    6.0857    1.0000 </r>
       <r>    6.1828    1.0000 </r>
       <r>    6.1989    1.0000 </r>
       <r>    7.0330    1.0000 </r>
       <r>    7.7591    1.0000 </r>
       <r>    7.9850    1.0000 </r>
       <r>    8.2058    1.0000 </r>
       <r>    8.2382    1.0000 </r>
       <r>    8.3197    1.0000 </r>
       <r>    8.8308    0.0000 </r>
       <r>    9.0276    0.0000 </r>
       <r>    9.3171    0.0000 </r>
       <r>    9.4170    0.0000 </r>
       <r>    9.5472    0.0000 </r>
       <r>   10.0001    0.0000 </r>
       <r>   10.2829    0.0000 </r>
       <r>   10.4580    0.0000 </r>
       <r>   10.5440    0.0000 </r>
       <r>   10.6445    0.0000 </r>
       <r>   10.9418    0.0000 </r>
       <r>   11.0265    0.0000 </r>
       <r>   11.4357    0.0000 </r>
       <r>   11.5105    0.0000 </r>
      </set>
      <set comment="kpoint 100">
       <r>  -54.1899    1.0000 </r>
       <r>  -54.1892    1.0000 </r>
       <r>  -53.7953    1.0000 </r>
       <r>  -53.7938    1.0000 </r>
       <r>  -28.0033    1.0000 </r>
       <r>  -27.9991    1.0000 </r>
       <r>  -27.5312    1.0000 </r>
       <r>  -27.5310    1.0000 </r>
       <r>  -27.5267    1.0000 </r>
       <r>  -27.5265    1.0000 </r>
       <r>  -27.4523    1.0000 </r>
       <r>  -27.4083    1.0000 </r>
       <r>  -27.2226    1.0000 </r>
       <r>  -27.2223    1.0000 </r>
       <r>  -27.2181    1.0000 </r>
       <r>  -27.2178    1.0000 </r>
       <r>   -4.4462    1.0000 </r>
       <r>   -2.9936    1.0000 </r>
       <r>   -2.5295    1.0000 </r>
       <r>   -2.3866    1.0000 </r>
       <r>   -0.5577    1.0000 </r>
       <r>   -0.3975    1.0000 </r>
       <r>    0.6802    1.0000 </r>
       <r>    0.9564    1.0000 </r>
       <r>    2.1483    1.0000 </r>
       <r>    2.1836    1.0000 </r>
       <r>    3.2597    1.0000 </r>
       <r>    3.4052    1.0000 </r>
       <r>    3.6278    1.0000 </r>
       <r>    4.0289    1.0000 </r>
       <r>    4.3959    1.0000 </r>
       <r>    4.8230    1.0000 </r>
       <r>    5.0822    1.0000 </r>
       <r>    5.4742    1.0000 </r>
       <r>    5.5803    1.0000 </r>
       <r>    5.6549    1.0000 </r>
       <r>    5.9204    1.0000 </r>
       <r>    6.1449    1.0000 </r>
       <r>    6.1834    1.0000 </r>
       <r>    6.2799    1.0000 </r>
       <r>    7.4311    1.0000 </r>
       <r>    7.6917    1.0000 </r>
       <r>    7.8574    1.0000 </r>
       <r>    7.8899    1.0000 </r>
       <r>    8.5312    1.0000 </r>
       <r>    8.5436    1.0000 </r>
       <r>    8.6401    1.0000 </r>
       <r>    8.7895    0.1344 </r>
       <r>    8.8967    0.0000 </r>
       <r>    9.0360    0.0000 </r>
       <r>    9.7578    0.0000 </r>
       <r>    9.9923    0.0000 </r>
       <r>   10.0845    0.0000 </r>
       <r>   10.2321    0.0000 </r>
       <r>   10.2613    0.0000 </r>
       <r>   10.8527    0.0000 </r>
       <r>   10.9186    0.0000 </r>
       <r>   11.4468    0.0000 </r>
       <r>   11.8786    0.0000 </r>
       <r>   11.9075    0.0000 </r>
      </set>
     </set>
    </set>
   </array>
  </eigenvalues>
  <separator name="orbital magnetization" >
   <v name="MAGDIPOLOUT">      0.00000000      0.00000000      0.00000000</v>
  </separator>
  <dos>
   <i name="efermi">      8.77386408 </i>
   <total>
    <array>
     <dimension dim="1">gridpoints</dimension>
     <dimension dim="2">spin</dimension>
     <field>energy</field>
     <field>total</field>
     <field>integrated</field>
     <set>
      <set comment="spin 1">
       <r>   -57.5561     0.0000     0.0000 </r>
       <r>   -57.3093     0.0000     0.0000 </r>
       <r>   -57.0625     0.0000     0.0000 </r>
       <r>   -56.8156     0.0000     0.0000 </r>
       <r>   -56.5688     0.0000     0.0000 </r>
       <r>   -56.3220     0.0000     0.0000 </r>
       <r>   -56.0751     0.0000     0.0000 </r>
       <r>   -55.8283     0.0000     0.0000 </r>
       <r>   -55.5814     0.0000     0.0000 </r>
       <r>   -55.3346     0.0000     0.0000 </r>
       <r>   -55.0878     0.0000     0.0000 </r>
       <r>   -54.8409     0.0000     0.0000 </r>
       <r>   -54.5941     0.0000     0.0000 </r>
       <r>   -54.3473     0.0000     0.0000 </r>
       <r>   -54.1004    16.2050     4.0000 </r>
       <r>   -53.8536     0.0003     4.0001 </r>
       <r>   -53.6067     0.0000     8.0000 </r>
       <r>   -53.3599     0.0000     8.0000 </r>
       <r>   -53.1131     0.0000     8.0000 </r>
       <r>   -52.8662     0.0000     8.0000 </r>
       <r>   -52.6194     0.0000     8.0000 </r>
       <r>   -52.3725     0.0000     8.0000 </r>
       <r>   -52.1257     0.0000     8.0000 </r>
       <r>   -51.8789     0.0000     8.0000 </r>
       <r>   -51.6320     0.0000     8.0000 </r>
       <r>   -51.3852     0.0000     8.0000 </r>
       <r>   -51.1384     0.0000     8.0000 </r>
       <r>   -50.8915     0.0000     8.0000 </r>
       <r>   -50.6447     0.0000     8.0000 </r>
       <r>   -50.3978     0.0000     8.0000 </r>
       <r>   -50.1510     0.0000     8.0000 </r>
       <r>   -49.9042     0.0000     8.0000 </r>
       <r>   -49.6573     0.0000     8.0000 </r>
       <r>   -49.4105     0.0000     8.0000 </r>
       <r>   -49.1637     0.0000     8.0000 </r>
       <r>   -48.9168     0.0000     8.0000 </r>
       <r>   -48.6700     0.0000     8.0000 </r>
       <r>   -48.4231     0.0000     8.0000 </r>
       <r>   -48.1763     0.0000     8.0000 </r>
       <r>   -47.9295     0.0000     8.0000 </r>
       <r>   -47.6826     0.0000     8.0000 </r>
       <r>   -47.4358     0.0000     8.0000 </r>
       <r>   -47.1889     0.0000     8.0000 </r>
       <r>   -46.9421     0.0000     8.0000 </r>
       <r>   -46.6953     0.0000     8.0000 </r>
       <r>   -46.4484     0.0000     8.0000 </r>
       <r>   -46.2016     0.0000     8.0000 </r>
       <r>   -45.9548     0.0000     8.0000 </r>
       <r>   -45.7079     0.0000     8.0000 </r>
       <r>   -45.4611     0.0000     8.0000 </r>
       <r>   -45.2142     0.0000     8.0000 </r>
       <r>   -44.9674     0.0000     8.0000 </r>
       <r>   -44.7206     0.0000     8.0000 </r>
       <r>   -44.4737     0.0000     8.0000 </r>
       <r>   -44.2269     0.0000     8.0000 </r>
       <r>   -43.9801     0.0000     8.0000 </r>
       <r>   -43.7332     0.0000     8.0000 </r>
       <r>   -43.4864     0.0000     8.0000 </r>
       <r>   -43.2395     0.0000     8.0000 </r>
       <r>   -42.9927     0.0000     8.0000 </r>
       <r>   -42.7459     0.0000     8.0000 </r>
       <r>   -42.4990     0.0000     8.0000 </r>
       <r>   -42.2522     0.0000     8.0000 </r>
       <r>   -42.0054     0.0000     8.0000 </r>
       <r>   -41.7585     0.0000     8.0000 </r>
       <r>   -41.5117     0.0000     8.0000 </r>
       <r>   -41.2648     0.0000     8.0000 </r>
       <r>   -41.0180     0.0000     8.0000 </r>
       <r>   -40.7712     0.0000     8.0000 </r>
       <r>   -40.5243     0.0000     8.0000 </r>
       <r>   -40.2775     0.0000     8.0000 </r>
       <r>   -40.0306     0.0000     8.0000 </r>
       <r>   -39.7838     0.0000     8.0000 </r>
       <r>   -39.5370     0.0000     8.0000 </r>
       <r>   -39.2901     0.0000     8.0000 </r>
       <r>   -39.0433     0.0000     8.0000 </r>
       <r>   -38.7965     0.0000     8.0000 </r>
       <r>   -38.5496     0.0000     8.0000 </r>
       <r>   -38.3028     0.0000     8.0000 </r>
       <r>   -38.0559     0.0000     8.0000 </r>
       <r>   -37.8091     0.0000     8.0000 </r>
       <r>   -37.5623     0.0000     8.0000 </r>
       <r>   -37.3154     0.0000     8.0000 </r>
       <r>   -37.0686     0.0000     8.0000 </r>
       <r>   -36.8218     0.0000     8.0000 </r>
       <r>   -36.5749     0.0000     8.0000 </r>
       <r>   -36.3281     0.0000     8.0000 </r>
       <r>   -36.0812     0.0000     8.0000 </r>
       <r>   -35.8344     0.0000     8.0000 </r>
       <r>   -35.5876     0.0000     8.0000 </r>
       <r>   -35.3407     0.0000     8.0000 </r>
       <r>   -35.0939     0.0000     8.0000 </r>
       <r>   -34.8470     0.0000     8.0000 </r>
       <r>   -34.6002     0.0000     8.0000 </r>
       <r>   -34.3534     0.0000     8.0000 </r>
       <r>   -34.1065     0.0000     8.0000 </r>
       <r>   -33.8597     0.0000     8.0000 </r>
       <r>   -33.6129     0.0000     8.0000 </r>
       <r>   -33.3660     0.0000     8.0000 </r>
       <r>   -33.1192     0.0000     8.0000 </r>
       <r>   -32.8723     0.0000     8.0000 </r>
       <r>   -32.6255     0.0000     8.0000 </r>
       <r>   -32.3787     0.0000     8.0000 </r>
       <r>   -32.1318     0.0000     8.0000 </r>
       <r>   -31.8850     0.0000     8.0000 </r>
       <r>   -31.6382     0.0000     8.0000 </r>
       <r>   -31.3913     0.0000     8.0000 </r>
       <r>   -31.1445     0.0000     8.0000 </r>
       <r>   -30.8976     0.0000     8.0000 </r>
       <r>   -30.6508     0.0000     8.0000 </r>
       <r>   -30.4040     0.0000     8.0000 </r>
       <r>   -30.1571     0.0000     8.0000 </r>
       <r>   -29.9103     0.0000     8.0000 </r>
       <r>   -29.6635     0.0000     8.0000 </r>
       <r>   -29.4166     0.0000     8.0000 </r>
       <r>   -29.1698     0.0000     8.0000 </r>
       <r>   -28.9229     0.0000     8.0000 </r>
       <r>   -28.6761     0.0000     8.0000 </r>
       <r>   -28.4293     0.0000     8.0000 </r>
       <r>   -28.1824     0.0000     8.0000 </r>
       <r>   -27.9356    16.2049    12.0000 </r>
       <r>   -27.6887     0.0000    12.0000 </r>
       <r>   -27.4419    38.5657    21.5195 </r>
       <r>   -27.1951    31.0718    31.6697 </r>
       <r>   -26.9482     0.0000    32.0000 </r>
       <r>   -26.7014     0.0000    32.0000 </r>
       <r>   -26.4546     0.0000    32.0000 </r>
       <r>   -26.2077     0.0000    32.0000 </r>
       <r>   -25.9609     0.0000    32.0000 </r>
       <r>   -25.7140     0.0000    32.0000 </r>
       <r>   -25.4672     0.0000    32.0000 </r>
       <r>   -25.2204     0.0000    32.0000 </r>
       <r>   -24.9735     0.0000    32.0000 </r>
       <r>   -24.7267     0.0000    32.0000 </r>
       <r>   -24.4799     0.0000    32.0000 </r>
       <r>   -24.2330     0.0000    32.0000 </r>
       <r>   -23.9862     0.0000    32.0000 </r>
       <r>   -23.7393     0.0000    32.0000 </r>
       <r>   -23.4925     0.0000    32.0000 </r>
       <r>   -23.2457     0.0000    32.0000 </r>
       <r>   -22.9988     0.0000    32.0000 </r>
       <r>   -22.7520     0.0000    32.0000 </r>
       <r>   -22.5052     0.0000    32.0000 </r>
       <r>   -22.2583     0.0000    32.0000 </r>
       <r>   -22.0115     0.0000    32.0000 </r>
       <r>   -21.7646     0.0000    32.0000 </r>
       <r>   -21.5178     0.0000    32.0000 </r>
       <r>   -21.2710     0.0000    32.0000 </r>
       <r>   -21.0241     0.0000    32.0000 </r>
       <r>   -20.7773     0.0000    32.0000 </r>
       <r>   -20.5304     0.0000    32.0000 </r>
       <r>   -20.2836     0.0000    32.0000 </r>
       <r>   -20.0368     0.0000    32.0000 </r>
       <r>   -19.7899     0.0000    32.0000 </r>
       <r>   -19.5431     0.0000    32.0000 </r>
       <r>   -19.2963     0.0000    32.0000 </r>
       <r>   -19.0494     0.0000    32.0000 </r>
       <r>   -18.8026     0.0000    32.0000 </r>
       <r>   -18.5557     0.0000    32.0000 </r>
       <r>   -18.3089     0.0000    32.0000 </r>
       <r>   -18.0621     0.0000    32.0000 </r>
       <r>   -17.8152     0.0000    32.0000 </r>
       <r>   -17.5684     0.0000    32.0000 </r>
       <r>   -17.3216     0.0000    32.0000 </r>
       <r>   -17.0747     0.0000    32.0000 </r>
       <r>   -16.8279     0.0000    32.0000 </r>
       <r>   -16.5810     0.0000    32.0000 </r>
       <r>   -16.3342     0.0000    32.0000 </r>
       <r>   -16.0874     0.0000    32.0000 </r>
       <r>   -15.8405     0.0000    32.0000 </r>
       <r>   -15.5937     0.0000    32.0000 </r>
       <r>   -15.3468     0.0000    32.0000 </r>
       <r>   -15.1000     0.0000    32.0000 </r>
       <r>   -14.8532     0.0000    32.0000 </r>
       <r>   -14.6063     0.0000    32.0000 </r>
       <r>   -14.3595     0.0000    32.0000 </r>
       <r>   -14.1127     0.0000    32.0000 </r>
       <r>   -13.8658     0.0000    32.0000 </r>
       <r>   -13.6190     0.0000    32.0000 </r>
       <r>   -13.3721     0.0000    32.0000 </r>
       <r>   -13.1253     0.0000    32.0000 </r>
       <r>   -12.8785     0.0000    32.0000 </r>
       <r>   -12.6316     0.0000    32.0000 </r>
       <r>   -12.3848     0.0000    32.0000 </r>
       <r>   -12.1380     0.0000    32.0000 </r>
       <r>   -11.8911     0.0000    32.0000 </r>
       <r>   -11.6443     0.0000    32.0000 </r>
       <r>   -11.3974     0.0000    32.0000 </r>
       <r>   -11.1506     0.0000    32.0000 </r>
       <r>   -10.9038     0.0000    32.0000 </r>
       <r>   -10.6569     0.0000    32.0000 </r>
       <r>   -10.4101     0.0000    32.0000 </r>
       <r>   -10.1633     0.0000    32.0000 </r>
       <r>    -9.9164     0.0000    32.0000 </r>
       <r>    -9.6696     0.0000    32.0000 </r>
       <r>    -9.4227     0.0000    32.0000 </r>
       <r>    -9.1759     0.0000    32.0000 </r>
       <r>    -8.9291     0.0000    32.0000 </r>
       <r>    -8.6822     0.0000    32.0000 </r>
       <r>    -8.4354     0.0000    32.0000 </r>
       <r>    -8.1885     0.0000    32.0000 </r>
       <r>    -7.9417     0.0000    32.0000 </r>
       <r>    -7.6949     0.0000    32.0000 </r>
       <r>    -7.4480     0.0000    32.0000 </r>
       <r>    -7.2012     0.0000    32.0000 </r>
       <r>    -6.9544     0.0000    32.0000 </r>
       <r>    -6.7075     0.0000    32.0000 </r>
       <r>    -6.4607     0.0000    32.0000 </r>
       <r>    -6.2138     0.0000    32.0000 </r>
       <r>    -5.9670     0.0000    32.0000 </r>
       <r>    -5.7202     0.0000    32.0000 </r>
       <r>    -5.4733     0.0000    32.0000 </r>
       <r>    -5.2265     0.0000    32.0000 </r>
       <r>    -4.9797     0.0237    32.0058 </r>
       <r>    -4.7328     0.4318    32.1824 </r>
       <r>    -4.4860     0.8509    32.4608 </r>
       <r>    -4.2391     1.2918    32.8262 </r>
       <r>    -3.9923     1.2208    33.3334 </r>
       <r>    -3.7455     1.5605    33.9770 </r>
       <r>    -3.4986     1.4472    34.5205 </r>
       <r>    -3.2518     1.2884    35.2393 </r>
       <r>    -3.0050     2.0600    35.9895 </r>
       <r>    -2.7581     1.6430    36.6680 </r>
       <r>    -2.5113     2.0022    37.3280 </r>
       <r>    -2.2644     1.7684    37.9934 </r>
       <r>    -2.0176     1.3899    38.5530 </r>
       <r>    -1.7708     1.2846    39.1859 </r>
       <r>    -1.5239     1.7783    39.9025 </r>
       <r>    -1.2771     1.1388    40.4618 </r>
       <r>    -1.0302     2.1364    41.0171 </r>
       <r>    -0.7834     1.8757    41.7808 </r>
       <r>    -0.5366     1.7763    42.4560 </r>
       <r>    -0.2897     1.7452    43.1013 </r>
       <r>    -0.0429     1.2376    43.5941 </r>
       <r>     0.2039     1.8209    44.2046 </r>
       <r>     0.4508     1.6290    44.7170 </r>
       <r>     0.6976     2.6024    45.6453 </r>
       <r>     0.9445     1.9123    46.3729 </r>
       <r>     1.1913     1.0429    46.8580 </r>
       <r>     1.4381     3.6094    48.0979 </r>
       <r>     1.6850     1.3597    48.5922 </r>
       <r>     1.9318     1.6133    49.1679 </r>
       <r>     2.1786     1.4179    49.8194 </r>
       <r>     2.4255     1.9942    50.8479 </r>
       <r>     2.6723     1.1830    51.2366 </r>
       <r>     2.9192     2.4200    52.3933 </r>
       <r>     3.1660     3.4827    53.6702 </r>
       <r>     3.4128     2.7489    54.7777 </r>
       <r>     3.6597     3.7750    55.8239 </r>
       <r>     3.9065     4.1200    57.5651 </r>
       <r>     4.1534     3.4290    59.0505 </r>
       <r>     4.4002     3.5020    60.4154 </r>
       <r>     4.6470     3.7011    61.7241 </r>
       <r>     4.8939     3.0932    62.8102 </r>
       <r>     5.1407     8.7061    65.5251 </r>
       <r>     5.3875     6.3333    67.7965 </r>
       <r>     5.6344     8.3305    70.6277 </r>
       <r>     5.8812     4.8328    72.6915 </r>
       <r>     6.1281     7.1697    75.4024 </r>
       <r>     6.3749     3.1294    77.2389 </r>
       <r>     6.6217     3.4986    78.4671 </r>
       <r>     6.8686     2.3810    79.2175 </r>
       <r>     7.1154     3.1619    80.2382 </r>
       <r>     7.3622     3.6078    81.6777 </r>
       <r>     7.6091     5.2049    83.5413 </r>
       <r>     7.8559     6.2580    86.1569 </r>
       <r>     8.1028     4.4097    88.2080 </r>
       <r>     8.3496     6.2273    90.2019 </r>
       <r>     8.5964     5.8949    92.3006 </r>
       <r>     8.8433     6.7005    94.7968 </r>
       <r>     9.0901     6.2974    97.5370 </r>
       <r>     9.3369     3.6261    99.2041 </r>
       <r>     9.5838     6.3600   101.8323 </r>
       <r>     9.8306     5.8636   104.0421 </r>
       <r>    10.0775     7.2171   106.5453 </r>
       <r>    10.3243     3.3742   108.0457 </r>
       <r>    10.5711     4.7868   109.5664 </r>
       <r>    10.8180     3.8929   110.8385 </r>
       <r>    11.0648     4.9304   112.6806 </r>
       <r>    11.3117     2.0665   113.7987 </r>
       <r>    11.5585     2.9095   114.5549 </r>
       <r>    11.8053     3.5529   115.7691 </r>
       <r>    12.0522     3.4697   117.0430 </r>
       <r>    12.2990     4.2508   118.7519 </r>
       <r>    12.5458     1.9495   119.7349 </r>
       <r>    12.7927     0.5196   119.9533 </r>
       <r>    13.0395     0.0000   119.9767 </r>
       <r>    13.2864     0.0472   120.0000 </r>
       <r>    13.5332     0.0000   120.0000 </r>
       <r>    13.7800     0.0000   120.0000 </r>
       <r>    14.0269     0.0000   120.0000 </r>
       <r>    14.2737     0.0000   120.0000 </r>
       <r>    14.5205     0.0000   120.0000 </r>
       <r>    14.7674     0.0000   120.0000 </r>
       <r>    15.0142     0.0000   120.0000 </r>
       <r>    15.2611     0.0000   120.0000 </r>
       <r>    15.5079     0.0000   120.0000 </r>
       <r>    15.7547     0.0000   120.0000 </r>
       <r>    16.0016     0.0000   120.0000 </r>
       <r>    16.2484     0.0000   120.0000 </r>
       <r>    16.4952     0.0000   120.0000 </r>
      </set>
     </set>
    </array>
   </total>
  </dos>
 </calculation>
 <structure name="finalpos" >
  <crystal>
   <varray name="basis" >
    <v>       6.14740561       0.00000000      -2.25668994 </v>
    <v>      -2.99645801       5.36766570      -2.25668994 </v>
    <v>       0.00000000       0.00000000       6.54853000 </v>
   </varray>
   <i name="volume">    216.08327334 </i>
   <varray name="rec_basis" >
    <v>       0.16267025       0.09080941       0.00000000 </v>
    <v>       0.00000000       0.18630072       0.00000000 </v>
    <v>       0.05605782       0.09549497       0.15270603 </v>
   </varray>
  </crystal>
  <varray name="positions" >
   <v>       0.50000000       0.00000000       0.50000000 </v>
   <v>       0.00000000       0.50000000       0.50000000 </v>
   <v>       0.25000000       0.25000000       0.00000000 </v>
   <v>       0.25000000       0.75000000       0.50000000 </v>
   <v>       0.75000000       0.75000000       0.00000000 </v>
   <v>       0.75000000       0.25000000       0.50000000 </v>
   <v>       0.20878000       0.05443000       0.26321000 </v>
   <v>       0.79122000       0.94557000       0.73679000 </v>
   <v>       0.05443000       0.79122000       0.84566000 </v>
   <v>       0.94557000       0.20878000       0.15434000 </v>
   <v>       0.29122000       0.55443000       0.84566000 </v>
   <v>       0.70878000       0.44557000       0.15434000 </v>
   <v>       0.44557000       0.29122000       0.73679000 </v>
   <v>       0.55443000       0.70878000       0.26321000 </v>
  </varray>
 </structure>
</modeling>
