 vasp.6.2.0 18Jan21 (build Jan 05 2022 15:41:44) complex                        
  
 executed on             LinuxIFC date 2025.05.07  21:25:12
 running on   24 total cores
 distrk:  each k-point on   12 cores,    2 groups
 distr:  one band on NCORE=   2 cores,    6 groups


--------------------------------------------------------------------------------------------------------


 INCAR:
   SYSTEM = routine with relax: pwdword
   ICHARG = 2
   NPAR = 6
   KPAR = 2
   NCORE = 2
   ADDGRID = T
   PREC = Acc
   ENCUT = 600
   METAGGA = R2SCAN
   LASPH = .TRUE.
   LMIXTAU = .FALSE.
   ALGO = A
   EDIFF = 1E-9
   NELM = 100
   NELMIN = 6
   IALGO = 38
   LREAL = F
   NSW = 0
   ISIF = -1
   ISMEAR = 0
   SIGMA = 0.02

 POTCAR:    PAW_PBE Mo_sv 02Feb2006               
 POTCAR:    PAW_PBE Si 05Jan2001                  
 -----------------------------------------------------------------------------
|                                                                             |
|           W    W    AA    RRRRR   N    N  II  N    N   GGGG   !!!           |
|           W    W   A  A   R    R  NN   N  II  NN   N  G    G  !!!           |
|           W    W  A    A  R    R  N N  N  II  N N  N  G       !!!           |
|           W WW W  AAAAAA  RRRRR   N  N N  II  N  N N  G  GGG   !            |
|           WW  WW  A    A  R   R   N   NN  II  N   NN  G    G                |
|           W    W  A    A  R    R  N    N  II  N    N   GGGG   !!!           |
|                                                                             |
|     For optimal performance we recommend to set                             |
|       NCORE = 2 up to number-of-cores-per-socket                            |
|     NCORE specifies how many cores store one orbital (NPAR=cpu/NCORE).      |
|     This setting can greatly improve the performance of VASP for DFT.       |
|     The default, NCORE=1 might be grossly inefficient on modern             |
|     multi-core architectures or massively parallel machines. Do your        |
|     own testing! More info at https://www.vasp.at/wiki/index.php/NCORE      |
|     Unfortunately you need to use the default for GW and RPA                |
|     calculations (for HF NCORE is supported but not extensively tested      |
|     yet).                                                                   |
|                                                                             |
 -----------------------------------------------------------------------------

 POTCAR:    PAW_PBE Mo_sv 02Feb2006               
   VRHFIN =Mo: 4p5s4d                                                                               
   LEXCH  = PE                                                                                      
   EATOM  =  1862.2866 eV,  136.8742 Ry                                                             
                                                                                                    
   TITEL  = PAW_PBE Mo_sv 02Feb2006                                                                 
   LULTRA =        F    use ultrasoft PP ?                                                          
   IUNSCR =        1    unscreen: 0-lin 1-nonlin 2-no                                               
   RPACOR =    2.200    partial core radius                                                         
   POMASS =   95.940; ZVAL   =   14.000    mass and valenz                                          
   RCORE  =    2.500    outmost cutoff radius                                                       
   RWIGS  =    2.750; RWIGS  =    1.455    wigner-seitz radius (au A)                               
   ENMAX  =  242.676; ENMIN  =  182.007 eV                                                          
   ICORE  =        3    local potential                                                             
   LCOR   =        T    correct aug charges                                                         
   LPAW   =        T    paw PP                                                                      
   EAUG   =  446.014                                                                                
   DEXC   =    0.000                                                                                
   RMAX   =    2.563    core radius for proj-oper                                                   
   RAUG   =    1.300    factor for augmentation sphere                                              
   RDEP   =    2.641    radius for radial grids                                                     
   RDEPT  =    2.031    core radius for aug-charge                                                  
                                                                                                    
   Atomic configuration                                                                             
   11 entries                                                                                       
     n  l   j            E        occ.                                                              
     1  0  0.50    -19819.0341   2.0000                                                             
     2  0  0.50     -2799.0127   2.0000                                                             
     2  1  1.50     -2502.0276   6.0000                                                             
     3  0  0.50      -476.4449   2.0000                                                             
     3  1  1.50      -379.1496   6.0000                                                             
     3  2  2.50      -220.9367  10.0000                                                             
     4  0  0.50       -64.3378   2.0000                                                             
     5  0  0.50        -4.0862   1.0000                                                             
     4  1  1.50       -38.4773   6.0000                                                             
     4  2  2.50        -3.7535   5.0000                                                             
     4  3  2.50        -1.3606   0.0000                                                             
   Description                                                                                      
     l       E           TYP  RCUT    TYP  RCUT                                                     
     0    -64.3377829     23  2.100                                                                 
     0     -4.0861640     23  2.400                                                                 
     1    -38.4772993     23  2.100                                                                 
     1     13.6058260     23  2.100                                                                 
     2     -3.7534941     23  2.400                                                                 
     2     -5.1140767     23  2.400                                                                 
     3     -4.0817478     23  2.500                                                                 
  local pseudopotential read in
  partial core-charges read in
  partial kinetic energy density read in
  atomic valenz-charges read in
  non local Contribution for L=           0  read in
    real space projection operators read in
  non local Contribution for L=           0  read in
    real space projection operators read in
  non local Contribution for L=           1  read in
    real space projection operators read in
  non local Contribution for L=           1  read in
    real space projection operators read in
  non local Contribution for L=           2  read in
    real space projection operators read in
  non local Contribution for L=           2  read in
    real space projection operators read in
    PAW grid and wavefunctions read in
 
   number of l-projection  operators is LMAX  =           6
   number of lm-projection operators is LMMAX =          18
 
 POTCAR:    PAW_PBE Si 05Jan2001                  
   VRHFIN =Si: s2p2                                                                                 
   LEXCH  = PE                                                                                      
   EATOM  =   103.0669 eV,    7.5752 Ry                                                             
                                                                                                    
   TITEL  = PAW_PBE Si 05Jan2001                                                                    
   LULTRA =        F    use ultrasoft PP ?                                                          
   IUNSCR =        1    unscreen: 0-lin 1-nonlin 2-no                                               
   RPACOR =    1.500    partial core radius                                                         
   POMASS =   28.085; ZVAL   =    4.000    mass and valenz                                          
   RCORE  =    1.900    outmost cutoff radius                                                       
   RWIGS  =    2.480; RWIGS  =    1.312    wigner-seitz radius (au A)                               
   ENMAX  =  245.345; ENMIN  =  184.009 eV                                                          
   ICORE  =        2    local potential                                                             
   LCOR   =        T    correct aug charges                                                         
   LPAW   =        T    paw PP                                                                      
   EAUG   =  322.069                                                                                
   DEXC   =    0.000                                                                                
   RMAX   =    1.950    core radius for proj-oper                                                   
   RAUG   =    1.300    factor for augmentation sphere                                              
   RDEP   =    1.993    radius for radial grids                                                     
   RDEPT  =    1.837    core radius for aug-charge                                                  
                                                                                                    
   Atomic configuration                                                                             
    6 entries                                                                                       
     n  l   j            E        occ.                                                              
     1  0  0.50     -1785.8828   2.0000                                                             
     2  0  0.50      -139.4969   2.0000                                                             
     2  1  1.50       -95.5546   6.0000                                                             
     3  0  0.50       -10.8127   2.0000                                                             
     3  1  0.50        -4.0811   2.0000                                                             
     3  2  1.50        -4.0817   0.0000                                                             
   Description                                                                                      
     l       E           TYP  RCUT    TYP  RCUT                                                     
     0    -10.8127223     23  1.900                                                                 
     0     -7.6451159     23  1.900                                                                 
     1     -4.0811372     23  1.900                                                                 
     1      2.4879257     23  1.900                                                                 
     2     -4.0817478      7  1.900                                                                 
  local pseudopotential read in
  partial core-charges read in
  partial kinetic energy density read in
  atomic valenz-charges read in
  non local Contribution for L=           0  read in
    real space projection operators read in
  non local Contribution for L=           0  read in
    real space projection operators read in
  non local Contribution for L=           1  read in
    real space projection operators read in
  non local Contribution for L=           1  read in
    real space projection operators read in
    PAW grid and wavefunctions read in
 
   number of l-projection  operators is LMAX  =           4
   number of lm-projection operators is LMMAX =           8
 
  PAW_PBE Mo_sv 02Feb2006               :
 energy of atom  1       EATOM=-1862.2866
 kinetic energy error for atom=    0.0041 (will be added to EATOM!!)
  PAW_PBE Si 05Jan2001                  :
 energy of atom  2       EATOM= -103.0669
 kinetic energy error for atom=    0.0003 (will be added to EATOM!!)
 
 
 POSCAR: EA254
  positions in direct lattice
  No initial velocities read in

 METAGGA = R2SCA    LMAXTAU =  6    LMIXTAU =  F

 exchange correlation table for  LEXCH =        8
   RHO(1)=    0.500       N(1)  =     2000
   RHO(2)=  100.500       N(2)  =     4000
 


--------------------------------------------------------------------------------------------------------


 ion  position               nearest neighbor table
   1  0.500  0.500  0.000-   7 2.58   8 2.58   9 2.58  10 2.58   3 2.98   4 2.98   5 2.98   6 2.98
                             3 2.98   4 2.98   5 2.98   6 2.98
   2  0.000  0.000  0.000-   7 2.58   8 2.58   9 2.58  10 2.58   3 2.98   4 2.98   5 2.98   6 2.98
                             3 2.98   4 2.98   5 2.98   6 2.98
   3  0.661  0.161  0.500-   8 2.53   8 2.53  10 2.57   9 2.57   9 2.57  10 2.57   2 2.98   2 2.98
                             1 2.98   1 2.98   4 3.03
   4  0.339  0.839  0.500-   7 2.53   7 2.53  10 2.57   9 2.57   9 2.57  10 2.57   2 2.98   2 2.98
                             1 2.98   1 2.98   3 3.03
   5  0.161  0.339  0.500-  10 2.53  10 2.53   7 2.57   7 2.57   8 2.57   8 2.57   2 2.98   2 2.98
                             1 2.98   1 2.98   6 3.03
   6  0.839  0.661  0.500-   9 2.53   9 2.53   7 2.57   7 2.57   8 2.57   8 2.57   2 2.98   2 2.98
                             1 2.98   1 2.98   5 3.03
   7  0.134  0.634  0.000-   8 2.52   4 2.53   4 2.53   5 2.57   6 2.57   5 2.57   6 2.57   2 2.58
                             1 2.58
   8  0.866  0.366  0.000-   7 2.52   3 2.53   3 2.53   5 2.57   6 2.57   5 2.57   6 2.57   2 2.58
                             1 2.58
   9  0.634  0.866  0.000-  10 2.52   6 2.53   6 2.53   4 2.57   3 2.57   4 2.57   3 2.57   2 2.58
                             1 2.58
  10  0.366  0.134  0.000-   9 2.52   5 2.53   5 2.53   4 2.57   3 2.57   4 2.57   3 2.57   2 2.58
                             1 2.58
 
  LATTYP: Found a simple tetragonal cell.
 ALAT       =     6.6332000000
 C/A-ratio  =     0.4970089851
  
  Lattice vectors:
  
 A1 = (   6.6332000000,   0.0000000000,   0.0000000000)
 A2 = (   0.0000000000,   6.6332000000,   0.0000000000)
 A3 = (   0.0000000000,   0.0000000000,   3.2967600000)


Analysis of symmetry for initial positions (statically):
=====================================================================
 Subroutine PRICEL returns:
 Original cell was already a primitive cell.
 

 Routine SETGRP: Setting up the symmetry group for a 
 simple tetragonal supercell.


 Subroutine GETGRP returns: Found 16 space group operations
 (whereof  8 operations were pure point group operations)
 out of a pool of 16 trial point group operations.


The static configuration has the point symmetry C_4h.
 The point group associated with its full space group is D_4h.


Analysis of symmetry for dynamics (positions and initial velocities):
=====================================================================
 Subroutine PRICEL returns:
 Original cell was already a primitive cell.
 

 Routine SETGRP: Setting up the symmetry group for a 
 simple tetragonal supercell.


 Subroutine GETGRP returns: Found 16 space group operations
 (whereof  8 operations were pure point group operations)
 out of a pool of 16 trial point group operations.


The dynamic configuration has the point symmetry C_4h.
 The point group associated with its full space group is D_4h.


 Subroutine INISYM returns: Found 16 space group operations
 (whereof  8 operations are pure point group operations),
 and found     1 'primitive' translations


----------------------------------------------------------------------------------------

                                     Primitive cell                                     

  volume of cell :     145.0553

  direct lattice vectors                    reciprocal lattice vectors
     6.633200000  0.000000000  0.000000000     0.150756799  0.000000000  0.000000000
     0.000000000  6.633200000  0.000000000     0.000000000  0.150756799  0.000000000
     0.000000000  0.000000000  3.296760000     0.000000000  0.000000000  0.303328116

  length of vectors
     6.633200000  6.633200000  3.296760000     0.150756799  0.150756799  0.303328116

  position of ions in fractional coordinates (direct lattice)
     0.500000000  0.500000000  0.000000000
     0.000000000  0.000000000  0.000000000
     0.661257000  0.161257000  0.500000000
     0.338743000  0.838743000  0.500000000
     0.161257000  0.338743000  0.500000000
     0.838743000  0.661257000  0.500000000
     0.134245000  0.634245000  0.000000000
     0.865755000  0.365755000  0.000000000
     0.634245000  0.865755000  0.000000000
     0.365755000  0.134245000  0.000000000

  ion indices of the primitive-cell ions
   primitive index   ion index
                 1           1
                 2           2
                 3           3
                 4           4
                 5           5
                 6           6
                 7           7
                 8           8
                 9           9
                10          10

----------------------------------------------------------------------------------------

 
 
 KPOINTS: EA                                      

Automatic generation of k-mesh.
 Grid dimensions read from file:
 generate k-points for:    6    6   11

 Generating k-lattice:

  Cartesian coordinates                     Fractional coordinates (reciprocal lattice)
     0.025126133  0.000000000  0.000000000     0.166666667  0.000000000  0.000000000
     0.000000000  0.025126133  0.000000000     0.000000000  0.166666667  0.000000000
     0.000000000  0.000000000  0.027575283     0.000000000  0.000000000  0.090909091

  Length of vectors
     0.025126133  0.025126133  0.027575283

  Shift w.r.t. Gamma in fractional coordinates (k-lattice)
     0.000000000  0.000000000  0.000000000

 
 Subroutine IBZKPT returns following result:
 ===========================================
 
 Found     60 irreducible k-points:
 
 Following reciprocal coordinates:
            Coordinates               Weight
  0.000000  0.000000  0.000000      1.000000
  0.166667  0.000000  0.000000      4.000000
  0.333333  0.000000  0.000000      4.000000
  0.500000  0.000000  0.000000      2.000000
  0.166667  0.166667  0.000000      4.000000
  0.333333  0.166667  0.000000      8.000000
  0.500000  0.166667  0.000000      4.000000
  0.333333  0.333333  0.000000      4.000000
  0.500000  0.333333  0.000000      4.000000
  0.500000  0.500000  0.000000      1.000000
  0.000000  0.000000  0.090909      2.000000
  0.166667  0.000000  0.090909      8.000000
  0.333333  0.000000  0.090909      8.000000
  0.500000  0.000000  0.090909      4.000000
  0.166667  0.166667  0.090909      8.000000
  0.333333  0.166667  0.090909     16.000000
  0.500000  0.166667  0.090909      8.000000
  0.333333  0.333333  0.090909      8.000000
  0.500000  0.333333  0.090909      8.000000
  0.500000  0.500000  0.090909      2.000000
  0.000000  0.000000  0.181818      2.000000
  0.166667  0.000000  0.181818      8.000000
  0.333333  0.000000  0.181818      8.000000
  0.500000  0.000000  0.181818      4.000000
  0.166667  0.166667  0.181818      8.000000
  0.333333  0.166667  0.181818     16.000000
  0.500000  0.166667  0.181818      8.000000
  0.333333  0.333333  0.181818      8.000000
  0.500000  0.333333  0.181818      8.000000
  0.500000  0.500000  0.181818      2.000000
  0.000000  0.000000  0.272727      2.000000
  0.166667  0.000000  0.272727      8.000000
  0.333333  0.000000  0.272727      8.000000
  0.500000  0.000000  0.272727      4.000000
  0.166667  0.166667  0.272727      8.000000
  0.333333  0.166667  0.272727     16.000000
  0.500000  0.166667  0.272727      8.000000
  0.333333  0.333333  0.272727      8.000000
  0.500000  0.333333  0.272727      8.000000
  0.500000  0.500000  0.272727      2.000000
  0.000000  0.000000  0.363636      2.000000
  0.166667  0.000000  0.363636      8.000000
  0.333333  0.000000  0.363636      8.000000
  0.500000  0.000000  0.363636      4.000000
  0.166667  0.166667  0.363636      8.000000
  0.333333  0.166667  0.363636     16.000000
  0.500000  0.166667  0.363636      8.000000
  0.333333  0.333333  0.363636      8.000000
  0.500000  0.333333  0.363636      8.000000
  0.500000  0.500000  0.363636      2.000000
  0.000000  0.000000  0.454545      2.000000
  0.166667  0.000000  0.454545      8.000000
  0.333333  0.000000  0.454545      8.000000
  0.500000  0.000000  0.454545      4.000000
  0.166667  0.166667  0.454545      8.000000
  0.333333  0.166667  0.454545     16.000000
  0.500000  0.166667  0.454545      8.000000
  0.333333  0.333333  0.454545      8.000000
  0.500000  0.333333  0.454545      8.000000
  0.500000  0.500000  0.454545      2.000000
 
 Following cartesian coordinates:
            Coordinates               Weight
  0.000000  0.000000  0.000000      1.000000
  0.025126  0.000000  0.000000      4.000000
  0.050252  0.000000  0.000000      4.000000
  0.075378  0.000000  0.000000      2.000000
  0.025126  0.025126  0.000000      4.000000
  0.050252  0.025126  0.000000      8.000000
  0.075378  0.025126  0.000000      4.000000
  0.050252  0.050252  0.000000      4.000000
  0.075378  0.050252  0.000000      4.000000
  0.075378  0.075378  0.000000      1.000000
  0.000000  0.000000  0.027575      2.000000
  0.025126  0.000000  0.027575      8.000000
  0.050252  0.000000  0.027575      8.000000
  0.075378  0.000000  0.027575      4.000000
  0.025126  0.025126  0.027575      8.000000
  0.050252  0.025126  0.027575     16.000000
  0.075378  0.025126  0.027575      8.000000
  0.050252  0.050252  0.027575      8.000000
  0.075378  0.050252  0.027575      8.000000
  0.075378  0.075378  0.027575      2.000000
  0.000000  0.000000  0.055151      2.000000
  0.025126  0.000000  0.055151      8.000000
  0.050252  0.000000  0.055151      8.000000
  0.075378  0.000000  0.055151      4.000000
  0.025126  0.025126  0.055151      8.000000
  0.050252  0.025126  0.055151     16.000000
  0.075378  0.025126  0.055151      8.000000
  0.050252  0.050252  0.055151      8.000000
  0.075378  0.050252  0.055151      8.000000
  0.075378  0.075378  0.055151      2.000000
  0.000000  0.000000  0.082726      2.000000
  0.025126  0.000000  0.082726      8.000000
  0.050252  0.000000  0.082726      8.000000
  0.075378  0.000000  0.082726      4.000000
  0.025126  0.025126  0.082726      8.000000
  0.050252  0.025126  0.082726     16.000000
  0.075378  0.025126  0.082726      8.000000
  0.050252  0.050252  0.082726      8.000000
  0.075378  0.050252  0.082726      8.000000
  0.075378  0.075378  0.082726      2.000000
  0.000000  0.000000  0.110301      2.000000
  0.025126  0.000000  0.110301      8.000000
  0.050252  0.000000  0.110301      8.000000
  0.075378  0.000000  0.110301      4.000000
  0.025126  0.025126  0.110301      8.000000
  0.050252  0.025126  0.110301     16.000000
  0.075378  0.025126  0.110301      8.000000
  0.050252  0.050252  0.110301      8.000000
  0.075378  0.050252  0.110301      8.000000
  0.075378  0.075378  0.110301      2.000000
  0.000000  0.000000  0.137876      2.000000
  0.025126  0.000000  0.137876      8.000000
  0.050252  0.000000  0.137876      8.000000
  0.075378  0.000000  0.137876      4.000000
  0.025126  0.025126  0.137876      8.000000
  0.050252  0.025126  0.137876     16.000000
  0.075378  0.025126  0.137876      8.000000
  0.050252  0.050252  0.137876      8.000000
  0.075378  0.050252  0.137876      8.000000
  0.075378  0.075378  0.137876      2.000000
 


--------------------------------------------------------------------------------------------------------




 Dimension of arrays:
   k-points           NKPTS =     60   k-points in BZ     NKDIM =     60   number of bands    NBANDS=     60
   number of dos      NEDOS =    301   number of ions     NIONS =     10
   non local maximal  LDIM  =      6   non local SUM 2l+1 LMDIM =     18
   total plane-waves  NPLWV =  81648
   max r-space proj   IRMAX =      1   max aug-charges    IRDMAX= 197100
   dimension x,y,z NGX =    54 NGY =   54 NGZ =   28
   dimension x,y,z NGXF=   108 NGYF=  108 NGZF=   56
   support grid    NGXF=   216 NGYF=  216 NGZF=  112
   ions per type =               6   4
   NGX,Y,Z   is equivalent  to a cutoff of  13.53, 13.53, 14.12 a.u.
   NGXF,Y,Z  is equivalent  to a cutoff of  27.07, 27.07, 28.24 a.u.

 SYSTEM =  routine with relax: pwdword             
 POSCAR =  EA254                                   

 Startparameter for this run:
   NWRITE =      2    write-flag & timer
   PREC   = acc       normal or accurate (medium, high low for compatibility)
   ISTART =      0    job   : 0-new  1-cont  2-samecut
   ICHARG =      2    charge: 1-file 2-atom 10-const
   ISPIN  =      1    spin polarized calculation?
   LNONCOLLINEAR =      F non collinear calculations
   LSORBIT =      F    spin-orbit coupling
   INIWAV =      1    electr: 0-lowe 1-rand  2-diag
   LASPH  =      T    aspherical Exc in radial PAW
   METAGGA=      F    non-selfconsistent MetaGGA calc.

 Electronic Relaxation 1
   ENCUT  =  600.0 eV  44.10 Ry    6.64 a.u.  13.25 13.25  6.58*2*pi/ulx,y,z
   ENINI  =  600.0     initial cutoff
   ENAUG  =  446.0 eV  augmentation charge cutoff
   NELM   =    100;   NELMIN=  6; NELMDL= -5     # of ELM steps 
   EDIFF  = 0.1E-08   stopping-criterion for ELM
   LREAL  =      F    real-space projection
   NLSPLINE    = F    spline interpolate recip. space projectors
   LCOMPAT=      F    compatible to vasp.4.4
   GGA_COMPAT  = T    GGA compatible to vasp.4.4-vasp.4.6
   LMAXPAW     = -100 max onsite density
   LMAXMIX     =    2 max onsite mixed and CHGCAR
   VOSKOWN=      0    Vosko Wilk Nusair interpolation
   ROPT   =    0.00000   0.00000
 Ionic relaxation
   EDIFFG = 0.1E-07   stopping-criterion for IOM
   NSW    =      0    number of steps for IOM
   NBLOCK =      1;   KBLOCK =      1    inner block; outer block 
   IBRION =     -1    ionic relax: 0-MD 1-quasi-New 2-CG
   NFREE  =      0    steps in history (QN), initial steepest desc. (CG)
   ISIF   =     -1    stress and relaxation
   IWAVPR =     10    prediction:  0-non 1-charg 2-wave 3-comb
   ISYM   =      2    0-nonsym 1-usesym 2-fastsym
   LCORR  =      T    Harris-Foulkes like correction to forces

   POTIM  = 0.5000    time-step for ionic-motion
   TEIN   =    0.0    initial temperature
   TEBEG  =    0.0;   TEEND  =   0.0 temperature during run
   SMASS  =  -3.00    Nose mass-parameter (am)
   estimated Nose-frequenzy (Omega)   =  0.10E-29 period in steps = 0.13E+47 mass=  -0.101E-26a.u.
   SCALEE = 1.0000    scale energy and forces
   NPACO  =    256;   APACO  = 16.0  distance and # of slots for P.C.
   PSTRESS=    0.0 pullay stress

  Mass of Ions in am
   POMASS =  95.94 28.09
  Ionic Valenz
   ZVAL   =  14.00  4.00
  Atomic Wigner-Seitz radii
   RWIGS  =  -1.00 -1.00
  virtual crystal weights 
   VCA    =   1.00  1.00
   NELECT =     100.0000    total number of electrons
   NUPDOWN=      -1.0000    fix difference up-down

 DOS related values:
   EMIN   =  10.00;   EMAX   =-10.00  energy-range for DOS
   EFERMI =   0.00
   ISMEAR =     0;   SIGMA  =   0.02  broadening in eV -4-tet -1-fermi 0-gaus

 Electronic relaxation 2 (details)
   IALGO  =     58    algorithm
   LDIAG  =      T    sub-space diagonalisation (order eigenvalues)
   LSUBROT=      F    optimize rotation matrix (better conditioning)
   TURBO    =      0    0=normal 1=particle mesh
   IRESTART =      0    0=no restart 2=restart with 2 vectors
   NREBOOT  =      0    no. of reboots
   NMIN     =      0    reboot dimension
   EREF     =   0.00    reference energy to select bands
   IMIX   =      4    mixing-type and parameters
     AMIX     =   0.40;   BMIX     =  1.00
     AMIX_MAG =   1.60;   BMIX_MAG =  1.00
     AMIN     =   0.10
     WC   =   100.;   INIMIX=   1;  MIXPRE=   1;  MAXMIX= -45

 Intra band minimization:
   WEIMIN = 0.0000     energy-eigenvalue tresh-hold
   EBREAK =  0.42E-11  absolut break condition
   DEPER  =   0.30     relativ break condition  

   TIME   =   0.40     timestep for ELM

  volume/ion in A,a.u.               =      14.51        97.89
  Fermi-wavevector in a.u.,A,eV,Ry     =   1.446207  2.732934 28.456767  2.091513
  Thomas-Fermi vector in A             =   2.564301
 
 Write flags
   LWAVE        =      T    write WAVECAR
   LDOWNSAMPLE  =      F    k-point downsampling of WAVECAR
   LCHARG       =      T    write CHGCAR
   LVTOT        =      F    write LOCPOT, total local potential
   LVHAR        =      F    write LOCPOT, Hartree potential only
   LELF         =      F    write electronic localiz. function (ELF)
   LORBIT       =      0    0 simple, 1 ext, 2 COOP (PROOUT), +10 PAW based schemes


 Dipole corrections
   LMONO  =      F    monopole corrections only (constant potential shift)
   LDIPOL =      F    correct potential (dipole corrections)
   IDIPOL =      0    1-x, 2-y, 3-z, 4-all directions 
   EPSILON=  1.0000000 bulk dielectric constant

 Exchange correlation treatment:
   GGA     =    --    GGA type
   LEXCH   =     8    internal setting for exchange type
   VOSKOWN=      0    Vosko Wilk Nusair interpolation
   LHFCALC =     F    Hartree Fock is set to
   LHFONE  =     F    Hartree Fock one center treatment
   AEXX    =    0.0000 exact exchange contribution

 Linear response parameters
   LEPSILON=     F    determine dielectric tensor
   LRPA    =     F    only Hartree local field effects (RPA)
   LNABLA  =     F    use nabla operator in PAW spheres
   LVEL    =     F    velocity operator in full k-point grid
   LINTERFAST=   F  fast interpolation
   KINTER  =     0    interpolate to denser k-point grid
   CSHIFT  =0.1000    complex shift for real part using Kramers Kronig
   OMEGAMAX=  -1.0    maximum frequency
   DEG_THRESHOLD= 0.2000000E-02 threshold for treating states as degnerate
   RTIME   =   -0.100 relaxation time in fs
  (WPLASMAI=    0.000 imaginary part of plasma frequency in eV, 0.658/RTIME)
   DFIELD  = 0.0000000 0.0000000 0.0000000 field for delta impulse in time
 
 Orbital magnetization related:
   ORBITALMAG=     F  switch on orbital magnetization
   LCHIMAG   =     F  perturbation theory with respect to B field
   DQ        =  0.001000  dq finite difference perturbation B field
   LLRAUG    =     F  two centre corrections for induced B field



--------------------------------------------------------------------------------------------------------


 Static calculation
 charge density and potential will be updated during run
 non-spin polarized calculation
 Conjugate gradient for all bands (Freysoldt, et al. PRB 79, 241103 (2009))
 preconditioned conjugated gradient                                        
 perform sub-space diagonalisation
    before iterative eigenvector-optimisation
 modified Broyden-mixing scheme, WC =      100.0
 initial mixing is a Kerker type mixing with AMIX =  0.4000 and BMIX =      1.0000
 Hartree-type preconditioning will be used
 using additional bands           10
 reciprocal scheme for non local part
 use partial core corrections
 no Harris-corrections to forces 
 use gradient corrections 
 use of overlap-Matrix (Vanderbilt PP)
 Gauss-broadening in eV      SIGMA  =   0.02


--------------------------------------------------------------------------------------------------------


  energy-cutoff  :      600.00
  volume of cell :      145.06
      direct lattice vectors                 reciprocal lattice vectors
     6.633200000  0.000000000  0.000000000     0.150756799  0.000000000  0.000000000
     0.000000000  6.633200000  0.000000000     0.000000000  0.150756799  0.000000000
     0.000000000  0.000000000  3.296760000     0.000000000  0.000000000  0.303328116

  length of vectors
     6.633200000  6.633200000  3.296760000     0.150756799  0.150756799  0.303328116


 
 k-points in units of 2pi/SCALE and weight: EA                                      
   0.00000000  0.00000000  0.00000000       0.003
   0.02512613  0.00000000  0.00000000       0.010
   0.05025227  0.00000000  0.00000000       0.010
   0.07537840  0.00000000  0.00000000       0.005
   0.02512613  0.02512613  0.00000000       0.010
   0.05025227  0.02512613  0.00000000       0.020
   0.07537840  0.02512613  0.00000000       0.010
   0.05025227  0.05025227  0.00000000       0.010
   0.07537840  0.05025227  0.00000000       0.010
   0.07537840  0.07537840  0.00000000       0.003
   0.00000000  0.00000000  0.02757528       0.005
   0.02512613  0.00000000  0.02757528       0.020
   0.05025227  0.00000000  0.02757528       0.020
   0.07537840  0.00000000  0.02757528       0.010
   0.02512613  0.02512613  0.02757528       0.020
   0.05025227  0.02512613  0.02757528       0.040
   0.07537840  0.02512613  0.02757528       0.020
   0.05025227  0.05025227  0.02757528       0.020
   0.07537840  0.05025227  0.02757528       0.020
   0.07537840  0.07537840  0.02757528       0.005
   0.00000000  0.00000000  0.05515057       0.005
   0.02512613  0.00000000  0.05515057       0.020
   0.05025227  0.00000000  0.05515057       0.020
   0.07537840  0.00000000  0.05515057       0.010
   0.02512613  0.02512613  0.05515057       0.020
   0.05025227  0.02512613  0.05515057       0.040
   0.07537840  0.02512613  0.05515057       0.020
   0.05025227  0.05025227  0.05515057       0.020
   0.07537840  0.05025227  0.05515057       0.020
   0.07537840  0.07537840  0.05515057       0.005
   0.00000000  0.00000000  0.08272585       0.005
   0.02512613  0.00000000  0.08272585       0.020
   0.05025227  0.00000000  0.08272585       0.020
   0.07537840  0.00000000  0.08272585       0.010
   0.02512613  0.02512613  0.08272585       0.020
   0.05025227  0.02512613  0.08272585       0.040
   0.07537840  0.02512613  0.08272585       0.020
   0.05025227  0.05025227  0.08272585       0.020
   0.07537840  0.05025227  0.08272585       0.020
   0.07537840  0.07537840  0.08272585       0.005
   0.00000000  0.00000000  0.11030113       0.005
   0.02512613  0.00000000  0.11030113       0.020
   0.05025227  0.00000000  0.11030113       0.020
   0.07537840  0.00000000  0.11030113       0.010
   0.02512613  0.02512613  0.11030113       0.020
   0.05025227  0.02512613  0.11030113       0.040
   0.07537840  0.02512613  0.11030113       0.020
   0.05025227  0.05025227  0.11030113       0.020
   0.07537840  0.05025227  0.11030113       0.020
   0.07537840  0.07537840  0.11030113       0.005
   0.00000000  0.00000000  0.13787642       0.005
   0.02512613  0.00000000  0.13787642       0.020
   0.05025227  0.00000000  0.13787642       0.020
   0.07537840  0.00000000  0.13787642       0.010
   0.02512613  0.02512613  0.13787642       0.020
   0.05025227  0.02512613  0.13787642       0.040
   0.07537840  0.02512613  0.13787642       0.020
   0.05025227  0.05025227  0.13787642       0.020
   0.07537840  0.05025227  0.13787642       0.020
   0.07537840  0.07537840  0.13787642       0.005
 
 k-points in reciprocal lattice and weights: EA                                      
   0.00000000  0.00000000  0.00000000       0.003
   0.16666667  0.00000000  0.00000000       0.010
   0.33333333  0.00000000  0.00000000       0.010
   0.50000000  0.00000000  0.00000000       0.005
   0.16666667  0.16666667  0.00000000       0.010
   0.33333333  0.16666667  0.00000000       0.020
   0.50000000  0.16666667  0.00000000       0.010
   0.33333333  0.33333333  0.00000000       0.010
   0.50000000  0.33333333  0.00000000       0.010
   0.50000000  0.50000000  0.00000000       0.003
   0.00000000  0.00000000  0.09090909       0.005
   0.16666667  0.00000000  0.09090909       0.020
   0.33333333  0.00000000  0.09090909       0.020
   0.50000000  0.00000000  0.09090909       0.010
   0.16666667  0.16666667  0.09090909       0.020
   0.33333333  0.16666667  0.09090909       0.040
   0.50000000  0.16666667  0.09090909       0.020
   0.33333333  0.33333333  0.09090909       0.020
   0.50000000  0.33333333  0.09090909       0.020
   0.50000000  0.50000000  0.09090909       0.005
   0.00000000  0.00000000  0.18181818       0.005
   0.16666667  0.00000000  0.18181818       0.020
   0.33333333  0.00000000  0.18181818       0.020
   0.50000000  0.00000000  0.18181818       0.010
   0.16666667  0.16666667  0.18181818       0.020
   0.33333333  0.16666667  0.18181818       0.040
   0.50000000  0.16666667  0.18181818       0.020
   0.33333333  0.33333333  0.18181818       0.020
   0.50000000  0.33333333  0.18181818       0.020
   0.50000000  0.50000000  0.18181818       0.005
   0.00000000  0.00000000  0.27272727       0.005
   0.16666667  0.00000000  0.27272727       0.020
   0.33333333  0.00000000  0.27272727       0.020
   0.50000000  0.00000000  0.27272727       0.010
   0.16666667  0.16666667  0.27272727       0.020
   0.33333333  0.16666667  0.27272727       0.040
   0.50000000  0.16666667  0.27272727       0.020
   0.33333333  0.33333333  0.27272727       0.020
   0.50000000  0.33333333  0.27272727       0.020
   0.50000000  0.50000000  0.27272727       0.005
   0.00000000  0.00000000  0.36363636       0.005
   0.16666667  0.00000000  0.36363636       0.020
   0.33333333  0.00000000  0.36363636       0.020
   0.50000000  0.00000000  0.36363636       0.010
   0.16666667  0.16666667  0.36363636       0.020
   0.33333333  0.16666667  0.36363636       0.040
   0.50000000  0.16666667  0.36363636       0.020
   0.33333333  0.33333333  0.36363636       0.020
   0.50000000  0.33333333  0.36363636       0.020
   0.50000000  0.50000000  0.36363636       0.005
   0.00000000  0.00000000  0.45454545       0.005
   0.16666667  0.00000000  0.45454545       0.020
   0.33333333  0.00000000  0.45454545       0.020
   0.50000000  0.00000000  0.45454545       0.010
   0.16666667  0.16666667  0.45454545       0.020
   0.33333333  0.16666667  0.45454545       0.040
   0.50000000  0.16666667  0.45454545       0.020
   0.33333333  0.33333333  0.45454545       0.020
   0.50000000  0.33333333  0.45454545       0.020
   0.50000000  0.50000000  0.45454545       0.005
 
 position of ions in fractional coordinates (direct lattice) 
   0.50000000  0.50000000  0.00000000
   0.00000000  0.00000000  0.00000000
   0.66125700  0.16125700  0.50000000
   0.33874300  0.83874300  0.50000000
   0.16125700  0.33874300  0.50000000
   0.83874300  0.66125700  0.50000000
   0.13424500  0.63424500  0.00000000
   0.86575500  0.36575500  0.00000000
   0.63424500  0.86575500  0.00000000
   0.36575500  0.13424500  0.00000000
 
 position of ions in cartesian coordinates  (Angst):
   3.31660000  3.31660000  0.00000000
   0.00000000  0.00000000  0.00000000
   4.38624993  1.06964993  1.64838000
   2.24695007  5.56355007  1.64838000
   1.06964993  2.24695007  1.64838000
   5.56355007  4.38624993  1.64838000
   0.89047393  4.20707393  0.00000000
   5.74272607  2.42612607  0.00000000
   4.20707393  5.74272607  0.00000000
   2.42612607  0.89047393  0.00000000
 


--------------------------------------------------------------------------------------------------------


 k-point   1 :   0.0000 0.0000 0.0000  plane waves:    4885
 k-point   2 :   0.1667 0.0000 0.0000  plane waves:    4859
 k-point   3 :   0.3333 0.0000 0.0000  plane waves:    4844
 k-point   4 :   0.5000 0.0000 0.0000  plane waves:    4866
 k-point   5 :   0.1667 0.1667 0.0000  plane waves:    4845
 k-point   6 :   0.3333 0.1667 0.0000  plane waves:    4858
 k-point   7 :   0.5000 0.1667 0.0000  plane waves:    4870
 k-point   8 :   0.3333 0.3333 0.0000  plane waves:    4849
 k-point   9 :   0.5000 0.3333 0.0000  plane waves:    4844
 k-point  10 :   0.5000 0.5000 0.0000  plane waves:    4844
 k-point  11 :   0.0000 0.0000 0.0909  plane waves:    4861
 k-point  12 :   0.1667 0.0000 0.0909  plane waves:    4844
 k-point  13 :   0.3333 0.0000 0.0909  plane waves:    4850
 k-point  14 :   0.5000 0.0000 0.0909  plane waves:    4868
 k-point  15 :   0.1667 0.1667 0.0909  plane waves:    4847
 k-point  16 :   0.3333 0.1667 0.0909  plane waves:    4856
 k-point  17 :   0.5000 0.1667 0.0909  plane waves:    4854
 k-point  18 :   0.3333 0.3333 0.0909  plane waves:    4855
 k-point  19 :   0.5000 0.3333 0.0909  plane waves:    4854
 k-point  20 :   0.5000 0.5000 0.0909  plane waves:    4848
 k-point  21 :   0.0000 0.0000 0.1818  plane waves:    4837
 k-point  22 :   0.1667 0.0000 0.1818  plane waves:    4855
 k-point  23 :   0.3333 0.0000 0.1818  plane waves:    4859
 k-point  24 :   0.5000 0.0000 0.1818  plane waves:    4850
 k-point  25 :   0.1667 0.1667 0.1818  plane waves:    4841
 k-point  26 :   0.3333 0.1667 0.1818  plane waves:    4848
 k-point  27 :   0.5000 0.1667 0.1818  plane waves:    4842
 k-point  28 :   0.3333 0.3333 0.1818  plane waves:    4847
 k-point  29 :   0.5000 0.3333 0.1818  plane waves:    4850
 k-point  30 :   0.5000 0.5000 0.1818  plane waves:    4844
 k-point  31 :   0.0000 0.0000 0.2727  plane waves:    4853
 k-point  32 :   0.1667 0.0000 0.2727  plane waves:    4841
 k-point  33 :   0.3333 0.0000 0.2727  plane waves:    4841
 k-point  34 :   0.5000 0.0000 0.2727  plane waves:    4828
 k-point  35 :   0.1667 0.1667 0.2727  plane waves:    4855
 k-point  36 :   0.3333 0.1667 0.2727  plane waves:    4841
 k-point  37 :   0.5000 0.1667 0.2727  plane waves:    4826
 k-point  38 :   0.3333 0.3333 0.2727  plane waves:    4849
 k-point  39 :   0.5000 0.3333 0.2727  plane waves:    4854
 k-point  40 :   0.5000 0.5000 0.2727  plane waves:    4864
 k-point  41 :   0.0000 0.0000 0.3636  plane waves:    4817
 k-point  42 :   0.1667 0.0000 0.3636  plane waves:    4842
 k-point  43 :   0.3333 0.0000 0.3636  plane waves:    4824
 k-point  44 :   0.5000 0.0000 0.3636  plane waves:    4834
 k-point  45 :   0.1667 0.1667 0.3636  plane waves:    4830
 k-point  46 :   0.3333 0.1667 0.3636  plane waves:    4825
 k-point  47 :   0.5000 0.1667 0.3636  plane waves:    4826
 k-point  48 :   0.3333 0.3333 0.3636  plane waves:    4843
 k-point  49 :   0.5000 0.3333 0.3636  plane waves:    4832
 k-point  50 :   0.5000 0.5000 0.3636  plane waves:    4832
 k-point  51 :   0.0000 0.0000 0.4545  plane waves:    4842
 k-point  52 :   0.1667 0.0000 0.4545  plane waves:    4840
 k-point  53 :   0.3333 0.0000 0.4545  plane waves:    4828
 k-point  54 :   0.5000 0.0000 0.4545  plane waves:    4832
 k-point  55 :   0.1667 0.1667 0.4545  plane waves:    4822
 k-point  56 :   0.3333 0.1667 0.4545  plane waves:    4823
 k-point  57 :   0.5000 0.1667 0.4545  plane waves:    4830
 k-point  58 :   0.3333 0.3333 0.4545  plane waves:    4815
 k-point  59 :   0.5000 0.3333 0.4545  plane waves:    4826
 k-point  60 :   0.5000 0.5000 0.4545  plane waves:    4812

 maximum and minimum number of plane-waves per node :      2443     2394

 maximum number of plane-waves:      4885
 maximum index in each direction: 
   IXMAX=   13   IYMAX=   13   IZMAX=    6
   IXMIN=  -13   IYMIN=  -13   IZMIN=   -7


 parallel 3D FFT for wavefunctions:
    minimum data exchange during FFTs selected (reduces bandwidth)
 parallel 3D FFT for charge:
    minimum data exchange during FFTs selected (reduces bandwidth)


 total amount of memory used by VASP MPI-rank0   161189. kBytes
=======================================================================

   base      :      30000. kBytes
   nonl-proj :      42693. kBytes
   fftplans  :       9304. kBytes
   grid      :       6539. kBytes
   one-center:         77. kBytes
   wavefun   :      72576. kBytes
 
     INWAV:  cpu time    0.0001: real time    0.0001
 Broyden mixing: mesh for mixing (old mesh)
   NGX = 27   NGY = 27   NGZ = 13
  (NGX  =108   NGY  =108   NGZ  = 56)
  gives a total of   9477 points

 initial charge density was supplied:
 charge density of overlapping atoms calculated
 number of electron     100.0000000 magnetization 
 keeping initial charge density in first step


--------------------------------------------------------------------------------------------------------


 Maximum index for augmentation-charges        15674 (set IRDMAX)


--------------------------------------------------------------------------------------------------------


 First call to EWALD:  gamma=   0.337
 Maximum number of real-space cells 2x 2x 4
 Maximum number of reciprocal cells 3x 3x 2

    FEWALD:  cpu time    0.0028: real time    0.0028


--------------------------------------- Iteration      1(   1)  ---------------------------------------


    POTLOK:  cpu time    0.0809: real time    0.0816
    SETDIJ:  cpu time    0.5480: real time    0.5516
    TRIAL :  cpu time    6.1806: real time    6.2315
    CORREC:  cpu time    0.0011: real time    0.0011
    --------------------------------------------
      LOOP:  cpu time    6.8469: real time    6.9057

 eigenvalue-minimisations  :  7200
 total energy-change (2. order) : 0.1036282E+04  (-0.6719647E+04)
 number of electron     100.0000000 magnetization 
 augmentation part      100.0000000 magnetization 

 Free energy of the ion-electron system (eV)
  ---------------------------------------------------
  alpha Z        PSCENC =       567.68878659
  Ewald energy   TEWEN  =     -9705.97199490
  -Hartree energ DENC   =     -2229.97693861
  -exchange      EXHF   =         0.00000000
  -V(xc)+E(xc)   XCENC  =       442.58355494
  PAW double counting   =      9250.00517861    -9186.45992739
  entropy T*S    EENTRO =        -0.00033944
  eigenvalues    EBANDS =       312.45187927
  atomic energy  EATOM  =     11585.96136281
  ---------------------------------------------------
  free energy    TOTEN  =      1036.28156188 eV

  energy without entropy =     1036.28190132  energy(sigma->0) =     1036.28173160


--------------------------------------------------------------------------------------------------------




--------------------------------------- Iteration      1(   2)  ---------------------------------------


    TRIAL :  cpu time    6.4692: real time    6.5205
    CORREC:  cpu time    0.0011: real time    0.0011
    --------------------------------------------
      LOOP:  cpu time    6.4722: real time    6.5245

 eigenvalue-minimisations  :  7896
 total energy-change (2. order) :-0.1218990E+04  (-0.1194079E+04)
 number of electron     100.0000000 magnetization 
 augmentation part      100.0000000 magnetization 

 Free energy of the ion-electron system (eV)
  ---------------------------------------------------
  alpha Z        PSCENC =       567.68878659
  Ewald energy   TEWEN  =     -9705.97199490
  -Hartree energ DENC   =     -2229.97693861
  -exchange      EXHF   =         0.00000000
  -V(xc)+E(xc)   XCENC  =       442.58355494
  PAW double counting   =      9250.00517861    -9186.45992739
  entropy T*S    EENTRO =        -0.00149401
  eigenvalues    EBANDS =      -906.53674697
  atomic energy  EATOM  =     11585.96136281
  ---------------------------------------------------
  free energy    TOTEN  =      -182.70821894 eV

  energy without entropy =     -182.70672492  energy(sigma->0) =     -182.70747193


--------------------------------------------------------------------------------------------------------




--------------------------------------- Iteration      1(   3)  ---------------------------------------


    TRIAL :  cpu time    6.9742: real time    7.0290
    CORREC:  cpu time    0.0010: real time    0.0010
    --------------------------------------------
      LOOP:  cpu time    6.9760: real time    7.0329

 eigenvalue-minimisations  :  9372
 total energy-change (2. order) :-0.5098598E+02  (-0.4961196E+02)
 number of electron     100.0000000 magnetization 
 augmentation part      100.0000000 magnetization 

 Free energy of the ion-electron system (eV)
  ---------------------------------------------------
  alpha Z        PSCENC =       567.68878659
  Ewald energy   TEWEN  =     -9705.97199490
  -Hartree energ DENC   =     -2229.97693861
  -exchange      EXHF   =         0.00000000
  -V(xc)+E(xc)   XCENC  =       442.58355494
  PAW double counting   =      9250.00517861    -9186.45992739
  entropy T*S    EENTRO =        -0.00060861
  eigenvalues    EBANDS =      -957.52361619
  atomic energy  EATOM  =     11585.96136281
  ---------------------------------------------------
  free energy    TOTEN  =      -233.69420274 eV

  energy without entropy =     -233.69359414  energy(sigma->0) =     -233.69389844


--------------------------------------------------------------------------------------------------------




--------------------------------------- Iteration      1(   4)  ---------------------------------------


    TRIAL :  cpu time    6.6764: real time    6.7277
    CORREC:  cpu time    0.0010: real time    0.0010
    --------------------------------------------
      LOOP:  cpu time    6.6780: real time    6.7318

 eigenvalue-minimisations  :  8760
 total energy-change (2. order) :-0.1114439E+01  (-0.1099258E+01)
 number of electron     100.0000000 magnetization 
 augmentation part      100.0000000 magnetization 

 Free energy of the ion-electron system (eV)
  ---------------------------------------------------
  alpha Z        PSCENC =       567.68878659
  Ewald energy   TEWEN  =     -9705.97199490
  -Hartree energ DENC   =     -2229.97693861
  -exchange      EXHF   =         0.00000000
  -V(xc)+E(xc)   XCENC  =       442.58355494
  PAW double counting   =      9250.00517861    -9186.45992739
  entropy T*S    EENTRO =        -0.00066995
  eigenvalues    EBANDS =      -958.63799361
  atomic energy  EATOM  =     11585.96136281
  ---------------------------------------------------
  free energy    TOTEN  =      -234.80864151 eV

  energy without entropy =     -234.80797156  energy(sigma->0) =     -234.80830653


--------------------------------------------------------------------------------------------------------




--------------------------------------- Iteration      1(   5)  ---------------------------------------


    TRIAL :  cpu time    6.9860: real time    7.0400
    CORREC:  cpu time    0.0011: real time    0.0011
    CHARGE:  cpu time    0.6470: real time    0.6519
    --------------------------------------------
      LOOP:  cpu time    7.6365: real time    7.6957

 eigenvalue-minimisations  :  8952
 total energy-change (2. order) :-0.2273356E-01  (-0.2267057E-01)
 number of electron     100.0000001 magnetization 
 augmentation part       11.9165551 magnetization 

 Free energy of the ion-electron system (eV)
  ---------------------------------------------------
  alpha Z        PSCENC =       567.68878659
  Ewald energy   TEWEN  =     -9705.97199490
  -Hartree energ DENC   =     -2229.97693861
  -exchange      EXHF   =         0.00000000
  -V(xc)+E(xc)   XCENC  =       442.58355494
  PAW double counting   =      9250.00517861    -9186.45992739
  entropy T*S    EENTRO =        -0.00075568
  eigenvalues    EBANDS =      -958.66064143
  atomic energy  EATOM  =     11585.96136281
  ---------------------------------------------------
  free energy    TOTEN  =      -234.83137507 eV

  energy without entropy =     -234.83061938  energy(sigma->0) =     -234.83099722


--------------------------------------------------------------------------------------------------------




--------------------------------------- Iteration      1(   6)  ---------------------------------------


    POTLOK:  cpu time    0.0701: real time    0.0705
    SETDIJ:  cpu time    0.5411: real time    0.5439
    TRIAL :  cpu time    4.6565: real time    4.6904
    CORREC:  cpu time    2.4174: real time    2.4334
    CHARGE:  cpu time    0.6575: real time    0.6620
    --------------------------------------------
      LOOP:  cpu time    8.3433: real time    8.4023

 eigenvalue-minimisations  :     0
 total energy-change (2. order) : 0.5292404E+02  (-0.9568550E+01)
 number of electron     100.0000001 magnetization 
 augmentation part       13.8660967 magnetization 

 Free energy of the ion-electron system (eV)
  ---------------------------------------------------
  alpha Z        PSCENC =       567.68878659
  Ewald energy   TEWEN  =     -9705.97199490
  -Hartree energ DENC   =     -1811.01088283
  -exchange      EXHF   =         0.00000000
  -V(xc)+E(xc)   XCENC  =       438.13959720
  PAW double counting   =     14360.71118273   -14336.43197907
  entropy T*S    EENTRO =        -0.00082108
  eigenvalues    EBANDS =     -1280.99265142
  atomic energy  EATOM  =     11585.96136281
  ---------------------------------------------------
  free energy    TOTEN  =      -181.90733458 eV

  energy without entropy =     -181.90651349  energy(sigma->0) =     -181.90692404


--------------------------------------------------------------------------------------------------------




--------------------------------------- Iteration      1(   7)  ---------------------------------------


    POTLOK:  cpu time    0.0690: real time    0.0694
    SETDIJ:  cpu time    0.5383: real time    0.5412
    TRIAL :  cpu time    4.7070: real time    4.7413
    CORREC:  cpu time    2.3668: real time    2.3832
    CHARGE:  cpu time    0.6519: real time    0.6561
    --------------------------------------------
      LOOP:  cpu time    8.3335: real time    8.3931

 eigenvalue-minimisations  :     0
 total energy-change (2. order) :-0.9544168E+01  (-0.1849126E+01)
 number of electron     100.0000001 magnetization 
 augmentation part       13.9385602 magnetization 

 Free energy of the ion-electron system (eV)
  ---------------------------------------------------
  alpha Z        PSCENC =       567.68878659
  Ewald energy   TEWEN  =     -9705.97199490
  -Hartree energ DENC   =     -2010.50342553
  -exchange      EXHF   =         0.00000000
  -V(xc)+E(xc)   XCENC  =       447.83462899
  PAW double counting   =     13620.54579858   -13582.96347158
  entropy T*S    EENTRO =        -0.00145180
  eigenvalues    EBANDS =     -1114.04236670
  atomic energy  EATOM  =     11585.96136281
  ---------------------------------------------------
  free energy    TOTEN  =      -191.45150282 eV

  energy without entropy =     -191.45005102  energy(sigma->0) =     -191.45077692


--------------------------------------------------------------------------------------------------------




--------------------------------------- Iteration      1(   8)  ---------------------------------------


    POTLOK:  cpu time    0.0673: real time    0.0677
    SETDIJ:  cpu time    0.5325: real time    0.5355
    TRIAL :  cpu time    4.6838: real time    4.7177
    CORREC:  cpu time    2.3659: real time    2.3823
    CHARGE:  cpu time    0.6429: real time    0.6476
    --------------------------------------------
      LOOP:  cpu time    8.3227: real time    8.4016

 eigenvalue-minimisations  :     0
 total energy-change (2. order) :-0.1849351E+01  (-0.5451726E+00)
 number of electron     100.0000001 magnetization 
 augmentation part       13.9175990 magnetization 

 Free energy of the ion-electron system (eV)
  ---------------------------------------------------
  alpha Z        PSCENC =       567.68878659
  Ewald energy   TEWEN  =     -9705.97199490
  -Hartree energ DENC   =     -2057.16563889
  -exchange      EXHF   =         0.00000000
  -V(xc)+E(xc)   XCENC  =       450.17910217
  PAW double counting   =     13399.17519996   -13357.63240432
  entropy T*S    EENTRO =        -0.00228620
  eigenvalues    EBANDS =     -1075.53381592
  atomic energy  EATOM  =     11585.96136281
  ---------------------------------------------------
  free energy    TOTEN  =      -193.30085430 eV

  energy without entropy =     -193.29856810  energy(sigma->0) =     -193.29971120


--------------------------------------------------------------------------------------------------------




--------------------------------------- Iteration      1(   9)  ---------------------------------------


    POTLOK:  cpu time    0.0677: real time    0.0681
    SETDIJ:  cpu time    0.5298: real time    0.5328
    TRIAL :  cpu time    4.6750: real time    4.7093
    CORREC:  cpu time    2.3604: real time    2.3757
    CHARGE:  cpu time    0.6533: real time    0.6576
    --------------------------------------------
      LOOP:  cpu time    8.2899: real time    8.3484

 eigenvalue-minimisations  :     0
 total energy-change (2. order) :-0.5451683E+00  (-0.1322571E+00)
 number of electron     100.0000001 magnetization 
 augmentation part       13.9148070 magnetization 

 Free energy of the ion-electron system (eV)
  ---------------------------------------------------
  alpha Z        PSCENC =       567.68878659
  Ewald energy   TEWEN  =     -9705.97199490
  -Hartree energ DENC   =     -2067.17334684
  -exchange      EXHF   =         0.00000000
  -V(xc)+E(xc)   XCENC  =       450.72559309
  PAW double counting   =     13388.33474559   -13344.33970823
  entropy T*S    EENTRO =        -0.00251103
  eigenvalues    EBANDS =     -1069.06917456
  atomic energy  EATOM  =     11585.96136281
  ---------------------------------------------------
  free energy    TOTEN  =      -193.84602264 eV

  energy without entropy =     -193.84351161  energy(sigma->0) =     -193.84476713


--------------------------------------------------------------------------------------------------------




--------------------------------------- Iteration      1(  10)  ---------------------------------------


    POTLOK:  cpu time    0.0693: real time    0.0697
    SETDIJ:  cpu time    0.5398: real time    0.5427
    TRIAL :  cpu time    4.7065: real time    4.7416
    CORREC:  cpu time    2.3423: real time    2.3581
    CHARGE:  cpu time    0.6600: real time    0.6647
    --------------------------------------------
      LOOP:  cpu time    8.3188: real time    8.3784

 eigenvalue-minimisations  :     0
 total energy-change (2. order) :-0.1323112E+00  (-0.4796948E-01)
 number of electron     100.0000001 magnetization 
 augmentation part       13.8973720 magnetization 

 Free energy of the ion-electron system (eV)
  ---------------------------------------------------
  alpha Z        PSCENC =       567.68878659
  Ewald energy   TEWEN  =     -9705.97199490
  -Hartree energ DENC   =     -2067.90949630
  -exchange      EXHF   =         0.00000000
  -V(xc)+E(xc)   XCENC  =       450.79535390
  PAW double counting   =     13446.37701986   -13401.38107189
  entropy T*S    EENTRO =        -0.00263849
  eigenvalues    EBANDS =     -1069.53578292
  atomic energy  EATOM  =     11585.96136281
  ---------------------------------------------------
  free energy    TOTEN  =      -193.97833387 eV

  energy without entropy =     -193.97569539  energy(sigma->0) =     -193.97701463


--------------------------------------------------------------------------------------------------------




--------------------------------------- Iteration      1(  11)  ---------------------------------------


    POTLOK:  cpu time    0.0680: real time    0.0685
    SETDIJ:  cpu time    0.5406: real time    0.5439
    TRIAL :  cpu time    4.8950: real time    4.9311
    CORREC:  cpu time    2.3896: real time    2.4060
    CHARGE:  cpu time    0.6436: real time    0.6478
    --------------------------------------------
      LOOP:  cpu time    8.5379: real time    8.5991

 eigenvalue-minimisations  :     0
 total energy-change (2. order) :-0.4798290E-01  (-0.1658399E-01)
 number of electron     100.0000001 magnetization 
 augmentation part       13.9143324 magnetization 

 Free energy of the ion-electron system (eV)
  ---------------------------------------------------
  alpha Z        PSCENC =       567.68878659
  Ewald energy   TEWEN  =     -9705.97199490
  -Hartree energ DENC   =     -2068.30925886
  -exchange      EXHF   =         0.00000000
  -V(xc)+E(xc)   XCENC  =       450.82064708
  PAW double counting   =     13509.52511697   -13464.33415302
  entropy T*S    EENTRO =        -0.00270188
  eigenvalues    EBANDS =     -1069.40418494
  atomic energy  EATOM  =     11585.96136281
  ---------------------------------------------------
  free energy    TOTEN  =      -194.02631677 eV

  energy without entropy =     -194.02361489  energy(sigma->0) =     -194.02496583


--------------------------------------------------------------------------------------------------------




--------------------------------------- Iteration      1(  12)  ---------------------------------------


    POTLOK:  cpu time    0.0673: real time    0.0677
    SETDIJ:  cpu time    0.5259: real time    0.5291
    TRIAL :  cpu time    4.8127: real time    4.8492
    CORREC:  cpu time    2.3715: real time    2.3874
    CHARGE:  cpu time    0.6386: real time    0.6428
    --------------------------------------------
      LOOP:  cpu time    8.4194: real time    8.4802

 eigenvalue-minimisations  :     0
 total energy-change (2. order) :-0.1656734E-01  (-0.6828962E-02)
 number of electron     100.0000001 magnetization 
 augmentation part       13.9107957 magnetization 

 Free energy of the ion-electron system (eV)
  ---------------------------------------------------
  alpha Z        PSCENC =       567.68878659
  Ewald energy   TEWEN  =     -9705.97199490
  -Hartree energ DENC   =     -2070.60521683
  -exchange      EXHF   =         0.00000000
  -V(xc)+E(xc)   XCENC  =       450.92240623
  PAW double counting   =     13550.43957101   -13505.22782697
  entropy T*S    EENTRO =        -0.00272421
  eigenvalues    EBANDS =     -1067.24727018
  atomic energy  EATOM  =     11585.96136281
  ---------------------------------------------------
  free energy    TOTEN  =      -194.04288411 eV

  energy without entropy =     -194.04015990  energy(sigma->0) =     -194.04152201


--------------------------------------------------------------------------------------------------------




--------------------------------------- Iteration      1(  13)  ---------------------------------------


    POTLOK:  cpu time    0.0674: real time    0.0679
    SETDIJ:  cpu time    0.5369: real time    0.5399
    TRIAL :  cpu time    4.6795: real time    4.7142
    CORREC:  cpu time    2.3675: real time    2.3831
    CHARGE:  cpu time    0.6485: real time    0.6528
    --------------------------------------------
      LOOP:  cpu time    8.3042: real time    8.3631

 eigenvalue-minimisations  :     0
 total energy-change (2. order) :-0.6831393E-02  (-0.2831063E-02)
 number of electron     100.0000001 magnetization 
 augmentation part       13.9096011 magnetization 

 Free energy of the ion-electron system (eV)
  ---------------------------------------------------
  alpha Z        PSCENC =       567.68878659
  Ewald energy   TEWEN  =     -9705.97199490
  -Hartree energ DENC   =     -2070.11586741
  -exchange      EXHF   =         0.00000000
  -V(xc)+E(xc)   XCENC  =       450.89689824
  PAW double counting   =     13565.09463697   -13520.01956402
  entropy T*S    EENTRO =        -0.00272255
  eigenvalues    EBANDS =     -1067.58124956
  atomic energy  EATOM  =     11585.96136281
  ---------------------------------------------------
  free energy    TOTEN  =      -194.04971551 eV

  energy without entropy =     -194.04699295  energy(sigma->0) =     -194.04835423


--------------------------------------------------------------------------------------------------------




--------------------------------------- Iteration      1(  14)  ---------------------------------------


    POTLOK:  cpu time    0.0692: real time    0.0696
    SETDIJ:  cpu time    0.5404: real time    0.5435
    TRIAL :  cpu time    4.6727: real time    4.7089
    CORREC:  cpu time    2.3725: real time    2.3890
    CHARGE:  cpu time    0.6458: real time    0.6502
    --------------------------------------------
      LOOP:  cpu time    8.3016: real time    8.3629

 eigenvalue-minimisations  :     0
 total energy-change (2. order) :-0.2830907E-02  (-0.1234389E-02)
 number of electron     100.0000001 magnetization 
 augmentation part       13.9128360 magnetization 

 Free energy of the ion-electron system (eV)
  ---------------------------------------------------
  alpha Z        PSCENC =       567.68878659
  Ewald energy   TEWEN  =     -9705.97199490
  -Hartree energ DENC   =     -2069.96609143
  -exchange      EXHF   =         0.00000000
  -V(xc)+E(xc)   XCENC  =       450.89353874
  PAW double counting   =     13553.52528627   -13508.45015338
  entropy T*S    EENTRO =        -0.00269941
  eigenvalues    EBANDS =     -1067.73055857
  atomic energy  EATOM  =     11585.96136281
  ---------------------------------------------------
  free energy    TOTEN  =      -194.05254641 eV

  energy without entropy =     -194.04984700  energy(sigma->0) =     -194.05119671


--------------------------------------------------------------------------------------------------------




--------------------------------------- Iteration      1(  15)  ---------------------------------------


    POTLOK:  cpu time    0.0688: real time    0.0692
    SETDIJ:  cpu time    0.5368: real time    0.5402
    TRIAL :  cpu time    4.7047: real time    4.7402
    CORREC:  cpu time    2.3515: real time    2.3677
    CHARGE:  cpu time    0.6441: real time    0.6484
    --------------------------------------------
      LOOP:  cpu time    8.3066: real time    8.3672

 eigenvalue-minimisations  :     0
 total energy-change (2. order) :-0.1231686E-02  (-0.5507890E-03)
 number of electron     100.0000001 magnetization 
 augmentation part       13.9131762 magnetization 

 Free energy of the ion-electron system (eV)
  ---------------------------------------------------
  alpha Z        PSCENC =       567.68878659
  Ewald energy   TEWEN  =     -9705.97199490
  -Hartree energ DENC   =     -2070.28337377
  -exchange      EXHF   =         0.00000000
  -V(xc)+E(xc)   XCENC  =       450.91287231
  PAW double counting   =     13535.81147955   -13490.67096372
  entropy T*S    EENTRO =        -0.00268122
  eigenvalues    EBANDS =     -1067.49924756
  atomic energy  EATOM  =     11585.96136281
  ---------------------------------------------------
  free energy    TOTEN  =      -194.05377810 eV

  energy without entropy =     -194.05109688  energy(sigma->0) =     -194.05243749


--------------------------------------------------------------------------------------------------------




--------------------------------------- Iteration      1(  16)  ---------------------------------------


    POTLOK:  cpu time    0.0672: real time    0.0676
    SETDIJ:  cpu time    0.5432: real time    0.5467
    TRIAL :  cpu time    4.6651: real time    4.6994
    CORREC:  cpu time    2.3564: real time    2.3740
    CHARGE:  cpu time    0.6507: real time    0.6551
    --------------------------------------------
      LOOP:  cpu time    8.2864: real time    8.3472

 eigenvalue-minimisations  :     0
 total energy-change (2. order) :-0.5509814E-03  (-0.3200012E-03)
 number of electron     100.0000001 magnetization 
 augmentation part       13.9113189 magnetization 

 Free energy of the ion-electron system (eV)
  ---------------------------------------------------
  alpha Z        PSCENC =       567.68878659
  Ewald energy   TEWEN  =     -9705.97199490
  -Hartree energ DENC   =     -2070.30598726
  -exchange      EXHF   =         0.00000000
  -V(xc)+E(xc)   XCENC  =       450.91085718
  PAW double counting   =     13525.97150603   -13480.81541768
  entropy T*S    EENTRO =        -0.00265809
  eigenvalues    EBANDS =     -1067.49076064
  atomic energy  EATOM  =     11585.96136281
  ---------------------------------------------------
  free energy    TOTEN  =      -194.05432908 eV

  energy without entropy =     -194.05167099  energy(sigma->0) =     -194.05300004


--------------------------------------------------------------------------------------------------------




--------------------------------------- Iteration      1(  17)  ---------------------------------------


    POTLOK:  cpu time    0.0678: real time    0.0682
    SETDIJ:  cpu time    0.5490: real time    0.5524
    TRIAL :  cpu time    4.6731: real time    4.7077
    CORREC:  cpu time    2.4285: real time    2.4447
    CHARGE:  cpu time    0.6874: real time    0.6928
    --------------------------------------------
      LOOP:  cpu time    8.4089: real time    8.4694

 eigenvalue-minimisations  :     0
 total energy-change (2. order) :-0.3205415E-03  (-0.1720416E-03)
 number of electron     100.0000001 magnetization 
 augmentation part       13.9120796 magnetization 

 Free energy of the ion-electron system (eV)
  ---------------------------------------------------
  alpha Z        PSCENC =       567.68878659
  Ewald energy   TEWEN  =     -9705.97199490
  -Hartree energ DENC   =     -2070.00814570
  -exchange      EXHF   =         0.00000000
  -V(xc)+E(xc)   XCENC  =       450.89469601
  PAW double counting   =     13523.52752181   -13478.39715634
  entropy T*S    EENTRO =        -0.00263949
  eigenvalues    EBANDS =     -1067.74706182
  atomic energy  EATOM  =     11585.96136281
  ---------------------------------------------------
  free energy    TOTEN  =      -194.05464962 eV

  energy without entropy =     -194.05201013  energy(sigma->0) =     -194.05332988


--------------------------------------------------------------------------------------------------------




--------------------------------------- Iteration      1(  18)  ---------------------------------------


    POTLOK:  cpu time    0.0680: real time    0.0685
    SETDIJ:  cpu time    0.5417: real time    0.5450
    TRIAL :  cpu time    4.9580: real time    4.9941
    CORREC:  cpu time    2.4547: real time    2.4720
    CHARGE:  cpu time    0.6532: real time    0.6577
    --------------------------------------------
      LOOP:  cpu time    8.6763: real time    8.7389

 eigenvalue-minimisations  :     0
 total energy-change (2. order) :-0.1718695E-03  (-0.7897710E-04)
 number of electron     100.0000001 magnetization 
 augmentation part       13.9123087 magnetization 

 Free energy of the ion-electron system (eV)
  ---------------------------------------------------
  alpha Z        PSCENC =       567.68878659
  Ewald energy   TEWEN  =     -9705.97199490
  -Hartree energ DENC   =     -2070.08369373
  -exchange      EXHF   =         0.00000000
  -V(xc)+E(xc)   XCENC  =       450.89778080
  PAW double counting   =     13528.74942192   -13483.62887203
  entropy T*S    EENTRO =        -0.00262891
  eigenvalues    EBANDS =     -1067.66497346
  atomic energy  EATOM  =     11585.96136281
  ---------------------------------------------------
  free energy    TOTEN  =      -194.05482149 eV

  energy without entropy =     -194.05219258  energy(sigma->0) =     -194.05350703


--------------------------------------------------------------------------------------------------------




--------------------------------------- Iteration      1(  19)  ---------------------------------------


    POTLOK:  cpu time    0.0685: real time    0.0689
    SETDIJ:  cpu time    0.5327: real time    0.5357
    TRIAL :  cpu time    4.7112: real time    4.7469
    CORREC:  cpu time    2.3724: real time    2.3892
    CHARGE:  cpu time    0.6465: real time    0.6509
    --------------------------------------------
      LOOP:  cpu time    8.3321: real time    8.3933

 eigenvalue-minimisations  :     0
 total energy-change (2. order) :-0.7955624E-04  (-0.3093946E-04)
 number of electron     100.0000001 magnetization 
 augmentation part       13.9119115 magnetization 

 Free energy of the ion-electron system (eV)
  ---------------------------------------------------
  alpha Z        PSCENC =       567.68878659
  Ewald energy   TEWEN  =     -9705.97199490
  -Hartree energ DENC   =     -2070.13930963
  -exchange      EXHF   =         0.00000000
  -V(xc)+E(xc)   XCENC  =       450.90157264
  PAW double counting   =     13534.14103100   -13489.02096749
  entropy T*S    EENTRO =        -0.00262580
  eigenvalues    EBANDS =     -1067.61275314
  atomic energy  EATOM  =     11585.96136281
  ---------------------------------------------------
  free energy    TOTEN  =      -194.05490105 eV

  energy without entropy =     -194.05227525  energy(sigma->0) =     -194.05358815


--------------------------------------------------------------------------------------------------------




--------------------------------------- Iteration      1(  20)  ---------------------------------------


    POTLOK:  cpu time    0.0692: real time    0.0696
    SETDIJ:  cpu time    0.5431: real time    0.5459
    TRIAL :  cpu time    4.6809: real time    4.7161
    CORREC:  cpu time    2.3545: real time    2.3717
    CHARGE:  cpu time    0.6487: real time    0.6531
    --------------------------------------------
      LOOP:  cpu time    8.2997: real time    8.3603

 eigenvalue-minimisations  :     0
 total energy-change (2. order) :-0.3084445E-04  (-0.2003617E-04)
 number of electron     100.0000001 magnetization 
 augmentation part       13.9115666 magnetization 

 Free energy of the ion-electron system (eV)
  ---------------------------------------------------
  alpha Z        PSCENC =       567.68878659
  Ewald energy   TEWEN  =     -9705.97199490
  -Hartree energ DENC   =     -2070.11726731
  -exchange      EXHF   =         0.00000000
  -V(xc)+E(xc)   XCENC  =       450.90028238
  PAW double counting   =     13535.99726141   -13490.87805965
  entropy T*S    EENTRO =        -0.00262507
  eigenvalues    EBANDS =     -1067.63267742
  atomic energy  EATOM  =     11585.96136281
  ---------------------------------------------------
  free energy    TOTEN  =      -194.05493189 eV

  energy without entropy =     -194.05230682  energy(sigma->0) =     -194.05361936


--------------------------------------------------------------------------------------------------------




--------------------------------------- Iteration      1(  21)  ---------------------------------------


    POTLOK:  cpu time    0.0675: real time    0.0679
    SETDIJ:  cpu time    0.5441: real time    0.5470
    TRIAL :  cpu time    4.6033: real time    4.6394
    CORREC:  cpu time    2.3503: real time    2.3660
    CHARGE:  cpu time    0.6423: real time    0.6468
    --------------------------------------------
      LOOP:  cpu time    8.2095: real time    8.2704

 eigenvalue-minimisations  :     0
 total energy-change (2. order) :-0.2008770E-04  (-0.1278401E-04)
 number of electron     100.0000001 magnetization 
 augmentation part       13.9120440 magnetization 

 Free energy of the ion-electron system (eV)
  ---------------------------------------------------
  alpha Z        PSCENC =       567.68878659
  Ewald energy   TEWEN  =     -9705.97199490
  -Hartree energ DENC   =     -2070.07753831
  -exchange      EXHF   =         0.00000000
  -V(xc)+E(xc)   XCENC  =       450.89862039
  PAW double counting   =     13536.12426294   -13491.00410172
  entropy T*S    EENTRO =        -0.00262754
  eigenvalues    EBANDS =     -1067.67172470
  atomic energy  EATOM  =     11585.96136281
  ---------------------------------------------------
  free energy    TOTEN  =      -194.05495198 eV

  energy without entropy =     -194.05232444  energy(sigma->0) =     -194.05363821


--------------------------------------------------------------------------------------------------------




--------------------------------------- Iteration      1(  22)  ---------------------------------------


    POTLOK:  cpu time    0.0687: real time    0.0692
    SETDIJ:  cpu time    0.5400: real time    0.5432
    TRIAL :  cpu time    4.6737: real time    4.7085
    CORREC:  cpu time    2.3909: real time    2.4068
    CHARGE:  cpu time    0.6596: real time    0.6643
    --------------------------------------------
      LOOP:  cpu time    8.3344: real time    8.3938

 eigenvalue-minimisations  :     0
 total energy-change (2. order) :-0.1149063E-04  (-0.4061902E-05)
 number of electron     100.0000001 magnetization 
 augmentation part       13.9119942 magnetization 

 Free energy of the ion-electron system (eV)
  ---------------------------------------------------
  alpha Z        PSCENC =       567.68878659
  Ewald energy   TEWEN  =     -9705.97199490
  -Hartree energ DENC   =     -2070.13152095
  -exchange      EXHF   =         0.00000000
  -V(xc)+E(xc)   XCENC  =       450.90106083
  PAW double counting   =     13534.57847096   -13489.45226735
  entropy T*S    EENTRO =        -0.00262937
  eigenvalues    EBANDS =     -1067.62623392
  atomic energy  EATOM  =     11585.96136281
  ---------------------------------------------------
  free energy    TOTEN  =      -194.05496347 eV

  energy without entropy =     -194.05233410  energy(sigma->0) =     -194.05364878


--------------------------------------------------------------------------------------------------------




--------------------------------------- Iteration      1(  23)  ---------------------------------------


    POTLOK:  cpu time    0.0692: real time    0.0696
    SETDIJ:  cpu time    0.5405: real time    0.5437
    TRIAL :  cpu time    4.8139: real time    4.8502
    CORREC:  cpu time    2.3876: real time    2.4041
    CHARGE:  cpu time    0.6574: real time    0.6616
    --------------------------------------------
      LOOP:  cpu time    8.4693: real time    8.5309

 eigenvalue-minimisations  :     0
 total energy-change (2. order) :-0.4050364E-05  (-0.3617735E-05)
 number of electron     100.0000001 magnetization 
 augmentation part       13.9118115 magnetization 

 Free energy of the ion-electron system (eV)
  ---------------------------------------------------
  alpha Z        PSCENC =       567.68878659
  Ewald energy   TEWEN  =     -9705.97199490
  -Hartree energ DENC   =     -2070.11815732
  -exchange      EXHF   =         0.00000000
  -V(xc)+E(xc)   XCENC  =       450.90049755
  PAW double counting   =     13533.73944049   -13488.61441374
  entropy T*S    EENTRO =        -0.00263150
  eigenvalues    EBANDS =     -1067.63785962
  atomic energy  EATOM  =     11585.96136281
  ---------------------------------------------------
  free energy    TOTEN  =      -194.05496752 eV

  energy without entropy =     -194.05233602  energy(sigma->0) =     -194.05365177


--------------------------------------------------------------------------------------------------------




--------------------------------------- Iteration      1(  24)  ---------------------------------------


    POTLOK:  cpu time    0.0673: real time    0.0678
    SETDIJ:  cpu time    0.5441: real time    0.5472
    TRIAL :  cpu time    4.6482: real time    4.6830
    CORREC:  cpu time    2.3748: real time    2.3916
    CHARGE:  cpu time    0.6351: real time    0.6396
    --------------------------------------------
      LOOP:  cpu time    8.2728: real time    8.3333

 eigenvalue-minimisations  :     0
 total energy-change (2. order) :-0.3623549E-05  (-0.2179423E-05)
 number of electron     100.0000001 magnetization 
 augmentation part       13.9118418 magnetization 

 Free energy of the ion-electron system (eV)
  ---------------------------------------------------
  alpha Z        PSCENC =       567.68878659
  Ewald energy   TEWEN  =     -9705.97199490
  -Hartree energ DENC   =     -2070.09623139
  -exchange      EXHF   =         0.00000000
  -V(xc)+E(xc)   XCENC  =       450.89923526
  PAW double counting   =     13533.25532402   -13488.13327915
  entropy T*S    EENTRO =        -0.00263298
[...]
     19     -23.9598      2.00000
     20     -23.9598      2.00000
     21     -23.9446      2.00000
     22     -23.9446      2.00000
     23     -23.9217      2.00000
     24     -23.9217      2.00000
     25       2.0182      2.00000
     26       2.0182      2.00000
     27       3.8186      2.00000
     28       3.8186      2.00000
     29       5.6517      2.00000
     30       5.6517      2.00000
     31       6.9508      2.00000
     32       6.9508      2.00000
     33       7.4273      2.00000
     34       7.4273      2.00000
     35       7.5166      2.00000
     36       7.5166      2.00000
     37       8.4602      2.00000
     38       8.4602      2.00000
     39       8.7151      2.00000
     40       8.7151      2.00000
     41       8.9165      2.00000
     42       8.9165      2.00000
     43       9.3330      2.00000
     44       9.3330      2.00000
     45      10.5386      2.00000
     46      10.5386      2.00000
     47      11.6486      2.00000
     48      11.6486      2.00000
     49      12.2420      0.45104
     50      12.2420      0.45104
     51      12.8538      0.00000
     52      12.8538      0.00000
     53      13.7557      0.00000
     54      13.7558      0.00000
     55      14.0163      0.00000
     56      14.0164      0.00000
     57      14.2639      0.00000
     58      14.2652      0.00000
     59      14.4802      0.00000
     60      14.4809      0.00000

 k-point    55 :       0.1667    0.1667    0.4545
  band No.  band energies     occupation 
      1     -50.8732      2.00000
      2     -50.8647      2.00000
      3     -50.8486      2.00000
      4     -50.8483      2.00000
      5     -50.6184      2.00000
      6     -50.6183      2.00000
      7     -24.5448      2.00000
      8     -24.5114      2.00000
      9     -24.4952      2.00000
     10     -24.4665      2.00000
     11     -24.4632      2.00000
     12     -24.4434      2.00000
     13     -24.4309      2.00000
     14     -24.2665      2.00000
     15     -24.2635      2.00000
     16     -24.2151      2.00000
     17     -24.1831      2.00000
     18     -24.1704      2.00000
     19     -24.0213      2.00000
     20     -24.0051      2.00000
     21     -23.9709      2.00000
     22     -23.9188      2.00000
     23     -23.8936      2.00000
     24     -23.8755      2.00000
     25       1.7391      2.00000
     26       2.1377      2.00000
     27       4.0948      2.00000
     28       4.1086      2.00000
     29       5.1896      2.00000
     30       6.2087      2.00000
     31       6.4074      2.00000
     32       6.6105      2.00000
     33       6.7532      2.00000
     34       7.4436      2.00000
     35       7.8213      2.00000
     36       7.9060      2.00000
     37       8.5175      2.00000
     38       8.6890      2.00000
     39       8.7982      2.00000
     40       8.9577      2.00000
     41       9.0153      2.00000
     42       9.1515      2.00000
     43       9.5773      2.00000
     44       9.7864      2.00000
     45      10.0269      2.00000
     46      10.6998      2.00000
     47      10.9525      2.00000
     48      10.9587      2.00000
     49      11.5300      2.00000
     50      11.6944      2.00000
     51      13.6299      0.00000
     52      13.6592      0.00000
     53      13.7688      0.00000
     54      13.8425      0.00000
     55      13.9584      0.00000
     56      13.9655      0.00000
     57      13.9967      0.00000
     58      14.1957      0.00000
     59      14.2173      0.00000
     60      14.6865      0.00000

 k-point    56 :       0.3333    0.1667    0.4545
  band No.  band energies     occupation 
      1     -50.8715      2.00000
      2     -50.8666      2.00000
      3     -50.8486      2.00000
      4     -50.8483      2.00000
      5     -50.6183      2.00000
      6     -50.6183      2.00000
      7     -24.5477      2.00000
      8     -24.5205      2.00000
      9     -24.4873      2.00000
     10     -24.4659      2.00000
     11     -24.4541      2.00000
     12     -24.4408      2.00000
     13     -24.4243      2.00000
     14     -24.3102      2.00000
     15     -24.2426      2.00000
     16     -24.2085      2.00000
     17     -24.1946      2.00000
     18     -24.1768      2.00000
     19     -23.9995      2.00000
     20     -23.9793      2.00000
     21     -23.9466      2.00000
     22     -23.9417      2.00000
     23     -23.9051      2.00000
     24     -23.8938      2.00000
     25       1.8877      2.00000
     26       2.1408      2.00000
     27       3.8326      2.00000
     28       3.8757      2.00000
     29       5.3685      2.00000
     30       5.9773      2.00000
     31       6.7541      2.00000
     32       6.9174      2.00000
     33       7.0741      2.00000
     34       7.3555      2.00000
     35       7.6856      2.00000
     36       7.9391      2.00000
     37       8.3537      2.00000
     38       8.5524      2.00000
     39       8.7056      2.00000
     40       8.8033      2.00000
     41       8.8740      2.00000
     42       8.9831      2.00000
     43       9.3503      2.00000
     44       9.5577      2.00000
     45      10.1607      2.00000
     46      10.6720      2.00000
     47      11.2337      2.00000
     48      11.5682      2.00000
     49      11.8870      2.00000
     50      12.2306      1.04125
     51      13.2409      0.00000
     52      13.4120      0.00000
     53      13.6422      0.00000
     54      13.7611      0.00000
     55      13.9921      0.00000
     56      14.0413      0.00000
     57      14.1297      0.00000
     58      14.1432      0.00000
     59      14.2883      0.00000
     60      14.6810      0.00000

 k-point    57 :       0.5000    0.1667    0.4545
  band No.  band energies     occupation 
      1     -50.8691      2.00000
      2     -50.8691      2.00000
      3     -50.8484      2.00000
      4     -50.8484      2.00000
      5     -50.6183      2.00000
      6     -50.6183      2.00000
      7     -24.5393      2.00000
      8     -24.5393      2.00000
      9     -24.4692      2.00000
     10     -24.4692      2.00000
     11     -24.4544      2.00000
     12     -24.4544      2.00000
     13     -24.3711      2.00000
     14     -24.3711      2.00000
     15     -24.2165      2.00000
     16     -24.2165      2.00000
     17     -24.1902      2.00000
     18     -24.1902      2.00000
     19     -23.9764      2.00000
     20     -23.9764      2.00000
     21     -23.9379      2.00000
     22     -23.9379      2.00000
     23     -23.9147      2.00000
     24     -23.9147      2.00000
     25       2.0553      2.00000
     26       2.0553      2.00000
     27       3.7398      2.00000
     28       3.7398      2.00000
     29       5.6491      2.00000
     30       5.6491      2.00000
     31       7.0288      2.00000
     32       7.0288      2.00000
     33       7.4075      2.00000
     34       7.4075      2.00000
     35       7.5757      2.00000
     36       7.5757      2.00000
     37       8.4191      2.00000
     38       8.4191      2.00000
     39       8.6628      2.00000
     40       8.6628      2.00000
     41       8.9305      2.00000
     42       8.9305      2.00000
     43       9.3351      2.00000
     44       9.3351      2.00000
     45      10.3785      2.00000
     46      10.3785      2.00000
     47      11.7170      2.00000
     48      11.7170      2.00000
     49      12.3272      0.00000
     50      12.3272      0.00000
     51      12.9836      0.00000
     52      12.9836      0.00000
     53      13.7328      0.00000
     54      13.7330      0.00000
     55      14.0428      0.00000
     56      14.0442      0.00000
     57      14.1501      0.00000
     58      14.1546      0.00000
     59      14.7595      0.00000
     60      14.8056      0.00000

 k-point    58 :       0.3333    0.3333    0.4545
  band No.  band energies     occupation 
      1     -50.8703      2.00000
      2     -50.8674      2.00000
      3     -50.8487      2.00000
      4     -50.8484      2.00000
      5     -50.6183      2.00000
      6     -50.6183      2.00000
      7     -24.5605      2.00000
      8     -24.5446      2.00000
      9     -24.4583      2.00000
     10     -24.4561      2.00000
     11     -24.4346      2.00000
     12     -24.4314      2.00000
     13     -24.4260      2.00000
     14     -24.3457      2.00000
     15     -24.2369      2.00000
     16     -24.2044      2.00000
     17     -24.1958      2.00000
     18     -24.1768      2.00000
     19     -24.0040      2.00000
     20     -23.9739      2.00000
     21     -23.9618      2.00000
     22     -23.9191      2.00000
     23     -23.9129      2.00000
     24     -23.8967      2.00000
     25       2.0134      2.00000
     26       2.1753      2.00000
     27       3.6567      2.00000
     28       3.6812      2.00000
     29       5.4817      2.00000
     30       5.8412      2.00000
     31       6.9822      2.00000
     32       7.1453      2.00000
     33       7.2569      2.00000
     34       7.3418      2.00000
     35       7.5735      2.00000
     36       8.0638      2.00000
     37       8.1252      2.00000
     38       8.4745      2.00000
     39       8.6127      2.00000
     40       8.6519      2.00000
     41       8.9457      2.00000
     42       8.9664      2.00000
     43       9.3929      2.00000
     44       9.4092      2.00000
     45       9.9879      2.00000
     46      10.2956      2.00000
     47      11.5387      2.00000
     48      11.9126      2.00000
     49      12.1075      2.00000
     50      12.6046      0.00000
     51      13.2754      0.00000
     52      13.4997      0.00000
     53      13.6214      0.00000
     54      13.7250      0.00000
     55      13.8605      0.00000
     56      14.0066      0.00000
     57      14.0574      0.00000
     58      14.1602      0.00000
     59      14.2053      0.00000
     60      14.8759      0.00000

 k-point    59 :       0.5000    0.3333    0.4545
  band No.  band energies     occupation 
      1     -50.8688      2.00000
      2     -50.8688      2.00000
      3     -50.8486      2.00000
      4     -50.8486      2.00000
      5     -50.6183      2.00000
      6     -50.6183      2.00000
      7     -24.5595      2.00000
      8     -24.5595      2.00000
      9     -24.4489      2.00000
     10     -24.4489      2.00000
     11     -24.4307      2.00000
     12     -24.4307      2.00000
     13     -24.3918      2.00000
     14     -24.3918      2.00000
     15     -24.2194      2.00000
     16     -24.2194      2.00000
     17     -24.1846      2.00000
     18     -24.1846      2.00000
     19     -23.9957      2.00000
     20     -23.9957      2.00000
     21     -23.9361      2.00000
     22     -23.9361      2.00000
     23     -23.9030      2.00000
     24     -23.9030      2.00000
     25       2.1394      2.00000
     26       2.1394      2.00000
     27       3.5750      2.00000
     28       3.5750      2.00000
     29       5.6589      2.00000
     30       5.6589      2.00000
     31       7.1380      2.00000
     32       7.1380      2.00000
     33       7.4091      2.00000
     34       7.4091      2.00000
     35       7.6927      2.00000
     36       7.6927      2.00000
     37       8.3180      2.00000
     38       8.3180      2.00000
     39       8.5444      2.00000
     40       8.5444      2.00000
     41       9.0729      2.00000
     42       9.0729      2.00000
     43       9.3289      2.00000
     44       9.3289      2.00000
     45       9.9819      2.00000
     46       9.9819      2.00000
     47      11.8332      2.00000
     48      11.8332      2.00000
     49      12.6459      0.00000
     50      12.6459      0.00000
     51      13.2016      0.00000
     52      13.2016      0.00000
     53      13.7311      0.00000
     54      13.7311      0.00000
     55      14.0032      0.00000
     56      14.0033      0.00000
     57      14.1649      0.00000
     58      14.1649      0.00000
     59      14.2484      0.00000
     60      14.2485      0.00000

 k-point    60 :       0.5000    0.5000    0.4545
  band No.  band energies     occupation 
      1     -50.8687      2.00000
      2     -50.8687      2.00000
      3     -50.8488      2.00000
      4     -50.8488      2.00000
      5     -50.6183      2.00000
      6     -50.6183      2.00000
      7     -24.5669      2.00000
      8     -24.5669      2.00000
      9     -24.4269      2.00000
     10     -24.4269      2.00000
     11     -24.4256      2.00000
     12     -24.4256      2.00000
     13     -24.4100      2.00000
     14     -24.4100      2.00000
     15     -24.2184      2.00000
     16     -24.2184      2.00000
     17     -24.1844      2.00000
     18     -24.1844      2.00000
     19     -24.0034      2.00000
     20     -24.0034      2.00000
     21     -23.9359      2.00000
     22     -23.9359      2.00000
     23     -23.8983      2.00000
     24     -23.8983      2.00000
     25       2.1881      2.00000
     26       2.1881      2.00000
     27       3.4872      2.00000
     28       3.4872      2.00000
     29       5.6700      2.00000
     30       5.6700      2.00000
     31       7.1449      2.00000
     32       7.1449      2.00000
     33       7.4836      2.00000
     34       7.4836      2.00000
     35       7.7136      2.00000
     36       7.7136      2.00000
     37       8.3084      2.00000
     38       8.3084      2.00000
     39       8.4356      2.00000
     40       8.4356      2.00000
     41       9.2825      2.00000
     42       9.2825      2.00000
     43       9.3466      2.00000
     44       9.3466      2.00000
     45       9.6424      2.00000
     46       9.6424      2.00000
     47      11.8792      2.00000
     48      11.8792      2.00000
     49      12.9844      0.00000
     50      12.9844      0.00000
     51      13.2642      0.00000
     52      13.2642      0.00000
     53      13.6710      0.00000
     54      13.6710      0.00000
     55      13.8863      0.00000
     56      13.8863      0.00000
     57      14.0095      0.00000
     58      14.0095      0.00000
     59      14.2325      0.00000
     60      14.2326      0.00000


--------------------------------------------------------------------------------------------------------


 soft charge-density along one line, spin component           1
         0         1         2         3         4         5         6         7         8         9
 total charge-density along one line
 
 pseudopotential strength for first ion, spin component:           1
 -4.880  10.383  -0.000   0.000  -0.000  -0.000  -0.000  -0.000
 10.383   3.490  -0.000  -0.000  -0.000   0.000   0.000   0.000
 -0.000  -0.000 -16.911   0.000  -0.000   7.434  -0.000   0.000
  0.000  -0.000   0.000 -16.947   0.000  -0.000   7.477  -0.000
 -0.000  -0.000  -0.000   0.000 -16.911   0.000  -0.000   7.434
 -0.000   0.000   7.434  -0.000   0.000   6.961   0.000  -0.000
 -0.000   0.000  -0.000   7.477  -0.000   0.000   6.930   0.000
 -0.000   0.000   0.000  -0.000   7.434  -0.000   0.000   6.961
 -0.000   0.000  -0.000  -0.000  -0.000  -0.000   0.000  -0.000
  0.000  -0.000   0.000   0.000  -0.000  -0.000   0.000   0.000
 -0.023   0.012   0.000   0.000   0.000   0.000  -0.000   0.000
  0.000  -0.000  -0.000   0.000   0.000   0.000   0.000  -0.000
  0.000   0.000   0.000  -0.000  -0.000   0.000   0.000  -0.000
 -0.000   0.000  -0.000  -0.000  -0.000  -0.000   0.000  -0.000
  0.000  -0.000   0.000   0.000  -0.000  -0.000   0.000   0.000
 -0.024   0.012   0.000   0.000   0.000   0.000  -0.000   0.000
  0.000  -0.000  -0.000   0.000   0.000   0.000   0.000  -0.000
  0.000   0.000   0.000  -0.000  -0.000   0.000   0.000  -0.000
 total augmentation occupancy for first ion, spin component:           1
  1.996  -0.026   0.000   0.000   0.000   0.000   0.000   0.000   0.000   0.000   0.074   0.000   0.000   0.000  -0.000  -0.067
 -0.026   1.175   0.000   0.000   0.000   0.000   0.000   0.000   0.000  -0.000   0.507   0.000   0.000   0.000   0.000  -0.495
  0.000   0.000   1.999   0.000  -0.000  -0.034   0.000  -0.000   0.000   0.000   0.000   0.000   0.000   0.000   0.000   0.000
  0.000   0.000   0.000   1.999   0.000   0.000  -0.037   0.000   0.000   0.000   0.000   0.000   0.000   0.000   0.000   0.000
  0.000   0.000   0.000   0.000   1.999   0.000   0.000  -0.034   0.000   0.000   0.000   0.000   0.000   0.000   0.000   0.000
  0.000   0.000  -0.034   0.000   0.000   0.097   0.000  -0.000   0.000   0.000   0.000   0.000   0.000   0.000   0.000   0.000
  0.000   0.000   0.000  -0.037   0.000   0.000   0.088   0.000   0.000   0.000   0.000   0.000   0.000   0.000   0.000   0.000
  0.000   0.000  -0.000   0.000  -0.034   0.000  -0.000   0.097   0.000   0.000   0.000   0.000   0.000   0.000   0.000   0.000
  0.000   0.000   0.000   0.000   0.000   0.000   0.000   0.000   2.423   0.000   0.000   0.000  -0.969  -2.844  -0.000   0.000
  0.000   0.000   0.000   0.000   0.000   0.000   0.000   0.000   0.000   0.985   0.000   0.000   0.000  -0.000  -1.234  -0.000
  0.074   0.507   0.000   0.000   0.000   0.000   0.000   0.000   0.000   0.000   1.533  -0.000   0.000   0.000  -0.000  -1.827
 -0.000  -0.000   0.000   0.000   0.000   0.000   0.000   0.000   0.000  -0.000  -0.000   0.985  -0.000   0.000  -0.000   0.000
  0.000   0.000   0.000   0.000   0.000   0.000   0.000   0.000  -0.969  -0.000   0.000  -0.000   2.743   0.903   0.000   0.000
  0.000   0.000   0.000   0.000   0.000   0.000   0.000   0.000  -2.844   0.000   0.000   0.000   0.903   4.089   0.000   0.000
  0.000   0.000   0.000   0.000   0.000   0.000   0.000   0.000  -0.000  -1.234   0.000  -0.000   0.000  -0.000   2.289   0.000
 -0.067  -0.495   0.000   0.000   0.000   0.000   0.000   0.000   0.000   0.000  -1.827  -0.000   0.000   0.000   0.000   2.731
  0.000  -0.000   0.000   0.000   0.000   0.000   0.000   0.000   0.000   0.000   0.000  -1.234   0.000  -0.000  -0.000   0.000
  0.000   0.000   0.000   0.000   0.000   0.000   0.000   0.000   0.903   0.000   0.000   0.000  -3.129  -0.936   0.000   0.000


------------------------ aborting loop because EDIFF is reached ----------------------------------------




--------------------------------------------------------------------------------------------------------



  FREE ENERGIE OF THE ION-ELECTRON SYSTEM (eV)
  ---------------------------------------------------
  free  energy   TOTEN  =      -194.05497940 eV

  energy  without entropy=     -194.05234661  energy(sigma->0) =     -194.05366301
 


--------------------------------------------------------------------------------------------------------


    POTLOK:  cpu time    0.6284: real time    0.6326


--------------------------------------------------------------------------------------------------------


 writing wavefunctions
     LOOP+:  cpu time  509.7445: real time  514.3023
    4ORBIT:  cpu time    0.0000: real time    0.0000

 total amount of memory used by VASP MPI-rank0   161189. kBytes
=======================================================================

   base      :      30000. kBytes
   nonl-proj :      42693. kBytes
   fftplans  :       9304. kBytes
   grid      :       6539. kBytes
   one-center:         77. kBytes
   wavefun   :      72576. kBytes
 
  
  
 General timing and accounting informations for this job:
 ========================================================
  
                  Total CPU time used (sec):      512.530
                            User time (sec):      510.006
                          System time (sec):        2.524
                         Elapsed time (sec):      517.895
  
                   Maximum memory used (kb):      362360.
                   Average memory used (kb):          N/A
  
                          Minor page faults:       599773
                          Major page faults:           49
                 Voluntary context switches:         1117
