 vasp.6.2.0 18Jan21 (build Jan 05 2022 15:41:44) complex                        
  
 executed on             LinuxIFC date 2025.05.07  17:32:45
 running on   24 total cores
 distrk:  each k-point on   12 cores,    2 groups
 distr:  one band on NCORE=   2 cores,    6 groups


--------------------------------------------------------------------------------------------------------


 INCAR:
   SYSTEM = routine with relax: pwdword
   ICHARG = 2
   NPAR = 6
   KPAR = 2
   NCORE = 2
   ADDGRID = T
   PREC = Acc
   ENCUT = 600
   METAGGA = R2SCAN
   LASPH = .TRUE.
   LMIXTAU = .FALSE.
   ALGO = A
   EDIFF = 1E-9
   NELM = 100
   NELMIN = 6
   IALGO = 38
   LREAL = F
   NSW = 0
   ISIF = -1
   ISMEAR = 0
   SIGMA = 0.02

 POTCAR:    PAW_PBE B 06Sep2000                   
 POTCAR:    PAW_PBE Mo_sv 02Feb2006               
 POTCAR:    PAW_PBE Si 05Jan2001                  
 -----------------------------------------------------------------------------
|                                                                             |
|           W    W    AA    RRRRR   N    N  II  N    N   GGGG   !!!           |
|           W    W   A  A   R    R  NN   N  II  NN   N  G    G  !!!           |
|           W    W  A    A  R    R  N N  N  II  N N  N  G       !!!           |
|           W WW W  AAAAAA  RRRRR   N  N N  II  N  N N  G  GGG   !            |
|           WW  WW  A    A  R   R   N   NN  II  N   NN  G    G                |
|           W    W  A    A  R    R  N    N  II  N    N   GGGG   !!!           |
|                                                                             |
|     For optimal performance we recommend to set                             |
|       NCORE = 2 up to number-of-cores-per-socket                            |
|     NCORE specifies how many cores store one orbital (NPAR=cpu/NCORE).      |
|     This setting can greatly improve the performance of VASP for DFT.       |
|     The default, NCORE=1 might be grossly inefficient on modern             |
|     multi-core architectures or massively parallel machines. Do your        |
|     own testing! More info at https://www.vasp.at/wiki/index.php/NCORE      |
|     Unfortunately you need to use the default for GW and RPA                |
|     calculations (for HF NCORE is supported but not extensively tested      |
|     yet).                                                                   |
|                                                                             |
 -----------------------------------------------------------------------------

 POTCAR:    PAW_PBE B 06Sep2000                   
   VRHFIN =B: s2p1                                                                                  
   LEXCH  = PE                                                                                      
   EATOM  =    71.1703 eV,    5.2309 Ry                                                             
                                                                                                    
   TITEL  = PAW_PBE B 06Sep2000                                                                     
   LULTRA =        F    use ultrasoft PP ?                                                          
   IUNSCR =        1    unscreen: 0-lin 1-nonlin 2-no                                               
   RPACOR =    1.200    partial core radius                                                         
   POMASS =   10.811; ZVAL   =    3.000    mass and valenz                                          
   RCORE  =    1.700    outmost cutoff radius                                                       
   RWIGS  =    1.710; RWIGS  =    0.905    wigner-seitz radius (au A)                               
   ENMAX  =  318.614; ENMIN  =  238.960 eV                                                          
   ICORE  =        2    local potential                                                             
   LCOR   =        T    correct aug charges                                                         
   LPAW   =        T    paw PP                                                                      
   EAUG   =  535.514                                                                                
   DEXC   =    0.000                                                                                
   RMAX   =    1.732    core radius for proj-oper                                                   
   RAUG   =    1.300    factor for augmentation sphere                                              
   RDEP   =    1.757    radius for radial grids                                                     
   RDEPT  =    1.436    core radius for aug-charge                                                  
                                                                                                    
   Atomic configuration                                                                             
    4 entries                                                                                       
     n  l   j            E        occ.                                                              
     1  0  0.50      -180.5896   2.0000                                                             
     2  0  0.50        -9.4431   2.0000                                                             
     2  1  0.50        -3.6068   1.0000                                                             
     3  2  1.50        -4.0817   0.0000                                                             
   Description                                                                                      
     l       E           TYP  RCUT    TYP  RCUT                                                     
     0     -9.4430752     23  1.500                                                                 
     0      0.8675899     23  1.500                                                                 
     1     -3.6067955     23  1.700                                                                 
     1      6.1086146     23  1.700                                                                 
     2     -4.0817478      7  1.700                                                                 
  local pseudopotential read in
  partial core-charges read in
  partial kinetic energy density read in
  atomic valenz-charges read in
  non local Contribution for L=           0  read in
    real space projection operators read in
  non local Contribution for L=           0  read in
    real space projection operators read in
  non local Contribution for L=           1  read in
    real space projection operators read in
  non local Contribution for L=           1  read in
    real space projection operators read in
    PAW grid and wavefunctions read in
 
   number of l-projection  operators is LMAX  =           4
   number of lm-projection operators is LMMAX =           8
 
 POTCAR:    PAW_PBE Mo_sv 02Feb2006               
   VRHFIN =Mo: 4p5s4d                                                                               
   LEXCH  = PE                                                                                      
   EATOM  =  1862.2866 eV,  136.8742 Ry                                                             
                                                                                                    
   TITEL  = PAW_PBE Mo_sv 02Feb2006                                                                 
   LULTRA =        F    use ultrasoft PP ?                                                          
   IUNSCR =        1    unscreen: 0-lin 1-nonlin 2-no                                               
   RPACOR =    2.200    partial core radius                                                         
   POMASS =   95.940; ZVAL   =   14.000    mass and valenz                                          
   RCORE  =    2.500    outmost cutoff radius                                                       
   RWIGS  =    2.750; RWIGS  =    1.455    wigner-seitz radius (au A)                               
   ENMAX  =  242.676; ENMIN  =  182.007 eV                                                          
   ICORE  =        3    local potential                                                             
   LCOR   =        T    correct aug charges                                                         
   LPAW   =        T    paw PP                                                                      
   EAUG   =  446.014                                                                                
   DEXC   =    0.000                                                                                
   RMAX   =    2.563    core radius for proj-oper                                                   
   RAUG   =    1.300    factor for augmentation sphere                                              
   RDEP   =    2.641    radius for radial grids                                                     
   RDEPT  =    2.031    core radius for aug-charge                                                  
                                                                                                    
   Atomic configuration                                                                             
   11 entries                                                                                       
     n  l   j            E        occ.                                                              
     1  0  0.50    -19819.0341   2.0000                                                             
     2  0  0.50     -2799.0127   2.0000                                                             
     2  1  1.50     -2502.0276   6.0000                                                             
     3  0  0.50      -476.4449   2.0000                                                             
     3  1  1.50      -379.1496   6.0000                                                             
     3  2  2.50      -220.9367  10.0000                                                             
     4  0  0.50       -64.3378   2.0000                                                             
     5  0  0.50        -4.0862   1.0000                                                             
     4  1  1.50       -38.4773   6.0000                                                             
     4  2  2.50        -3.7535   5.0000                                                             
     4  3  2.50        -1.3606   0.0000                                                             
   Description                                                                                      
     l       E           TYP  RCUT    TYP  RCUT                                                     
     0    -64.3377829     23  2.100                                                                 
     0     -4.0861640     23  2.400                                                                 
     1    -38.4772993     23  2.100                                                                 
     1     13.6058260     23  2.100                                                                 
     2     -3.7534941     23  2.400                                                                 
     2     -5.1140767     23  2.400                                                                 
     3     -4.0817478     23  2.500                                                                 
  local pseudopotential read in
  partial core-charges read in
  partial kinetic energy density read in
  atomic valenz-charges read in
  non local Contribution for L=           0  read in
    real space projection operators read in
  non local Contribution for L=           0  read in
    real space projection operators read in
  non local Contribution for L=           1  read in
    real space projection operators read in
  non local Contribution for L=           1  read in
    real space projection operators read in
  non local Contribution for L=           2  read in
    real space projection operators read in
  non local Contribution for L=           2  read in
    real space projection operators read in
    PAW grid and wavefunctions read in
 
   number of l-projection  operators is LMAX  =           6
   number of lm-projection operators is LMMAX =          18
 
 POTCAR:    PAW_PBE Si 05Jan2001                  
   VRHFIN =Si: s2p2                                                                                 
   LEXCH  = PE                                                                                      
   EATOM  =   103.0669 eV,    7.5752 Ry                                                             
                                                                                                    
   TITEL  = PAW_PBE Si 05Jan2001                                                                    
   LULTRA =        F    use ultrasoft PP ?                                                          
   IUNSCR =        1    unscreen: 0-lin 1-nonlin 2-no                                               
   RPACOR =    1.500    partial core radius                                                         
   POMASS =   28.085; ZVAL   =    4.000    mass and valenz                                          
   RCORE  =    1.900    outmost cutoff radius                                                       
   RWIGS  =    2.480; RWIGS  =    1.312    wigner-seitz radius (au A)                               
   ENMAX  =  245.345; ENMIN  =  184.009 eV                                                          
   ICORE  =        2    local potential                                                             
   LCOR   =        T    correct aug charges                                                         
   LPAW   =        T    paw PP                                                                      
   EAUG   =  322.069                                                                                
   DEXC   =    0.000                                                                                
   RMAX   =    1.950    core radius for proj-oper                                                   
   RAUG   =    1.300    factor for augmentation sphere                                              
   RDEP   =    1.993    radius for radial grids                                                     
   RDEPT  =    1.837    core radius for aug-charge                                                  
                                                                                                    
   Atomic configuration                                                                             
    6 entries                                                                                       
     n  l   j            E        occ.                                                              
     1  0  0.50     -1785.8828   2.0000                                                             
     2  0  0.50      -139.4969   2.0000                                                             
     2  1  1.50       -95.5546   6.0000                                                             
     3  0  0.50       -10.8127   2.0000                                                             
     3  1  0.50        -4.0811   2.0000                                                             
     3  2  1.50        -4.0817   0.0000                                                             
   Description                                                                                      
     l       E           TYP  RCUT    TYP  RCUT                                                     
     0    -10.8127223     23  1.900                                                                 
     0     -7.6451159     23  1.900                                                                 
     1     -4.0811372     23  1.900                                                                 
     1      2.4879257     23  1.900                                                                 
     2     -4.0817478      7  1.900                                                                 
  local pseudopotential read in
  partial core-charges read in
  partial kinetic energy density read in
  atomic valenz-charges read in
  non local Contribution for L=           0  read in
    real space projection operators read in
  non local Contribution for L=           0  read in
    real space projection operators read in
  non local Contribution for L=           1  read in
    real space projection operators read in
  non local Contribution for L=           1  read in
    real space projection operators read in
    PAW grid and wavefunctions read in
 
   number of l-projection  operators is LMAX  =           4
   number of lm-projection operators is LMMAX =           8
 
  PAW_PBE B 06Sep2000                   :
 energy of atom  1       EATOM=  -71.1703
 kinetic energy error for atom=    0.0007 (will be added to EATOM!!)
  PAW_PBE Mo_sv 02Feb2006               :
 energy of atom  2       EATOM=-1862.2866
 kinetic energy error for atom=    0.0041 (will be added to EATOM!!)
  PAW_PBE Si 05Jan2001                  :
 energy of atom  3       EATOM= -103.0669
 kinetic energy error for atom=    0.0003 (will be added to EATOM!!)
 
 
 POSCAR: EA125
  positions in direct lattice
  No initial velocities read in

 METAGGA = R2SCA    LMAXTAU =  6    LMIXTAU =  F

 exchange correlation table for  LEXCH =        8
   RHO(1)=    0.500       N(1)  =     2000
   RHO(2)=  100.500       N(2)  =     4000
 


--------------------------------------------------------------------------------------------------------


 ion  position               nearest neighbor table
   1  0.750  0.911  0.161-   3 1.69   7 1.69   9 1.97  11 1.97  10 2.40  14 2.40  16 2.52
   2  0.250  0.089  0.839-   4 1.69   8 1.69   9 1.97  11 1.97  10 2.40  14 2.40  15 2.52
   3  0.911  0.750  0.161-   1 1.69   5 1.69  12 1.97  11 1.97  10 2.40  14 2.40  15 2.52
   4  0.089  0.250  0.839-   2 1.69   6 1.69  12 1.97  11 1.97  10 2.40  14 2.40  16 2.52
   5  0.750  0.589  0.839-   7 1.69   3 1.69  12 1.97  13 1.97  14 2.40  10 2.40  16 2.52
   6  0.250  0.411  0.161-   8 1.69   4 1.69  12 1.97  13 1.97  14 2.40  10 2.40  15 2.52
   7  0.589  0.750  0.839-   5 1.69   1 1.69   9 1.97  13 1.97  14 2.40  10 2.40  15 2.52
   8  0.411  0.250  0.161-   6 1.69   2 1.69   9 1.97  13 1.97  14 2.40  10 2.40  16 2.52
   9  0.500  0.000  0.000-   1 1.97   2 1.97   7 1.97   8 1.97  16 2.62  15 2.62  10 3.35  10 3.35
                            14 3.35  14 3.35
  10  0.000  0.000  0.000-   1 2.40   2 2.40   3 2.40   4 2.40   7 2.40   8 2.40   5 2.40   6 2.40
                             9 3.35  11 3.35  11 3.35   9 3.35  12 3.35  12 3.35  13 3.35  13 3.35
  11  0.000  0.000  0.500-   1 1.97   2 1.97   3 1.97   4 1.97  15 2.62  16 2.62  10 3.35  10 3.35
                            14 3.35  14 3.35
  12  0.000  0.500  0.000-   5 1.97   6 1.97   3 1.97   4 1.97  15 2.62  16 2.62  14 3.35  14 3.35
                            10 3.35  10 3.35
  13  0.500  0.500  0.500-   5 1.97   6 1.97   7 1.97   8 1.97  15 2.62  16 2.62  14 3.35  14 3.35
                            10 3.35  10 3.35
  14  0.500  0.500  0.000-   5 2.40   6 2.40   7 2.40   8 2.40   3 2.40   4 2.40   1 2.40   2 2.40
                            12 3.35  13 3.35  13 3.35  12 3.35   9 3.35   9 3.35  11 3.35  11 3.35
  15  0.250  0.750  0.500-   2 2.52   3 2.52   6 2.52   7 2.52  11 2.62  13 2.62   9 2.62  12 2.62

  16  0.750  0.250  0.500-   1 2.52   4 2.52   5 2.52   8 2.52  11 2.62  13 2.62  12 2.62   9 2.62

 
  LATTYP: Found a base centered monoclinic cell.
 ALAT       =     8.3222874410
 B/A-ratio  =     1.2599007154
 C/A-ratio  =     0.8042620550
 COS(beta)  =    -0.6216714281
  
  Lattice vectors:
  
 A1 = (   6.1732000381,   0.0000000000,  -2.5868641594)
 A2 = (  -2.7314677703,   5.5360168470,  -2.5868641594)
 A3 = (   0.0000000000,   0.0000000000,   6.6933000000)


Analysis of symmetry for initial positions (statically):
=====================================================================
 Subroutine PRICEL returns following result:
 
  LATTYP: Found a simple monoclinic cell.
 ALAT       =     4.1611437205
 B/A-ratio  =     1.2599007154
 C/A-ratio  =     1.2599217640
 COS(beta)  =    -0.0000210484
  
  Lattice vectors:
  
 A1 = (   1.7208661339,   2.7680084235,  -2.5868641594)
 A2 = (   4.4523339042,  -2.7680084235,   0.0000000000)
 A3 = (  -1.7208661339,  -2.7680084235,  -4.1064358406)
 
   2 primitive cells build up your supercell.
 

 Routine SETGRP: Setting up the symmetry group for a 
 base centered monoclinic supercell.


 Subroutine GETGRP returns: Found  4 space group operations
 (whereof  4 operations were pure point group operations)
 out of a pool of  4 trial point group operations.


The static configuration has the point symmetry C_2h.


Analysis of symmetry for dynamics (positions and initial velocities):
=====================================================================
 Subroutine PRICEL returns following result:
 
  LATTYP: Found a simple monoclinic cell.
 ALAT       =     4.1611437205
 B/A-ratio  =     1.2599007154
 C/A-ratio  =     1.2599217640
 COS(beta)  =    -0.0000210484
  
  Lattice vectors:
  
 A1 = (   1.7208661339,   2.7680084235,  -2.5868641594)
 A2 = (   4.4523339042,  -2.7680084235,   0.0000000000)
 A3 = (  -1.7208661339,  -2.7680084235,  -4.1064358406)
 
   2 primitive cells build up your supercell.
 

 Routine SETGRP: Setting up the symmetry group for a 
 base centered monoclinic supercell.


 Subroutine GETGRP returns: Found  4 space group operations
 (whereof  4 operations were pure point group operations)
 out of a pool of  4 trial point group operations.


The dynamic configuration has the point symmetry C_2h.


 Subroutine INISYM returns: Found  4 space group operations
 (whereof  4 operations are pure point group operations),
 and found     2 'primitive' translations


----------------------------------------------------------------------------------------

                                     Primitive cell                                     

  volume of cell :     114.3716

  direct lattice vectors                    reciprocal lattice vectors
     1.720866134  2.768008424 -2.586864159     0.099383526  0.159858127 -0.149403134
     4.452333904 -2.768008424  0.000000000     0.161990539 -0.100709243  0.000000000
    -1.720866134 -2.768008424 -4.106435841    -0.062607013 -0.100703207 -0.149403134

  length of vectors
     4.161143721  5.242627950  5.242715536     0.240318544  0.190744033  0.190740847

  position of ions in fractional coordinates (direct lattice)
     0.500000000  0.839220000  0.839220000
     0.500000000  0.160780000  0.160780000
     0.500000000  0.160780000  0.839220000
     0.500000000  0.839220000  0.160780000
     0.500000000  0.500000000  0.000000000
     0.000000000  0.000000000  0.000000000
     0.500000000  0.000000000  0.500000000
     0.500000000  0.500000000  0.500000000

  ion indices of the primitive-cell ions
   primitive index   ion index
                 1           1
                 2           5
                 3           3
                 4           7
                 5           9
                 6          10
                 7          11
                 8          16

----------------------------------------------------------------------------------------

 
 
 KPOINTS: EA                                      

Automatic generation of k-mesh.
 Grid dimensions read from file:
 generate k-points for:    7    7    7

 Generating k-lattice:

  Cartesian coordinates                     Fractional coordinates (reciprocal lattice)
     0.023141506  0.011418007  0.000000000     0.142857143  0.000000000  0.000000000
     0.000000000  0.025805041  0.000000000     0.000000000  0.142857143  0.000000000
     0.008943859  0.014386172  0.021343305     0.000000000  0.000000000  0.142857143

  Length of vectors
     0.025805041  0.025805041  0.027248692

  Shift w.r.t. Gamma in fractional coordinates (k-lattice)
     0.000000000  0.000000000  0.000000000

 
 Subroutine IBZKPT returns following result:
 ===========================================
 
 Found    100 irreducible k-points:
 
 Following reciprocal coordinates:
            Coordinates               Weight
  0.000000  0.000000  0.000000      1.000000
  0.142857 -0.000000  0.000000      4.000000
  0.285714  0.000000  0.000000      4.000000
  0.428571 -0.000000  0.000000      4.000000
  0.142857  0.142857  0.000000      2.000000
  0.285714  0.142857  0.000000      4.000000
  0.428571  0.142857  0.000000      4.000000
 -0.428571  0.142857  0.000000      4.000000
 -0.285714  0.142857  0.000000      4.000000
 -0.142857  0.142857  0.000000      2.000000
  0.285714  0.285714  0.000000      2.000000
  0.428571  0.285714  0.000000      4.000000
 -0.428571  0.285714  0.000000      4.000000
 -0.285714  0.285714  0.000000      2.000000
  0.428571  0.428571  0.000000      2.000000
 -0.428571  0.428571  0.000000      2.000000
 -0.000000 -0.000000  0.142857      2.000000
  0.142857 -0.000000  0.142857      4.000000
  0.285714  0.000000  0.142857      4.000000
  0.428571 -0.000000  0.142857      4.000000
 -0.428571  0.000000  0.142857      4.000000
 -0.285714  0.000000  0.142857      4.000000
 -0.142857  0.000000  0.142857      4.000000
  0.142857  0.142857  0.142857      2.000000
  0.285714  0.142857  0.142857      4.000000
  0.428571  0.142857  0.142857      4.000000
 -0.428571  0.142857  0.142857      4.000000
 -0.285714  0.142857  0.142857      4.000000
 -0.142857  0.142857  0.142857      4.000000
  0.285714  0.285714  0.142857      2.000000
  0.428571  0.285714  0.142857      4.000000
 -0.428571  0.285714  0.142857      4.000000
 -0.285714  0.285714  0.142857      4.000000
 -0.142857  0.285714  0.142857      4.000000
  0.428571  0.428571  0.142857      2.000000
 -0.428571  0.428571  0.142857      4.000000
 -0.285714  0.428571  0.142857      4.000000
 -0.142857  0.428571  0.142857      4.000000
 -0.428571 -0.428571  0.142857      2.000000
 -0.285714 -0.428571  0.142857      4.000000
 -0.142857 -0.428571  0.142857      4.000000
 -0.285714 -0.285714  0.142857      2.000000
 -0.142857 -0.285714  0.142857      4.000000
 -0.142857 -0.142857  0.142857      2.000000
 -0.000000 -0.000000  0.285714      2.000000
  0.142857  0.000000  0.285714      4.000000
  0.285714 -0.000000  0.285714      4.000000
  0.428571  0.000000  0.285714      4.000000
 -0.428571  0.000000  0.285714      4.000000
 -0.285714 -0.000000  0.285714      4.000000
 -0.142857 -0.000000  0.285714      4.000000
  0.142857  0.142857  0.285714      2.000000
  0.285714  0.142857  0.285714      4.000000
  0.428571  0.142857  0.285714      4.000000
 -0.428571  0.142857  0.285714      4.000000
 -0.285714  0.142857  0.285714      4.000000
 -0.142857  0.142857  0.285714      4.000000
  0.285714  0.285714  0.285714      2.000000
  0.428571  0.285714  0.285714      4.000000
 -0.428571  0.285714  0.285714      4.000000
 -0.285714  0.285714  0.285714      4.000000
 -0.142857  0.285714  0.285714      4.000000
  0.428571  0.428571  0.285714      2.000000
 -0.428571  0.428571  0.285714      4.000000
 -0.285714  0.428571  0.285714      4.000000
 -0.142857  0.428571  0.285714      4.000000
 -0.428571 -0.428571  0.285714      2.000000
 -0.285714 -0.428571  0.285714      4.000000
 -0.142857 -0.428571  0.285714      4.000000
 -0.285714 -0.285714  0.285714      2.000000
 -0.142857 -0.285714  0.285714      4.000000
 -0.142857 -0.142857  0.285714      2.000000
  0.000000  0.000000  0.428571      2.000000
  0.142857  0.000000  0.428571      4.000000
  0.285714  0.000000  0.428571      4.000000
  0.428571 -0.000000  0.428571      4.000000
 -0.428571  0.000000  0.428571      4.000000
 -0.285714  0.000000  0.428571      4.000000
 -0.142857  0.000000  0.428571      4.000000
  0.142857  0.142857  0.428571      2.000000
  0.285714  0.142857  0.428571      4.000000
  0.428571  0.142857  0.428571      4.000000
 -0.428571  0.142857  0.428571      4.000000
 -0.285714  0.142857  0.428571      4.000000
 -0.142857  0.142857  0.428571      4.000000
  0.285714  0.285714  0.428571      2.000000
  0.428571  0.285714  0.428571      4.000000
 -0.428571  0.285714  0.428571      4.000000
 -0.285714  0.285714  0.428571      4.000000
 -0.142857  0.285714  0.428571      4.000000
  0.428571  0.428571  0.428571      2.000000
 -0.428571  0.428571  0.428571      4.000000
 -0.285714  0.428571  0.428571      4.000000
 -0.142857  0.428571  0.428571      4.000000
 -0.428571 -0.428571  0.428571      2.000000
 -0.285714 -0.428571  0.428571      4.000000
 -0.142857 -0.428571  0.428571      4.000000
 -0.285714 -0.285714  0.428571      2.000000
 -0.142857 -0.285714  0.428571      4.000000
 -0.142857 -0.142857  0.428571      2.000000
 
 Following cartesian coordinates:
            Coordinates               Weight
  0.000000  0.000000  0.000000      1.000000
  0.023142  0.011418  0.000000      4.000000
  0.046283  0.022836  0.000000      4.000000
  0.069425  0.034254  0.000000      4.000000
  0.023142  0.037223  0.000000      2.000000
  0.046283  0.048641  0.000000      4.000000
  0.069425  0.060059  0.000000      4.000000
 -0.069425 -0.008449  0.000000      4.000000
 -0.046283  0.002969  0.000000      4.000000
 -0.023142  0.014387  0.000000      2.000000
  0.046283  0.074446  0.000000      2.000000
  0.069425  0.085864  0.000000      4.000000
 -0.069425  0.017356  0.000000      4.000000
 -0.046283  0.028774  0.000000      2.000000
  0.069425  0.111669  0.000000      2.000000
 -0.069425  0.043161  0.000000      2.000000
  0.008944  0.014386  0.021343      2.000000
  0.032085  0.025804  0.021343      4.000000
  0.055227  0.037222  0.021343      4.000000
  0.078368  0.048640  0.021343      4.000000
 -0.060481 -0.019868  0.021343      4.000000
 -0.037339 -0.008450  0.021343      4.000000
 -0.014198  0.002968  0.021343      4.000000
  0.032085  0.051609  0.021343      2.000000
  0.055227  0.063027  0.021343      4.000000
  0.078368  0.074445  0.021343      4.000000
 -0.060481  0.005937  0.021343      4.000000
 -0.037339  0.017355  0.021343      4.000000
 -0.014198  0.028773  0.021343      4.000000
  0.055227  0.088832  0.021343      2.000000
  0.078368  0.100250  0.021343      4.000000
 -0.060481  0.031742  0.021343      4.000000
 -0.037339  0.043160  0.021343      4.000000
 -0.014198  0.054578  0.021343      4.000000
  0.078368  0.126055  0.021343      2.000000
 -0.060481  0.057547  0.021343      4.000000
 -0.037339  0.068965  0.021343      4.000000
 -0.014198  0.080383  0.021343      4.000000
 -0.060481 -0.097283  0.021343      2.000000
 -0.037339 -0.085865  0.021343      4.000000
 -0.014198 -0.074447  0.021343      4.000000
 -0.037339 -0.060060  0.021343      2.000000
 -0.014198 -0.048642  0.021343      4.000000
 -0.014198 -0.022837  0.021343      2.000000
  0.017888  0.028772  0.042687      2.000000
  0.041029  0.040190  0.042687      4.000000
  0.064171  0.051608  0.042687      4.000000
  0.087312  0.063026  0.042687      4.000000
 -0.051537 -0.005482  0.042687      4.000000
 -0.028395  0.005936  0.042687      4.000000
 -0.005254  0.017354  0.042687      4.000000
  0.041029  0.065995  0.042687      2.000000
  0.064171  0.077413  0.042687      4.000000
  0.087312  0.088831  0.042687      4.000000
 -0.051537  0.020323  0.042687      4.000000
 -0.028395  0.031741  0.042687      4.000000
 -0.005254  0.043159  0.042687      4.000000
  0.064171  0.103218  0.042687      2.000000
  0.087312  0.114636  0.042687      4.000000
 -0.051537  0.046128  0.042687      4.000000
 -0.028395  0.057546  0.042687      4.000000
 -0.005254  0.068964  0.042687      4.000000
  0.087312  0.140441  0.042687      2.000000
 -0.051537  0.071933  0.042687      4.000000
 -0.028395  0.083351  0.042687      4.000000
 -0.005254  0.094769  0.042687      4.000000
 -0.051537 -0.082897  0.042687      2.000000
 -0.028395 -0.071479  0.042687      4.000000
 -0.005254 -0.060061  0.042687      4.000000
 -0.028395 -0.045674  0.042687      2.000000
 -0.005254 -0.034256  0.042687      4.000000
 -0.005254 -0.008451  0.042687      2.000000
  0.026832  0.043159  0.064030      2.000000
  0.049973  0.054577  0.064030      4.000000
  0.073115  0.065995  0.064030      4.000000
  0.096256  0.077413  0.064030      4.000000
 -0.042593  0.008904  0.064030      4.000000
 -0.019451  0.020323  0.064030      4.000000
  0.003690  0.031741  0.064030      4.000000
  0.049973  0.080382  0.064030      2.000000
  0.073115  0.091800  0.064030      4.000000
  0.096256  0.103218  0.064030      4.000000
 -0.042593  0.034710  0.064030      4.000000
 -0.019451  0.046128  0.064030      4.000000
  0.003690  0.057546  0.064030      4.000000
  0.073115  0.117605  0.064030      2.000000
  0.096256  0.129023  0.064030      4.000000
 -0.042593  0.060515  0.064030      4.000000
 -0.019451  0.071933  0.064030      4.000000
  0.003690  0.083351  0.064030      4.000000
  0.096256  0.154828  0.064030      2.000000
 -0.042593  0.086320  0.064030      4.000000
 -0.019451  0.097738  0.064030      4.000000
  0.003690  0.109156  0.064030      4.000000
 -0.042593 -0.068511  0.064030      2.000000
 -0.019451 -0.057093  0.064030      4.000000
  0.003690 -0.045675  0.064030      4.000000
 -0.019451 -0.031288  0.064030      2.000000
  0.003690 -0.019870  0.064030      4.000000
  0.003690  0.005935  0.064030      2.000000
 


--------------------------------------------------------------------------------------------------------




 Dimension of arrays:
   k-points           NKPTS =    100   k-points in BZ     NKDIM =    100   number of bands    NBANDS=     72
   number of dos      NEDOS =    301   number of ions     NIONS =     16
   non local maximal  LDIM  =      6   non local SUM 2l+1 LMDIM =     18
   total plane-waves  NPLWV = 157464
   max r-space proj   IRMAX =      1   max aug-charges    IRDMAX= 241006
   dimension x,y,z NGX =    54 NGY =   54 NGZ =   54
   dimension x,y,z NGXF=   108 NGYF=  108 NGZF=  108
   support grid    NGXF=   216 NGYF=  216 NGZF=  216
   ions per type =               8   6   2
   NGX,Y,Z   is equivalent  to a cutoff of  13.41, 13.41, 13.41 a.u.
   NGXF,Y,Z  is equivalent  to a cutoff of  26.82, 26.82, 26.82 a.u.

 SYSTEM =  routine with relax: pwdword             
 POSCAR =  EA125                                   

 Startparameter for this run:
   NWRITE =      2    write-flag & timer
   PREC   = acc       normal or accurate (medium, high low for compatibility)
   ISTART =      0    job   : 0-new  1-cont  2-samecut
   ICHARG =      2    charge: 1-file 2-atom 10-const
   ISPIN  =      1    spin polarized calculation?
   LNONCOLLINEAR =      F non collinear calculations
   LSORBIT =      F    spin-orbit coupling
   INIWAV =      1    electr: 0-lowe 1-rand  2-diag
   LASPH  =      T    aspherical Exc in radial PAW
   METAGGA=      F    non-selfconsistent MetaGGA calc.

 Electronic Relaxation 1
   ENCUT  =  600.0 eV  44.10 Ry    6.64 a.u.  13.37 13.37 13.37*2*pi/ulx,y,z
   ENINI  =  600.0     initial cutoff
   ENAUG  =  535.5 eV  augmentation charge cutoff
   NELM   =    100;   NELMIN=  6; NELMDL= -5     # of ELM steps 
   EDIFF  = 0.1E-08   stopping-criterion for ELM
   LREAL  =      F    real-space projection
   NLSPLINE    = F    spline interpolate recip. space projectors
   LCOMPAT=      F    compatible to vasp.4.4
   GGA_COMPAT  = T    GGA compatible to vasp.4.4-vasp.4.6
   LMAXPAW     = -100 max onsite density
   LMAXMIX     =    2 max onsite mixed and CHGCAR
   VOSKOWN=      0    Vosko Wilk Nusair interpolation
   ROPT   =    0.00000   0.00000   0.00000
 Ionic relaxation
   EDIFFG = 0.1E-07   stopping-criterion for IOM
   NSW    =      0    number of steps for IOM
   NBLOCK =      1;   KBLOCK =      1    inner block; outer block 
   IBRION =     -1    ionic relax: 0-MD 1-quasi-New 2-CG
   NFREE  =      0    steps in history (QN), initial steepest desc. (CG)
   ISIF   =     -1    stress and relaxation
   IWAVPR =     10    prediction:  0-non 1-charg 2-wave 3-comb
   ISYM   =      2    0-nonsym 1-usesym 2-fastsym
   LCORR  =      T    Harris-Foulkes like correction to forces

   POTIM  = 0.5000    time-step for ionic-motion
   TEIN   =    0.0    initial temperature
   TEBEG  =    0.0;   TEEND  =   0.0 temperature during run
   SMASS  =  -3.00    Nose mass-parameter (am)
   estimated Nose-frequenzy (Omega)   =  0.10E-29 period in steps = 0.13E+47 mass=  -0.102E-26a.u.
   SCALEE = 1.0000    scale energy and forces
   NPACO  =    256;   APACO  = 16.0  distance and # of slots for P.C.
   PSTRESS=    0.0 pullay stress

  Mass of Ions in am
   POMASS =  10.81 95.94 28.09
  Ionic Valenz
   ZVAL   =   3.00 14.00  4.00
  Atomic Wigner-Seitz radii
   RWIGS  =  -1.00 -1.00 -1.00
  virtual crystal weights 
   VCA    =   1.00  1.00  1.00
   NELECT =     116.0000    total number of electrons
   NUPDOWN=      -1.0000    fix difference up-down

 DOS related values:
   EMIN   =  10.00;   EMAX   =-10.00  energy-range for DOS
   EFERMI =   0.00
   ISMEAR =     0;   SIGMA  =   0.02  broadening in eV -4-tet -1-fermi 0-gaus

 Electronic relaxation 2 (details)
   IALGO  =     58    algorithm
   LDIAG  =      T    sub-space diagonalisation (order eigenvalues)
   LSUBROT=      F    optimize rotation matrix (better conditioning)
   TURBO    =      0    0=normal 1=particle mesh
   IRESTART =      0    0=no restart 2=restart with 2 vectors
   NREBOOT  =      0    no. of reboots
   NMIN     =      0    reboot dimension
   EREF     =   0.00    reference energy to select bands
   IMIX   =      4    mixing-type and parameters
     AMIX     =   0.40;   BMIX     =  1.00
     AMIX_MAG =   1.60;   BMIX_MAG =  1.00
     AMIN     =   0.10
     WC   =   100.;   INIMIX=   1;  MIXPRE=   1;  MAXMIX= -45

 Intra band minimization:
   WEIMIN = 0.0000     energy-eigenvalue tresh-hold
   EBREAK =  0.35E-11  absolut break condition
   DEPER  =   0.30     relativ break condition  

   TIME   =   0.40     timestep for ELM

  volume/ion in A,a.u.               =      14.30        96.48
  Fermi-wavevector in a.u.,A,eV,Ry     =   1.305504  2.467044 23.188956  1.704340
  Thomas-Fermi vector in A             =   2.436368
 
 Write flags
   LWAVE        =      T    write WAVECAR
   LDOWNSAMPLE  =      F    k-point downsampling of WAVECAR
   LCHARG       =      T    write CHGCAR
   LVTOT        =      F    write LOCPOT, total local potential
   LVHAR        =      F    write LOCPOT, Hartree potential only
   LELF         =      F    write electronic localiz. function (ELF)
   LORBIT       =      0    0 simple, 1 ext, 2 COOP (PROOUT), +10 PAW based schemes


 Dipole corrections
   LMONO  =      F    monopole corrections only (constant potential shift)
   LDIPOL =      F    correct potential (dipole corrections)
   IDIPOL =      0    1-x, 2-y, 3-z, 4-all directions 
   EPSILON=  1.0000000 bulk dielectric constant

 Exchange correlation treatment:
   GGA     =    --    GGA type
   LEXCH   =     8    internal setting for exchange type
   VOSKOWN=      0    Vosko Wilk Nusair interpolation
   LHFCALC =     F    Hartree Fock is set to
   LHFONE  =     F    Hartree Fock one center treatment
   AEXX    =    0.0000 exact exchange contribution

 Linear response parameters
   LEPSILON=     F    determine dielectric tensor
   LRPA    =     F    only Hartree local field effects (RPA)
   LNABLA  =     F    use nabla operator in PAW spheres
   LVEL    =     F    velocity operator in full k-point grid
   LINTERFAST=   F  fast interpolation
   KINTER  =     0    interpolate to denser k-point grid
   CSHIFT  =0.1000    complex shift for real part using Kramers Kronig
   OMEGAMAX=  -1.0    maximum frequency
   DEG_THRESHOLD= 0.2000000E-02 threshold for treating states as degnerate
   RTIME   =   -0.100 relaxation time in fs
  (WPLASMAI=    0.000 imaginary part of plasma frequency in eV, 0.658/RTIME)
   DFIELD  = 0.0000000 0.0000000 0.0000000 field for delta impulse in time
 
 Orbital magnetization related:
   ORBITALMAG=     F  switch on orbital magnetization
   LCHIMAG   =     F  perturbation theory with respect to B field
   DQ        =  0.001000  dq finite difference perturbation B field
   LLRAUG    =     F  two centre corrections for induced B field



--------------------------------------------------------------------------------------------------------


 Static calculation
 charge density and potential will be updated during run
 non-spin polarized calculation
 Conjugate gradient for all bands (Freysoldt, et al. PRB 79, 241103 (2009))
 preconditioned conjugated gradient                                        
 perform sub-space diagonalisation
    before iterative eigenvector-optimisation
 modified Broyden-mixing scheme, WC =      100.0
 initial mixing is a Kerker type mixing with AMIX =  0.4000 and BMIX =      1.0000
 Hartree-type preconditioning will be used
 using additional bands           14
 reciprocal scheme for non local part
 use partial core corrections
 no Harris-corrections to forces 
 use gradient corrections 
 use of overlap-Matrix (Vanderbilt PP)
 Gauss-broadening in eV      SIGMA  =   0.02


--------------------------------------------------------------------------------------------------------


  energy-cutoff  :      600.00
  volume of cell :      228.74
      direct lattice vectors                 reciprocal lattice vectors
     6.173200038  0.000000000 -2.586864159     0.161990539  0.079926046  0.000000000
    -2.731467770  5.536016847 -2.586864159     0.000000000  0.180635288  0.000000000
     0.000000000  0.000000000  6.693300000     0.062607013  0.100703207  0.149403134

  length of vectors
     6.693300000  6.693300000  6.693300000     0.180635288  0.180635288  0.190740847


 
 k-points in units of 2pi/SCALE and weight: EA                                      
   0.00000000  0.00000000  0.00000000       0.003
   0.02314151  0.01141801  0.00000000       0.012
   0.04628301  0.02283601  0.00000000       0.012
   0.06942452  0.03425402  0.00000000       0.012
   0.02314151  0.03722305  0.00000000       0.006
   0.04628301  0.04864105  0.00000000       0.012
   0.06942452  0.06005906  0.00000000       0.012
  -0.06942452 -0.00844898  0.00000000       0.012
  -0.04628301  0.00296903  0.00000000       0.012
  -0.02314151  0.01438703  0.00000000       0.006
   0.04628301  0.07444610  0.00000000       0.006
   0.06942452  0.08586410  0.00000000       0.012
  -0.06942452  0.01735606  0.00000000       0.012
  -0.04628301  0.02877407  0.00000000       0.006
   0.06942452  0.11166914  0.00000000       0.006
  -0.06942452  0.04316110  0.00000000       0.006
   0.00894386  0.01438617  0.02134330       0.006
   0.03208536  0.02580418  0.02134330       0.012
   0.05522687  0.03722219  0.02134330       0.012
   0.07836838  0.04864019  0.02134330       0.012
  -0.06048066 -0.01986785  0.02134330       0.012
  -0.03733915 -0.00844984  0.02134330       0.012
  -0.01419765  0.00296817  0.02134330       0.012
   0.03208536  0.05160922  0.02134330       0.006
   0.05522687  0.06302723  0.02134330       0.012
   0.07836838  0.07444523  0.02134330       0.012
  -0.06048066  0.00593719  0.02134330       0.012
  -0.03733915  0.01735520  0.02134330       0.012
  -0.01419765  0.02877321  0.02134330       0.012
   0.05522687  0.08883227  0.02134330       0.006
   0.07836838  0.10025027  0.02134330       0.012
  -0.06048066  0.03174224  0.02134330       0.012
  -0.03733915  0.04316024  0.02134330       0.012
  -0.01419765  0.05457825  0.02134330       0.012
   0.07836838  0.12605532  0.02134330       0.006
  -0.06048066  0.05754728  0.02134330       0.012
  -0.03733915  0.06896528  0.02134330       0.012
  -0.01419765  0.08038329  0.02134330       0.012
  -0.06048066 -0.09728297  0.02134330       0.006
  -0.03733915 -0.08586496  0.02134330       0.012
  -0.01419765 -0.07444696  0.02134330       0.012
  -0.03733915 -0.06005992  0.02134330       0.006
  -0.01419765 -0.04864192  0.02134330       0.012
  -0.01419765 -0.02283688  0.02134330       0.006
   0.01788772  0.02877234  0.04268661       0.006
   0.04102922  0.04019035  0.04268661       0.012
   0.06417073  0.05160836  0.04268661       0.012
   0.08731223  0.06302636  0.04268661       0.012
  -0.05153680 -0.00548167  0.04268661       0.012
  -0.02839529  0.00593633  0.04268661       0.012
  -0.00525379  0.01735434  0.04268661       0.012
   0.04102922  0.06599539  0.04268661       0.006
   0.06417073  0.07741340  0.04268661       0.012
   0.08731223  0.08883141  0.04268661       0.012
  -0.05153680  0.02032337  0.04268661       0.012
  -0.02839529  0.03174137  0.04268661       0.012
  -0.00525379  0.04315938  0.04268661       0.012
   0.06417073  0.10321844  0.04268661       0.006
   0.08731223  0.11463645  0.04268661       0.012
  -0.05153680  0.04612841  0.04268661       0.012
  -0.02839529  0.05754641  0.04268661       0.012
  -0.00525379  0.06896442  0.04268661       0.012
   0.08731223  0.14044149  0.04268661       0.006
  -0.05153680  0.07193345  0.04268661       0.012
  -0.02839529  0.08335146  0.04268661       0.012
  -0.00525379  0.09476946  0.04268661       0.012
  -0.05153680 -0.08289680  0.04268661       0.006
  -0.02839529 -0.07147879  0.04268661       0.012
  -0.00525379 -0.06006079  0.04268661       0.012
  -0.02839529 -0.04567375  0.04268661       0.006
  -0.00525379 -0.03425574  0.04268661       0.012
  -0.00525379 -0.00845070  0.04268661       0.006
   0.02683158  0.04315852  0.06402991       0.006
   0.04997308  0.05457652  0.06402991       0.012
   0.07311459  0.06599453  0.06402991       0.012
   0.09625609  0.07741254  0.06402991       0.012
  -0.04259294  0.00890450  0.06402991       0.012
  -0.01945143  0.02032250  0.06402991       0.012
   0.00369007  0.03174051  0.06402991       0.012
   0.04997308  0.08038157  0.06402991       0.006
   0.07311459  0.09179957  0.06402991       0.012
   0.09625609  0.10321758  0.06402991       0.012
  -0.04259294  0.03470954  0.06402991       0.012
  -0.01945143  0.04612755  0.06402991       0.012
   0.00369007  0.05754555  0.06402991       0.012
   0.07311459  0.11760461  0.06402991       0.006
   0.09625609  0.12902262  0.06402991       0.012
  -0.04259294  0.06051458  0.06402991       0.012
  -0.01945143  0.07193259  0.06402991       0.012
   0.00369007  0.08335059  0.06402991       0.012
   0.09625609  0.15482766  0.06402991       0.006
  -0.04259294  0.08631962  0.06402991       0.012
  -0.01945143  0.09773763  0.06402991       0.012
   0.00369007  0.10915563  0.06402991       0.012
  -0.04259294 -0.06851063  0.06402991       0.006
  -0.01945143 -0.05709262  0.06402991       0.012
   0.00369007 -0.04567461  0.06402991       0.012
  -0.01945143 -0.03128758  0.06402991       0.006
   0.00369007 -0.01986957  0.06402991       0.012
   0.00369007  0.00593547  0.06402991       0.006
 
 k-points in reciprocal lattice and weights: EA                                      
   0.00000000  0.00000000  0.00000000       0.003
   0.14285714 -0.00000000  0.00000000       0.012
   0.28571429  0.00000000  0.00000000       0.012
   0.42857143 -0.00000000  0.00000000       0.012
   0.14285714  0.14285714  0.00000000       0.006
   0.28571429  0.14285714  0.00000000       0.012
   0.42857143  0.14285714  0.00000000       0.012
  -0.42857143  0.14285714  0.00000000       0.012
  -0.28571429  0.14285714  0.00000000       0.012
  -0.14285714  0.14285714  0.00000000       0.006
   0.28571429  0.28571429  0.00000000       0.006
   0.42857143  0.28571429  0.00000000       0.012
  -0.42857143  0.28571429  0.00000000       0.012
  -0.28571429  0.28571429  0.00000000       0.006
   0.42857143  0.42857143  0.00000000       0.006
  -0.42857143  0.42857143  0.00000000       0.006
  -0.00000000 -0.00000000  0.14285714       0.006
   0.14285714 -0.00000000  0.14285714       0.012
   0.28571429  0.00000000  0.14285714       0.012
   0.42857143 -0.00000000  0.14285714       0.012
  -0.42857143  0.00000000  0.14285714       0.012
  -0.28571429  0.00000000  0.14285714       0.012
  -0.14285714  0.00000000  0.14285714       0.012
   0.14285714  0.14285714  0.14285714       0.006
   0.28571429  0.14285714  0.14285714       0.012
   0.42857143  0.14285714  0.14285714       0.012
  -0.42857143  0.14285714  0.14285714       0.012
  -0.28571429  0.14285714  0.14285714       0.012
  -0.14285714  0.14285714  0.14285714       0.012
   0.28571429  0.28571429  0.14285714       0.006
   0.42857143  0.28571429  0.14285714       0.012
  -0.42857143  0.28571429  0.14285714       0.012
  -0.28571429  0.28571429  0.14285714       0.012
  -0.14285714  0.28571429  0.14285714       0.012
   0.42857143  0.42857143  0.14285714       0.006
  -0.42857143  0.42857143  0.14285714       0.012
  -0.28571429  0.42857143  0.14285714       0.012
  -0.14285714  0.42857143  0.14285714       0.012
  -0.42857143 -0.42857143  0.14285714       0.006
  -0.28571429 -0.42857143  0.14285714       0.012
  -0.14285714 -0.42857143  0.14285714       0.012
  -0.28571429 -0.28571429  0.14285714       0.006
  -0.14285714 -0.28571429  0.14285714       0.012
  -0.14285714 -0.14285714  0.14285714       0.006
  -0.00000000 -0.00000000  0.28571429       0.006
   0.14285714  0.00000000  0.28571429       0.012
   0.28571429 -0.00000000  0.28571429       0.012
   0.42857143  0.00000000  0.28571429       0.012
  -0.42857143  0.00000000  0.28571429       0.012
  -0.28571429 -0.00000000  0.28571429       0.012
  -0.14285714 -0.00000000  0.28571429       0.012
   0.14285714  0.14285714  0.28571429       0.006
   0.28571429  0.14285714  0.28571429       0.012
   0.42857143  0.14285714  0.28571429       0.012
  -0.42857143  0.14285714  0.28571429       0.012
  -0.28571429  0.14285714  0.28571429       0.012
  -0.14285714  0.14285714  0.28571429       0.012
   0.28571429  0.28571429  0.28571429       0.006
   0.42857143  0.28571429  0.28571429       0.012
  -0.42857143  0.28571429  0.28571429       0.012
  -0.28571429  0.28571429  0.28571429       0.012
  -0.14285714  0.28571429  0.28571429       0.012
   0.42857143  0.42857143  0.28571429       0.006
  -0.42857143  0.42857143  0.28571429       0.012
  -0.28571429  0.42857143  0.28571429       0.012
  -0.14285714  0.42857143  0.28571429       0.012
  -0.42857143 -0.42857143  0.28571429       0.006
  -0.28571429 -0.42857143  0.28571429       0.012
  -0.14285714 -0.42857143  0.28571429       0.012
  -0.28571429 -0.28571429  0.28571429       0.006
  -0.14285714 -0.28571429  0.28571429       0.012
  -0.14285714 -0.14285714  0.28571429       0.006
   0.00000000  0.00000000  0.42857143       0.006
   0.14285714  0.00000000  0.42857143       0.012
   0.28571429  0.00000000  0.42857143       0.012
   0.42857143 -0.00000000  0.42857143       0.012
  -0.42857143  0.00000000  0.42857143       0.012
  -0.28571429  0.00000000  0.42857143       0.012
  -0.14285714  0.00000000  0.42857143       0.012
   0.14285714  0.14285714  0.42857143       0.006
   0.28571429  0.14285714  0.42857143       0.012
   0.42857143  0.14285714  0.42857143       0.012
  -0.42857143  0.14285714  0.42857143       0.012
  -0.28571429  0.14285714  0.42857143       0.012
  -0.14285714  0.14285714  0.42857143       0.012
   0.28571429  0.28571429  0.42857143       0.006
   0.42857143  0.28571429  0.42857143       0.012
  -0.42857143  0.28571429  0.42857143       0.012
  -0.28571429  0.28571429  0.42857143       0.012
  -0.14285714  0.28571429  0.42857143       0.012
   0.42857143  0.42857143  0.42857143       0.006
  -0.42857143  0.42857143  0.42857143       0.012
  -0.28571429  0.42857143  0.42857143       0.012
  -0.14285714  0.42857143  0.42857143       0.012
  -0.42857143 -0.42857143  0.42857143       0.006
  -0.28571429 -0.42857143  0.42857143       0.012
  -0.14285714 -0.42857143  0.42857143       0.012
  -0.28571429 -0.28571429  0.42857143       0.006
  -0.14285714 -0.28571429  0.42857143       0.012
  -0.14285714 -0.14285714  0.42857143       0.006
 
 position of ions in fractional coordinates (direct lattice) 
   0.75000000  0.91078000  0.16078000
   0.25000000  0.08922000  0.83922000
   0.91078000  0.75000000  0.16078000
   0.08922000  0.25000000  0.83922000
   0.75000000  0.58922000  0.83922000
   0.25000000  0.41078000  0.16078000
   0.58922000  0.75000000  0.83922000
   0.41078000  0.25000000  0.16078000
   0.50000000  0.00000000  0.00000000
   0.00000000  0.00000000  0.00000000
   0.00000000  0.00000000  0.50000000
   0.00000000  0.50000000  0.00000000
   0.50000000  0.50000000  0.50000000
   0.50000000  0.50000000  0.00000000
   0.25000000  0.75000000  0.50000000
   0.75000000  0.25000000  0.50000000
 
 position of ions in cartesian coordinates  (Angst):
   2.14213381  5.04209342 -3.22006348
   1.29959846  0.49392342  4.73963517
   3.57382630  4.15201264 -3.22006348
  -0.13209404  1.38400421  4.73963517
   3.02046459  3.26193185  2.15277101
   0.42126768  2.27408500 -0.63319933
   1.58877210  4.15201264  2.15277101
   1.85296017  1.38400421 -0.63319933
   3.08660002  0.00000000 -1.29343208
   0.00000000  0.00000000  0.00000000
   0.00000000  0.00000000  3.34665000
  -1.36573389  2.76800842 -1.29343208
   1.72086613  2.76800842  0.75978584
   1.72086613  2.76800842 -2.58686416
  -0.50530082  4.15201264  0.75978584
   3.94703309  1.38400421  0.75978584
 


--------------------------------------------------------------------------------------------------------


 k-point   1 :   0.0000 0.0000 0.0000  plane waves:    7605
 k-point   2 :   0.1429-0.0000 0.0000  plane waves:    7646
 k-point   3 :   0.2857 0.0000 0.0000  plane waves:    7648
 k-point   4 :   0.4286-0.0000 0.0000  plane waves:    7649
 k-point   5 :   0.1429 0.1429 0.0000  plane waves:    7648
 k-point   6 :   0.2857 0.1429 0.0000  plane waves:    7629
 k-point   7 :   0.4286 0.1429 0.0000  plane waves:    7641
 k-point   8 :  -0.4286 0.1429 0.0000  plane waves:    7639
 k-point   9 :  -0.2857 0.1429 0.0000  plane waves:    7648
 k-point  10 :  -0.1429 0.1429 0.0000  plane waves:    7617
 k-point  11 :   0.2857 0.2857 0.0000  plane waves:    7613
 k-point  12 :   0.4286 0.2857 0.0000  plane waves:    7628
 k-point  13 :  -0.4286 0.2857 0.0000  plane waves:    7645
 k-point  14 :  -0.2857 0.2857 0.0000  plane waves:    7643
 k-point  15 :   0.4286 0.4286 0.0000  plane waves:    7628
 k-point  16 :  -0.4286 0.4286 0.0000  plane waves:    7649
 k-point  17 :  -0.0000-0.0000 0.1429  plane waves:    7617
 k-point  18 :   0.1429-0.0000 0.1429  plane waves:    7648
 k-point  19 :   0.2857 0.0000 0.1429  plane waves:    7639
 k-point  20 :   0.4286-0.0000 0.1429  plane waves:    7641
 k-point  21 :  -0.4286 0.0000 0.1429  plane waves:    7629
 k-point  22 :  -0.2857 0.0000 0.1429  plane waves:    7648
 k-point  23 :  -0.1429 0.0000 0.1429  plane waves:    7646
 k-point  24 :   0.1429 0.1429 0.1429  plane waves:    7650
 k-point  25 :   0.2857 0.1429 0.1429  plane waves:    7635
 k-point  26 :   0.4286 0.1429 0.1429  plane waves:    7635
 k-point  27 :  -0.4286 0.1429 0.1429  plane waves:    7650
 k-point  28 :  -0.2857 0.1429 0.1429  plane waves:    7648
 k-point  29 :  -0.1429 0.1429 0.1429  plane waves:    7653
 k-point  30 :   0.2857 0.2857 0.1429  plane waves:    7632
 k-point  31 :   0.4286 0.2857 0.1429  plane waves:    7634
 k-point  32 :  -0.4286 0.2857 0.1429  plane waves:    7645
 k-point  33 :  -0.2857 0.2857 0.1429  plane waves:    7640
 k-point  34 :  -0.1429 0.2857 0.1429  plane waves:    7652
 k-point  35 :   0.4286 0.4286 0.1429  plane waves:    7628
 k-point  36 :  -0.4286 0.4286 0.1429  plane waves:    7634
 k-point  37 :  -0.2857 0.4286 0.1429  plane waves:    7623
 k-point  38 :  -0.1429 0.4286 0.1429  plane waves:    7639
 k-point  39 :  -0.4286-0.4286 0.1429  plane waves:    7615
 k-point  40 :  -0.2857-0.4286 0.1429  plane waves:    7618
 k-point  41 :  -0.1429-0.4286 0.1429  plane waves:    7621
 k-point  42 :  -0.2857-0.2857 0.1429  plane waves:    7625
 k-point  43 :  -0.1429-0.2857 0.1429  plane waves:    7638
 k-point  44 :  -0.1429-0.1429 0.1429  plane waves:    7633
 k-point  45 :  -0.0000-0.0000 0.2857  plane waves:    7643
 k-point  46 :   0.1429 0.0000 0.2857  plane waves:    7645
 k-point  47 :   0.2857-0.0000 0.2857  plane waves:    7628
 k-point  48 :   0.4286 0.0000 0.2857  plane waves:    7613
 k-point  49 :  -0.4286 0.0000 0.2857  plane waves:    7629
 k-point  50 :  -0.2857-0.0000 0.2857  plane waves:    7647
 k-point  51 :  -0.1429-0.0000 0.2857  plane waves:    7648
 k-point  52 :   0.1429 0.1429 0.2857  plane waves:    7634
 k-point  53 :   0.2857 0.1429 0.2857  plane waves:    7632
 k-point  54 :   0.4286 0.1429 0.2857  plane waves:    7635
 k-point  55 :  -0.4286 0.1429 0.2857  plane waves:    7639
 k-point  56 :  -0.2857 0.1429 0.2857  plane waves:    7652
 k-point  57 :  -0.1429 0.1429 0.2857  plane waves:    7640
 k-point  58 :   0.2857 0.2857 0.2857  plane waves:    7632
 k-point  59 :   0.4286 0.2857 0.2857  plane waves:    7628
 k-point  60 :  -0.4286 0.2857 0.2857  plane waves:    7623
 k-point  61 :  -0.2857 0.2857 0.2857  plane waves:    7623
 k-point  62 :  -0.1429 0.2857 0.2857  plane waves:    7623
 k-point  63 :   0.4286 0.4286 0.2857  plane waves:    7617
 k-point  64 :  -0.4286 0.4286 0.2857  plane waves:    7646
 k-point  65 :  -0.2857 0.4286 0.2857  plane waves:    7637
 k-point  66 :  -0.1429 0.4286 0.2857  plane waves:    7618
 k-point  67 :  -0.4286-0.4286 0.2857  plane waves:    7624
 k-point  68 :  -0.2857-0.4286 0.2857  plane waves:    7597
 k-point  69 :  -0.1429-0.4286 0.2857  plane waves:    7625
 k-point  70 :  -0.2857-0.2857 0.2857  plane waves:    7649
 k-point  71 :  -0.1429-0.2857 0.2857  plane waves:    7638
 k-point  72 :  -0.1429-0.1429 0.2857  plane waves:    7648
 k-point  73 :   0.0000 0.0000 0.4286  plane waves:    7649
 k-point  74 :   0.1429 0.0000 0.4286  plane waves:    7628
 k-point  75 :   0.2857 0.0000 0.4286  plane waves:    7628
 k-point  76 :   0.4286-0.0000 0.4286  plane waves:    7641
 k-point  77 :  -0.4286 0.0000 0.4286  plane waves:    7649
 k-point  78 :  -0.2857 0.0000 0.4286  plane waves:    7639
 k-point  79 :  -0.1429 0.0000 0.4286  plane waves:    7645
 k-point  80 :   0.1429 0.1429 0.4286  plane waves:    7635
 k-point  81 :   0.2857 0.1429 0.4286  plane waves:    7635
 k-point  82 :   0.4286 0.1429 0.4286  plane waves:    7641
 k-point  83 :  -0.4286 0.1429 0.4286  plane waves:    7639
 k-point  84 :  -0.2857 0.1429 0.4286  plane waves:    7623
 k-point  85 :  -0.1429 0.1429 0.4286  plane waves:    7634
 k-point  86 :   0.2857 0.2857 0.4286  plane waves:    7613
 k-point  87 :   0.4286 0.2857 0.4286  plane waves:    7618
 k-point  88 :  -0.4286 0.2857 0.4286  plane waves:    7637
 k-point  89 :  -0.2857 0.2857 0.4286  plane waves:    7646
 k-point  90 :  -0.1429 0.2857 0.4286  plane waves:    7616
 k-point  91 :   0.4286 0.4286 0.4286  plane waves:    7624
 k-point  92 :  -0.4286 0.4286 0.4286  plane waves:    7618
 k-point  93 :  -0.2857 0.4286 0.4286  plane waves:    7624
 k-point  94 :  -0.1429 0.4286 0.4286  plane waves:    7618
 k-point  95 :  -0.4286-0.4286 0.4286  plane waves:    7628
 k-point  96 :  -0.2857-0.4286 0.4286  plane waves:    7597
 k-point  97 :  -0.1429-0.4286 0.4286  plane waves:    7621
 k-point  98 :  -0.2857-0.2857 0.4286  plane waves:    7625
 k-point  99 :  -0.1429-0.2857 0.4286  plane waves:    7629
 k-point 100 :  -0.1429-0.1429 0.4286  plane waves:    7650

 maximum and minimum number of plane-waves per node :      3842     3790

 maximum number of plane-waves:      7653
 maximum index in each direction: 
   IXMAX=   13   IYMAX=   13   IZMAX=   13
   IXMIN=  -13   IYMIN=  -13   IZMIN=  -13


 parallel 3D FFT for wavefunctions:
    minimum data exchange during FFTs selected (reduces bandwidth)
 parallel 3D FFT for charge:
    minimum data exchange during FFTs selected (reduces bandwidth)


 total amount of memory used by VASP MPI-rank0   454239. kBytes
=======================================================================

   base      :      30000. kBytes
   nonl-proj :     166610. kBytes
   fftplans  :      17779. kBytes
   grid      :      13358. kBytes
   one-center:        124. kBytes
   wavefun   :     226368. kBytes
 
     INWAV:  cpu time    0.0001: real time    0.0001
 Broyden mixing: mesh for mixing (old mesh)
   NGX = 27   NGY = 27   NGZ = 27
  (NGX  =108   NGY  =108   NGZ  =108)
  gives a total of  19683 points

 initial charge density was supplied:
 charge density of overlapping atoms calculated
 number of electron     116.0000000 magnetization 
 keeping initial charge density in first step


--------------------------------------------------------------------------------------------------------


 Maximum index for augmentation-charges        19623 (set IRDMAX)


--------------------------------------------------------------------------------------------------------


 First call to EWALD:  gamma=   0.290
 Maximum number of real-space cells 3x 3x 3
 Maximum number of reciprocal cells 3x 3x 3

    FEWALD:  cpu time    0.0034: real time    0.0035


--------------------------------------- Iteration      1(   1)  ---------------------------------------


    POTLOK:  cpu time    0.2870: real time    0.2915
    SETDIJ:  cpu time    0.8134: real time    0.8205
    TRIAL :  cpu time   32.9797: real time   33.2882
    CORREC:  cpu time    0.0022: real time    0.0022
    --------------------------------------------
      LOOP:  cpu time   34.1565: real time   34.4804

 eigenvalue-minimisations  : 15516
 total energy-change (2. order) : 0.1097630E+04  (-0.7568871E+04)
 number of electron     116.0000000 magnetization 
 augmentation part      116.0000000 magnetization 

 Free energy of the ion-electron system (eV)
  ---------------------------------------------------
  alpha Z        PSCENC =       502.09075296
  Ewald energy   TEWEN  =     -8168.57643192
  -Hartree energ DENC   =     -3540.63389356
  -exchange      EXHF   =         0.00000000
  -V(xc)+E(xc)   XCENC  =       519.05267163
  PAW double counting   =      9417.46121024    -9379.23717351
  entropy T*S    EENTRO =        -0.00067540
  eigenvalues    EBANDS =      -201.71133895
  atomic energy  EATOM  =     11949.18504973
  ---------------------------------------------------
  free energy    TOTEN  =      1097.63017121 eV

  energy without entropy =     1097.63084661  energy(sigma->0) =     1097.63050891


--------------------------------------------------------------------------------------------------------




--------------------------------------- Iteration      1(   2)  ---------------------------------------


    TRIAL :  cpu time   37.4798: real time   38.3510
    CORREC:  cpu time    0.0023: real time    0.0023
    --------------------------------------------
      LOOP:  cpu time   37.4847: real time   38.3562

 eigenvalue-minimisations  : 16296
 total energy-change (2. order) :-0.1311238E+04  (-0.1273657E+04)
 number of electron     116.0000000 magnetization 
 augmentation part      116.0000000 magnetization 

 Free energy of the ion-electron system (eV)
  ---------------------------------------------------
  alpha Z        PSCENC =       502.09075296
  Ewald energy   TEWEN  =     -8168.57643192
  -Hartree energ DENC   =     -3540.63389356
  -exchange      EXHF   =         0.00000000
  -V(xc)+E(xc)   XCENC  =       519.05267163
  PAW double counting   =      9417.46121024    -9379.23717351
  entropy T*S    EENTRO =        -0.00175154
  eigenvalues    EBANDS =     -1512.94780263
  atomic energy  EATOM  =     11949.18504973
  ---------------------------------------------------
  free energy    TOTEN  =      -213.60736861 eV

  energy without entropy =     -213.60561707  energy(sigma->0) =     -213.60649284


--------------------------------------------------------------------------------------------------------




--------------------------------------- Iteration      1(   3)  ---------------------------------------


    TRIAL :  cpu time   40.7794: real time   41.5047
    CORREC:  cpu time    0.0020: real time    0.0020
    --------------------------------------------
      LOOP:  cpu time   40.7825: real time   41.5094

 eigenvalue-minimisations  : 18828
 total energy-change (2. order) :-0.6131338E+02  (-0.5856117E+02)
 number of electron     116.0000000 magnetization 
 augmentation part      116.0000000 magnetization 

 Free energy of the ion-electron system (eV)
  ---------------------------------------------------
  alpha Z        PSCENC =       502.09075296
  Ewald energy   TEWEN  =     -8168.57643192
  -Hartree energ DENC   =     -3540.63389356
  -exchange      EXHF   =         0.00000000
  -V(xc)+E(xc)   XCENC  =       519.05267163
  PAW double counting   =      9417.46121024    -9379.23717351
  entropy T*S    EENTRO =        -0.00103751
  eigenvalues    EBANDS =     -1574.26189593
  atomic energy  EATOM  =     11949.18504973
  ---------------------------------------------------
  free energy    TOTEN  =      -274.92074788 eV

  energy without entropy =     -274.91971037  energy(sigma->0) =     -274.92022913


--------------------------------------------------------------------------------------------------------




--------------------------------------- Iteration      1(   4)  ---------------------------------------


    TRIAL :  cpu time   39.3263: real time   40.0692
    CORREC:  cpu time    0.0020: real time    0.0020
    --------------------------------------------
      LOOP:  cpu time   39.3293: real time   40.0740

 eigenvalue-minimisations  : 18000
 total energy-change (2. order) :-0.1585716E+01  (-0.1554301E+01)
 number of electron     116.0000000 magnetization 
 augmentation part      116.0000000 magnetization 

 Free energy of the ion-electron system (eV)
  ---------------------------------------------------
  alpha Z        PSCENC =       502.09075296
  Ewald energy   TEWEN  =     -8168.57643192
  -Hartree energ DENC   =     -3540.63389356
  -exchange      EXHF   =         0.00000000
  -V(xc)+E(xc)   XCENC  =       519.05267163
  PAW double counting   =      9417.46121024    -9379.23717351
  entropy T*S    EENTRO =        -0.00045991
  eigenvalues    EBANDS =     -1575.84818913
  atomic energy  EATOM  =     11949.18504973
  ---------------------------------------------------
  free energy    TOTEN  =      -276.50646348 eV

  energy without entropy =     -276.50600357  energy(sigma->0) =     -276.50623352


--------------------------------------------------------------------------------------------------------




--------------------------------------- Iteration      1(   5)  ---------------------------------------


    TRIAL :  cpu time   39.6738: real time   40.4514
    CORREC:  cpu time    0.0021: real time    0.0021
    CHARGE:  cpu time    2.5053: real time    2.5259
    --------------------------------------------
      LOOP:  cpu time   42.1824: real time   43.0870

 eigenvalue-minimisations  : 18576
 total energy-change (2. order) :-0.3858895E-01  (-0.3850289E-01)
 number of electron     116.0000001 magnetization 
 augmentation part       11.9414865 magnetization 

 Free energy of the ion-electron system (eV)
  ---------------------------------------------------
  alpha Z        PSCENC =       502.09075296
  Ewald energy   TEWEN  =     -8168.57643192
  -Hartree energ DENC   =     -3540.63389356
  -exchange      EXHF   =         0.00000000
  -V(xc)+E(xc)   XCENC  =       519.05267163
  PAW double counting   =      9417.46121024    -9379.23717351
  entropy T*S    EENTRO =        -0.00047564
  eigenvalues    EBANDS =     -1575.88676235
  atomic energy  EATOM  =     11949.18504973
  ---------------------------------------------------
  free energy    TOTEN  =      -276.54505242 eV

  energy without entropy =     -276.54457679  energy(sigma->0) =     -276.54481460


--------------------------------------------------------------------------------------------------------




--------------------------------------- Iteration      1(   6)  ---------------------------------------


    POTLOK:  cpu time    0.1941: real time    0.1957
    SETDIJ:  cpu time    0.6062: real time    0.6098
    TRIAL :  cpu time   27.2746: real time   27.6291
    CORREC:  cpu time    9.4732: real time    9.5522
    CHARGE:  cpu time    2.5887: real time    2.6085
    --------------------------------------------
      LOOP:  cpu time   40.1383: real time   40.5972

 eigenvalue-minimisations  :     0
 total energy-change (2. order) : 0.1255102E+03  (-0.4816276E+02)
 number of electron     116.0000001 magnetization 
 augmentation part       14.8330804 magnetization 

 Free energy of the ion-electron system (eV)
  ---------------------------------------------------
  alpha Z        PSCENC =       502.09075296
  Ewald energy   TEWEN  =     -8168.57643192
  -Hartree energ DENC   =     -3283.79162663
  -exchange      EXHF   =         0.00000000
  -V(xc)+E(xc)   XCENC  =       521.03082664
  PAW double counting   =     16217.18477777   -16227.80465169
  entropy T*S    EENTRO =        -0.00250348
  eigenvalues    EBANDS =     -1660.35309393
  atomic energy  EATOM  =     11949.18504973
  ---------------------------------------------------
  free energy    TOTEN  =      -151.03487271 eV

  energy without entropy =     -151.03236923  energy(sigma->0) =     -151.03362097


--------------------------------------------------------------------------------------------------------




--------------------------------------- Iteration      1(   7)  ---------------------------------------


    POTLOK:  cpu time    0.1503: real time    0.1514
    SETDIJ:  cpu time    0.6443: real time    0.6488
    TRIAL :  cpu time   32.6214: real time   32.9764
    CORREC:  cpu time   10.1030: real time   10.1883
    CHARGE:  cpu time    3.6931: real time    3.7193
    --------------------------------------------
      LOOP:  cpu time   47.2137: real time   47.6864

 eigenvalue-minimisations  :     0
 total energy-change (2. order) :-0.4975516E+02  (-0.9467396E+01)
 number of electron     116.0000001 magnetization 
 augmentation part       14.5478709 magnetization 

 Free energy of the ion-electron system (eV)
  ---------------------------------------------------
  alpha Z        PSCENC =       502.09075296
  Ewald energy   TEWEN  =     -8168.57643192
  -Hartree energ DENC   =     -3494.44384630
  -exchange      EXHF   =         0.00000000
  -V(xc)+E(xc)   XCENC  =       531.09141880
  PAW double counting   =     15439.54777598   -15429.50132669
  entropy T*S    EENTRO =        -0.00219216
  eigenvalues    EBANDS =     -1530.18091996
  atomic energy  EATOM  =     11949.18504973
  ---------------------------------------------------
  free energy    TOTEN  =      -200.79003089 eV

  energy without entropy =     -200.78783873  energy(sigma->0) =     -200.78893481


--------------------------------------------------------------------------------------------------------




--------------------------------------- Iteration      1(   8)  ---------------------------------------


    POTLOK:  cpu time    0.5664: real time    0.5698
    SETDIJ:  cpu time    0.9880: real time    0.9951
    TRIAL :  cpu time   28.3886: real time   28.6551
    CORREC:  cpu time   12.4128: real time   12.5137
    CHARGE:  cpu time    2.6804: real time    2.7005
    --------------------------------------------
      LOOP:  cpu time   45.0377: real time   45.4364

 eigenvalue-minimisations  :     0
 total energy-change (2. order) :-0.9292520E+01  (-0.2420618E+01)
 number of electron     116.0000001 magnetization 
 augmentation part       14.2442705 magnetization 

 Free energy of the ion-electron system (eV)
  ---------------------------------------------------
  alpha Z        PSCENC =       502.09075296
  Ewald energy   TEWEN  =     -8168.57643192
  -Hartree energ DENC   =     -3470.56710724
  -exchange      EXHF   =         0.00000000
  -V(xc)+E(xc)   XCENC  =       530.77106978
  PAW double counting   =     15098.22623368   -15083.95683161
  entropy T*S    EENTRO =        -0.00228382
  eigenvalues    EBANDS =     -1567.25309444
  atomic energy  EATOM  =     11949.18504973
  ---------------------------------------------------
  free energy    TOTEN  =      -210.08255122 eV

  energy without entropy =     -210.08026739  energy(sigma->0) =     -210.08140931


--------------------------------------------------------------------------------------------------------




--------------------------------------- Iteration      1(   9)  ---------------------------------------


    POTLOK:  cpu time    0.1501: real time    0.1510
    SETDIJ:  cpu time    0.6301: real time    0.6348
    TRIAL :  cpu time   30.9636: real time   31.4905
    CORREC:  cpu time   11.0062: real time   11.3907
    CHARGE:  cpu time    2.7399: real time    2.7614
    --------------------------------------------
      LOOP:  cpu time   45.4909: real time   46.4306

 eigenvalue-minimisations  :     0
 total energy-change (2. order) :-0.2436414E+01  (-0.1177658E+01)
 number of electron     116.0000001 magnetization 
 augmentation part       14.2289465 magnetization 

 Free energy of the ion-electron system (eV)
  ---------------------------------------------------
  alpha Z        PSCENC =       502.09075296
  Ewald energy   TEWEN  =     -8168.57643192
  -Hartree energ DENC   =     -3447.80508401
  -exchange      EXHF   =         0.00000000
  -V(xc)+E(xc)   XCENC  =       530.14812726
  PAW double counting   =     14889.84581472   -14873.73488876
  entropy T*S    EENTRO =        -0.00195782
  eigenvalues    EBANDS =     -1593.67002122
  atomic energy  EATOM  =     11949.18504973
  ---------------------------------------------------
  free energy    TOTEN  =      -212.51896507 eV

  energy without entropy =     -212.51700725  energy(sigma->0) =     -212.51798616


--------------------------------------------------------------------------------------------------------




--------------------------------------- Iteration      1(  10)  ---------------------------------------


    POTLOK:  cpu time    0.1492: real time    0.1502
    SETDIJ:  cpu time    0.7658: real time    0.7708
    TRIAL :  cpu time   32.9707: real time   33.4730
    CORREC:  cpu time   11.3825: real time   11.4757
    CHARGE:  cpu time    2.7874: real time    2.8076
    --------------------------------------------
      LOOP:  cpu time   48.0573: real time   48.6792

 eigenvalue-minimisations  :     0
 total energy-change (2. order) :-0.1182506E+01  (-0.4612723E+00)
 number of electron     116.0000001 magnetization 
 augmentation part       14.2724334 magnetization 

 Free energy of the ion-electron system (eV)
  ---------------------------------------------------
  alpha Z        PSCENC =       502.09075296
  Ewald energy   TEWEN  =     -8168.57643192
  -Hartree energ DENC   =     -3469.33862762
  -exchange      EXHF   =         0.00000000
  -V(xc)+E(xc)   XCENC  =       531.08311173
  PAW double counting   =     14752.71426958   -14733.54577444
  entropy T*S    EENTRO =        -0.00320915
  eigenvalues    EBANDS =     -1577.31186315
  atomic energy  EATOM  =     11949.18504973
  ---------------------------------------------------
  free energy    TOTEN  =      -213.70147096 eV

  energy without entropy =     -213.69826181  energy(sigma->0) =     -213.69986639


--------------------------------------------------------------------------------------------------------




--------------------------------------- Iteration      1(  11)  ---------------------------------------


    POTLOK:  cpu time    0.1501: real time    0.1511
    SETDIJ:  cpu time    0.8990: real time    0.9050
    TRIAL :  cpu time   30.3279: real time   30.6081
    CORREC:  cpu time   12.2006: real time   12.5174
    CHARGE:  cpu time    3.9377: real time    3.9665
    --------------------------------------------
      LOOP:  cpu time   47.5168: real time   48.1501

 eigenvalue-minimisations  :     0
 total energy-change (2. order) :-0.4596557E+00  (-0.2226668E+00)
 number of electron     116.0000001 magnetization 
 augmentation part       14.3230656 magnetization 

 Free energy of the ion-electron system (eV)
  ---------------------------------------------------
  alpha Z        PSCENC =       502.09075296
  Ewald energy   TEWEN  =     -8168.57643192
  -Hartree energ DENC   =     -3481.77983555
  -exchange      EXHF   =         0.00000000
  -V(xc)+E(xc)   XCENC  =       531.77050862
  PAW double counting   =     14650.27764267   -14629.60548524
  entropy T*S    EENTRO =        -0.00281251
  eigenvalues    EBANDS =     -1567.52011881
  atomic energy  EATOM  =     11949.18504973
  ---------------------------------------------------
  free energy    TOTEN  =      -214.16112670 eV

  energy without entropy =     -214.15831419  energy(sigma->0) =     -214.15972045


--------------------------------------------------------------------------------------------------------




--------------------------------------- Iteration      1(  12)  ---------------------------------------


    POTLOK:  cpu time    0.1526: real time    0.1536
    SETDIJ:  cpu time    0.6182: real time    0.6224
    TRIAL :  cpu time   32.9720: real time   33.4888
    CORREC:  cpu time   12.4050: real time   12.5041
    CHARGE:  cpu time    2.9760: real time    2.9975
    --------------------------------------------
      LOOP:  cpu time   49.1252: real time   49.7684

 eigenvalue-minimisations  :     0
 total energy-change (2. order) :-0.2216022E+00  (-0.8432837E-01)
 number of electron     116.0000001 magnetization 
 augmentation part       14.3036630 magnetization 

 Free energy of the ion-electron system (eV)
  ---------------------------------------------------
  alpha Z        PSCENC =       502.09075296
  Ewald energy   TEWEN  =     -8168.57643192
  -Hartree energ DENC   =     -3483.35339821
  -exchange      EXHF   =         0.00000000
  -V(xc)+E(xc)   XCENC  =       531.88998031
  PAW double counting   =     14605.66959917   -14584.48298330
  entropy T*S    EENTRO =        -0.00262963
  eigenvalues    EBANDS =     -1566.80248510
  atomic energy  EATOM  =     11949.18504973
  ---------------------------------------------------
  free energy    TOTEN  =      -214.38272887 eV

  energy without entropy =     -214.38009924  energy(sigma->0) =     -214.38141406


--------------------------------------------------------------------------------------------------------




--------------------------------------- Iteration      1(  13)  ---------------------------------------


    POTLOK:  cpu time    0.1529: real time    0.1538
    SETDIJ:  cpu time    0.6341: real time    0.6383
    TRIAL :  cpu time   33.5345: real time   34.0083
    CORREC:  cpu time   10.9138: real time   11.0065
    CHARGE:  cpu time    3.3259: real time    3.3498
    --------------------------------------------
      LOOP:  cpu time   48.5627: real time   49.1589

 eigenvalue-minimisations  :     0
 total energy-change (2. order) :-0.8431271E-01  (-0.3534964E-01)
 number of electron     116.0000001 magnetization 
 augmentation part       14.2951919 magnetization 

 Free energy of the ion-electron system (eV)
  ---------------------------------------------------
  alpha Z        PSCENC =       502.09075296
  Ewald energy   TEWEN  =     -8168.57643192
  -Hartree energ DENC   =     -3475.01845669
  -exchange      EXHF   =         0.00000000
  -V(xc)+E(xc)   XCENC  =       531.58507197
  PAW double counting   =     14607.80089843   -14587.07134371
  entropy T*S    EENTRO =        -0.00274109
  eigenvalues    EBANDS =     -1574.45995272
  atomic energy  EATOM  =     11949.18504973
  ---------------------------------------------------
  free energy    TOTEN  =      -214.46704158 eV

  energy without entropy =     -214.46430049  energy(sigma->0) =     -214.46567104


--------------------------------------------------------------------------------------------------------




[...]
     32      -0.4652      2.00000
     33       0.2601      2.00000
     34       0.7065      2.00000
     35       0.8255      2.00000
     36       1.1814      2.00000
     37       1.2430      2.00000
     38       1.5140      2.00000
     39       2.5293      2.00000
     40       2.6805      2.00000
     41       2.9570      2.00000
     42       3.1617      2.00000
     43       3.2995      2.00000
     44       3.4139      2.00000
     45       3.5272      2.00000
     46       3.9500      2.00000
     47       4.6732      2.00000
     48       5.1089      2.00000
     49       5.3041      2.00000
     50       5.4186      2.00000
     51       5.4642      2.00000
     52       5.6642      2.00000
     53       5.6905      2.00000
     54       5.6960      2.00000
     55       6.0884      2.00000
     56       6.1083      2.00000
     57       6.4617      2.00000
     58       6.6947      2.00000
     59       6.9907      0.04314
     60       7.0754      0.00000
     61       7.2319      0.00000
     62       7.7775      0.00000
     63       7.8886      0.00000
     64       8.2286      0.00000
     65       8.3952      0.00000
     66       8.5191      0.00000
     67       8.5583      0.00000
     68       8.9241      0.00000
     69       8.9820      0.00000
     70       9.6522      0.00000
     71      10.0145      0.00000
     72      10.4743      0.00000

 k-point    95 :      -0.4286   -0.4286    0.4286
  band No.  band energies     occupation 
      1     -56.1707      2.00000
      2     -56.1701      2.00000
      3     -55.6034      2.00000
      4     -55.6019      2.00000
      5     -55.6019      2.00000
      6     -55.6000      2.00000
      7     -29.7288      2.00000
      8     -29.7107      2.00000
      9     -29.5699      2.00000
     10     -29.5682      2.00000
     11     -29.5681      2.00000
     12     -29.5451      2.00000
     13     -29.4561      2.00000
     14     -29.4561      2.00000
     15     -29.4489      2.00000
     16     -29.4488      2.00000
     17     -29.1752      2.00000
     18     -29.1254      2.00000
     19     -29.1254      2.00000
     20     -29.0849      2.00000
     21     -28.9479      2.00000
     22     -28.9332      2.00000
     23     -28.9308      2.00000
     24     -28.9308      2.00000
     25      -6.5967      2.00000
     26      -6.2772      2.00000
     27      -2.8200      2.00000
     28      -2.8199      2.00000
     29      -2.5898      2.00000
     30      -1.7074      2.00000
     31      -0.3260      2.00000
     32      -0.3257      2.00000
     33      -0.1828      2.00000
     34       0.0095      2.00000
     35       0.7440      2.00000
     36       0.9182      2.00000
     37       0.9182      2.00000
     38       1.6036      2.00000
     39       3.0464      2.00000
     40       3.0465      2.00000
     41       3.5743      2.00000
     42       3.5744      2.00000
     43       3.8577      2.00000
     44       4.2895      2.00000
     45       4.2896      2.00000
     46       4.3394      2.00000
     47       4.3398      2.00000
     48       4.5684      2.00000
     49       4.9423      2.00000
     50       5.0135      2.00000
     51       5.0861      2.00000
     52       5.0864      2.00000
     53       5.7120      2.00000
     54       5.7120      2.00000
     55       5.8905      2.00000
     56       5.9332      2.00000
     57       5.9898      2.00000
     58       6.5137      2.00000
     59       6.5388      2.00000
     60       6.5389      2.00000
     61       6.7820      2.00000
     62       7.4223      0.00000
     63       7.4920      0.00000
     64       8.0645      0.00000
     65       8.1553      0.00000
     66       8.3987      0.00000
     67       8.9628      0.00000
     68       8.9870      0.00000
     69       8.9872      0.00000
     70       9.0925      0.00000
     71      10.6261      0.00000
     72      11.3982      0.00000

 k-point    96 :      -0.2857   -0.4286    0.4286
  band No.  band energies     occupation 
      1     -56.1706      2.00000
      2     -56.1703      2.00000
      3     -55.6033      2.00000
      4     -55.6019      2.00000
      5     -55.6018      2.00000
      6     -55.6001      2.00000
      7     -29.7377      2.00000
      8     -29.7327      2.00000
      9     -29.5792      2.00000
     10     -29.5738      2.00000
     11     -29.5509      2.00000
     12     -29.5503      2.00000
     13     -29.4531      2.00000
     14     -29.4524      2.00000
     15     -29.4373      2.00000
     16     -29.4371      2.00000
     17     -29.1727      2.00000
     18     -29.1280      2.00000
     19     -29.1235      2.00000
     20     -29.0870      2.00000
     21     -28.9442      2.00000
     22     -28.9316      2.00000
     23     -28.9305      2.00000
     24     -28.9302      2.00000
     25      -6.6926      2.00000
     26      -6.2305      2.00000
     27      -2.8206      2.00000
     28      -2.7965      2.00000
     29      -2.6319      2.00000
     30      -1.5827      2.00000
     31      -0.8970      2.00000
     32      -0.3257      2.00000
     33       0.0630      2.00000
     34       0.4764      2.00000
     35       0.8647      2.00000
     36       0.9729      2.00000
     37       0.9979      2.00000
     38       1.3872      2.00000
     39       2.9305      2.00000
     40       2.9414      2.00000
     41       3.5338      2.00000
     42       3.6407      2.00000
     43       3.6936      2.00000
     44       3.7069      2.00000
     45       3.9099      2.00000
     46       4.2625      2.00000
     47       4.2802      2.00000
     48       4.8551      2.00000
     49       5.1219      2.00000
     50       5.2904      2.00000
     51       5.3639      2.00000
     52       5.3897      2.00000
     53       5.7570      2.00000
     54       5.7645      2.00000
     55       5.8533      2.00000
     56       5.8841      2.00000
     57       6.1623      2.00000
     58       6.4868      2.00000
     59       6.6203      2.00000
     60       6.7151      2.00000
     61       7.0688      0.00000
     62       7.3541      0.00000
     63       7.4722      0.00000
     64       8.1468      0.00000
     65       8.2462      0.00000
     66       8.4544      0.00000
     67       8.6614      0.00000
     68       8.9093      0.00000
     69       8.9325      0.00000
     70       9.3089      0.00000
     71      10.3297      0.00000
     72      10.6371      0.00000

 k-point    97 :      -0.1429   -0.4286    0.4286
  band No.  band energies     occupation 
      1     -56.1705      2.00000
      2     -56.1705      2.00000
      3     -55.6030      2.00000
      4     -55.6021      2.00000
      5     -55.6015      2.00000
      6     -55.6004      2.00000
      7     -29.7621      2.00000
      8     -29.7409      2.00000
      9     -29.5879      2.00000
     10     -29.5740      2.00000
     11     -29.5613      2.00000
     12     -29.5387      2.00000
     13     -29.4455      2.00000
     14     -29.4454      2.00000
     15     -29.4271      2.00000
     16     -29.4266      2.00000
     17     -29.1658      2.00000
     18     -29.1351      2.00000
     19     -29.1182      2.00000
     20     -29.0927      2.00000
     21     -28.9387      2.00000
     22     -28.9310      2.00000
     23     -28.9296      2.00000
     24     -28.9293      2.00000
     25      -6.7557      2.00000
     26      -6.2512      2.00000
     27      -2.7579      2.00000
     28      -2.6725      2.00000
     29      -2.6601      2.00000
     30      -1.4487      2.00000
     31      -1.3215      2.00000
     32      -0.4128      2.00000
     33       0.2081      2.00000
     34       0.7391      2.00000
     35       1.1340      2.00000
     36       1.1503      2.00000
     37       1.1567      2.00000
     38       1.2722      2.00000
     39       2.7457      2.00000
     40       2.8177      2.00000
     41       3.1158      2.00000
     42       3.1551      2.00000
     43       3.4707      2.00000
     44       3.5040      2.00000
     45       3.5324      2.00000
     46       4.0770      2.00000
     47       4.5127      2.00000
     48       5.1133      2.00000
     49       5.2009      2.00000
     50       5.4320      2.00000
     51       5.5556      2.00000
     52       5.5896      2.00000
     53       5.6293      2.00000
     54       5.6880      2.00000
     55       5.9295      2.00000
     56       6.2258      2.00000
     57       6.5723      2.00000
     58       6.7602      2.00000
     59       6.7767      2.00000
     60       6.8586      2.00000
     61       7.2415      0.00000
     62       7.7583      0.00000
     63       7.9035      0.00000
     64       7.9290      0.00000
     65       8.2971      0.00000
     66       8.5378      0.00000
     67       8.5641      0.00000
     68       8.8646      0.00000
     69       9.0416      0.00000
     70       9.5053      0.00000
     71       9.8146      0.00000
     72      10.2141      0.00000

 k-point    98 :      -0.2857   -0.2857    0.4286
  band No.  band energies     occupation 
      1     -56.1705      2.00000
      2     -56.1705      2.00000
      3     -55.6031      2.00000
      4     -55.6018      2.00000
      5     -55.6018      2.00000
      6     -55.6002      2.00000
      7     -29.7659      2.00000
      8     -29.7314      2.00000
      9     -29.5956      2.00000
     10     -29.5807      2.00000
     11     -29.5559      2.00000
     12     -29.5262      2.00000
     13     -29.4599      2.00000
     14     -29.4454      2.00000
     15     -29.4268      2.00000
     16     -29.4211      2.00000
     17     -29.1702      2.00000
     18     -29.1263      2.00000
     19     -29.1259      2.00000
     20     -29.0890      2.00000
     21     -28.9398      2.00000
     22     -28.9301      2.00000
     23     -28.9298      2.00000
     24     -28.9297      2.00000
     25      -6.8413      2.00000
     26      -6.1085      2.00000
     27      -3.0280      2.00000
     28      -2.7124      2.00000
     29      -2.5683      2.00000
     30      -1.4811      2.00000
     31      -1.0629      2.00000
     32      -0.2560      2.00000
     33       0.1051      2.00000
     34       0.7365      2.00000
     35       0.8343      2.00000
     36       1.0009      2.00000
     37       1.0869      2.00000
     38       1.3897      2.00000
     39       2.7567      2.00000
     40       2.7609      2.00000
     41       3.2506      2.00000
     42       3.3083      2.00000
     43       3.5696      2.00000
     44       3.8389      2.00000
     45       3.8902      2.00000
     46       4.2732      2.00000
     47       4.3013      2.00000
     48       4.9436      2.00000
     49       5.3151      2.00000
     50       5.4615      2.00000
     51       5.4942      2.00000
     52       5.5802      2.00000
     53       5.6236      2.00000
     54       5.8037      2.00000
     55       5.9362      2.00000
     56       6.0008      2.00000
     57       6.4535      2.00000
     58       6.5065      2.00000
     59       6.5503      2.00000
     60       6.9600      1.11837
     61       7.2772      0.00000
     62       7.3019      0.00000
     63       7.6328      0.00000
     64       7.7281      0.00000
     65       8.3952      0.00000
     66       8.4644      0.00000
     67       8.7066      0.00000
     68       8.8330      0.00000
     69       8.9600      0.00000
     70       9.3917      0.00000
     71      10.1004      0.00000
     72      10.5146      0.00000

 k-point    99 :      -0.1429   -0.2857    0.4286
  band No.  band energies     occupation 
      1     -56.1707      2.00000
      2     -56.1704      2.00000
      3     -55.6029      2.00000
      4     -55.6020      2.00000
      5     -55.6015      2.00000
      6     -55.6005      2.00000
      7     -29.7848      2.00000
      8     -29.7312      2.00000
      9     -29.6062      2.00000
     10     -29.5812      2.00000
     11     -29.5617      2.00000
     12     -29.5148      2.00000
     13     -29.4589      2.00000
     14     -29.4416      2.00000
     15     -29.4230      2.00000
     16     -29.4089      2.00000
     17     -29.1634      2.00000
     18     -29.1332      2.00000
     19     -29.1207      2.00000
     20     -29.0948      2.00000
     21     -28.9349      2.00000
     22     -28.9317      2.00000
     23     -28.9291      2.00000
     24     -28.9281      2.00000
     25      -6.9202      2.00000
     26      -6.0689      2.00000
     27      -3.0813      2.00000
     28      -2.8057      2.00000
     29      -2.2815      2.00000
     30      -1.3803      2.00000
     31      -1.2827      2.00000
     32      -0.2902      2.00000
     33       0.2292      2.00000
     34       0.7203      2.00000
     35       0.7747      2.00000
     36       1.2090      2.00000
     37       1.2212      2.00000
     38       1.7054      2.00000
     39       2.3335      2.00000
     40       2.6249      2.00000
     41       2.8345      2.00000
     42       3.0460      2.00000
     43       3.3399      2.00000
     44       3.5700      2.00000
     45       3.6905      2.00000
     46       4.0849      2.00000
     47       4.6236      2.00000
     48       5.0684      2.00000
     49       5.4235      2.00000
     50       5.4502      2.00000
     51       5.5690      2.00000
     52       5.5900      2.00000
     53       5.7628      2.00000
     54       5.8328      2.00000
     55       6.0609      2.00000
     56       6.2299      2.00000
     57       6.5766      2.00000
     58       6.8304      2.00000
     59       6.9913      0.03923
     60       7.1123      0.00000
     61       7.2245      0.00000
     62       7.5535      0.00000
     63       7.8932      0.00000
     64       8.1944      0.00000
     65       8.2177      0.00000
     66       8.6349      0.00000
     67       8.7087      0.00000
     68       8.7690      0.00000
     69       9.1839      0.00000
     70       9.3415      0.00000
     71       9.5796      0.00000
     72      10.3228      0.00000

 k-point   100 :      -0.1429   -0.1429    0.4286
  band No.  band energies     occupation 
      1     -56.1709      2.00000
      2     -56.1702      2.00000
      3     -55.6027      2.00000
      4     -55.6017      2.00000
      5     -55.6016      2.00000
      6     -55.6008      2.00000
      7     -29.7969      2.00000
      8     -29.7206      2.00000
      9     -29.6202      2.00000
     10     -29.5802      2.00000
     11     -29.5623      2.00000
     12     -29.5003      2.00000
     13     -29.4646      2.00000
     14     -29.4445      2.00000
     15     -29.4276      2.00000
     16     -29.3958      2.00000
     17     -29.1569      2.00000
     18     -29.1281      2.00000
     19     -29.1271      2.00000
     20     -29.1008      2.00000
     21     -28.9345      2.00000
     22     -28.9315      2.00000
     23     -28.9285      2.00000
     24     -28.9272      2.00000
     25      -6.9955      2.00000
     26      -5.9586      2.00000
     27      -3.2747      2.00000
     28      -2.9867      2.00000
     29      -1.7960      2.00000
     30      -1.3354      2.00000
     31      -1.2095      2.00000
     32      -0.1580      2.00000
     33       0.2926      2.00000
     34       0.4476      2.00000
     35       0.7138      2.00000
     36       1.2980      2.00000
     37       1.3584      2.00000
     38       1.7908      2.00000
     39       2.0432      2.00000
     40       2.2878      2.00000
     41       2.4230      2.00000
     42       3.0924      2.00000
     43       3.1953      2.00000
     44       3.3814      2.00000
     45       3.5694      2.00000
     46       3.9096      2.00000
     47       4.7983      2.00000
     48       4.9272      2.00000
     49       5.3554      2.00000
     50       5.5758      2.00000
     51       5.7233      2.00000
     52       5.8381      2.00000
     53       5.8436      2.00000
     54       5.9430      2.00000
     55       6.3426      2.00000
     56       6.4353      2.00000
     57       6.4698      2.00000
     58       7.1577      0.00000
     59       7.1976      0.00000
     60       7.3214      0.00000
     61       7.3886      0.00000
     62       7.5660      0.00000
     63       8.1554      0.00000
     64       8.3529      0.00000
     65       8.5345      0.00000
     66       8.6900      0.00000
     67       8.7527      0.00000
     68       8.9734      0.00000
     69       9.1006      0.00000
     70       9.1804      0.00000
     71       9.4246      0.00000
     72       9.9214      0.00000


--------------------------------------------------------------------------------------------------------


 soft charge-density along one line, spin component           1
         0         1         2         3         4         5         6         7         8         9
 total charge-density along one line
 
 pseudopotential strength for first ion, spin component:           1
  6.135   9.307  -0.001  -0.001   0.001  -0.002  -0.001   0.001
  9.307  14.111  -0.002  -0.001   0.001  -0.003  -0.002   0.001
 -0.001  -0.002  -2.020  -0.001   0.001  -3.388  -0.002   0.002
 -0.001  -0.001  -0.001  -2.029  -0.014  -0.002  -3.404  -0.026
  0.001   0.001   0.001  -0.014  -2.041   0.002  -0.026  -3.426
 -0.002  -0.003  -3.388  -0.002   0.002  -5.470  -0.005   0.003
 -0.001  -0.002  -0.002  -3.404  -0.026  -0.005  -5.501  -0.048
  0.001   0.001   0.002  -0.026  -3.426   0.003  -0.048  -5.541
 total augmentation occupancy for first ion, spin component:           1
  4.013  -1.091  -0.408  -0.302   0.201   0.166   0.123  -0.082
 -1.091   0.326   0.181   0.135  -0.090  -0.064  -0.048   0.032
 -0.408   0.181   2.923   0.198  -0.132  -0.811  -0.093   0.062
 -0.302   0.135   0.198   3.258   0.587  -0.093  -0.899  -0.172
  0.201  -0.090  -0.132   0.587   3.750   0.062  -0.172  -1.043
  0.166  -0.064  -0.811  -0.093   0.062   0.233   0.039  -0.026
  0.123  -0.048  -0.093  -0.899  -0.172   0.039   0.259   0.056
 -0.082   0.032   0.062  -0.172  -1.043  -0.026   0.056   0.306


------------------------ aborting loop because EDIFF is reached ----------------------------------------




--------------------------------------------------------------------------------------------------------



  FREE ENERGIE OF THE ION-ELECTRON SYSTEM (eV)
  ---------------------------------------------------
  free  energy   TOTEN  =      -214.54693958 eV

  energy  without entropy=     -214.54466170  energy(sigma->0) =     -214.54580064
 


--------------------------------------------------------------------------------------------------------


    POTLOK:  cpu time    0.8433: real time    0.8499


--------------------------------------------------------------------------------------------------------


 writing wavefunctions
     LOOP+:  cpu time 2019.2242: real time 2046.5658
    4ORBIT:  cpu time    0.0000: real time    0.0000

 total amount of memory used by VASP MPI-rank0   454239. kBytes
=======================================================================

   base      :      30000. kBytes
   nonl-proj :     166610. kBytes
   fftplans  :      17779. kBytes
   grid      :      13358. kBytes
   one-center:        124. kBytes
   wavefun   :     226368. kBytes
 
  
  
 General timing and accounting informations for this job:
 ========================================================
  
                  Total CPU time used (sec):     2029.792
                            User time (sec):     1962.626
                          System time (sec):       67.166
                         Elapsed time (sec):     2065.136
  
                   Maximum memory used (kb):      666356.
                   Average memory used (kb):          N/A
  
                          Minor page faults:      7812913
                          Major page faults:           14
                 Voluntary context switches:        15492
