 vasp.6.2.0 18Jan21 (build Jan 05 2022 15:41:44) complex                        
  
 executed on             LinuxIFC date 2025.05.07  16:20:49
 running on   24 total cores
 distrk:  each k-point on   12 cores,    2 groups
 distr:  one band on NCORE=   2 cores,    6 groups


--------------------------------------------------------------------------------------------------------


 INCAR:
   SYSTEM = routine with relax: pwdword
   ICHARG = 2
   NPAR = 6
   KPAR = 2
   NCORE = 2
   ADDGRID = T
   PREC = Acc
   ENCUT = 600
   METAGGA = R2SCAN
   LASPH = .TRUE.
   LMIXTAU = .FALSE.
   ALGO = A
   EDIFF = 1E-9
   NELM = 100
   NELMIN = 6
   IALGO = 38
   LREAL = F
   NSW = 0
   ISIF = -1
   ISMEAR = 0
   SIGMA = 0.02

 POTCAR:    PAW_PBE B 06Sep2000                   
 POTCAR:    PAW_PBE Mo_sv 02Feb2006               
 POTCAR:    PAW_PBE Si 05Jan2001                  
 -----------------------------------------------------------------------------
|                                                                             |
|           W    W    AA    RRRRR   N    N  II  N    N   GGGG   !!!           |
|           W    W   A  A   R    R  NN   N  II  NN   N  G    G  !!!           |
|           W    W  A    A  R    R  N N  N  II  N N  N  G       !!!           |
|           W WW W  AAAAAA  RRRRR   N  N N  II  N  N N  G  GGG   !            |
|           WW  WW  A    A  R   R   N   NN  II  N   NN  G    G                |
|           W    W  A    A  R    R  N    N  II  N    N   GGGG   !!!           |
|                                                                             |
|     For optimal performance we recommend to set                             |
|       NCORE = 2 up to number-of-cores-per-socket                            |
|     NCORE specifies how many cores store one orbital (NPAR=cpu/NCORE).      |
|     This setting can greatly improve the performance of VASP for DFT.       |
|     The default, NCORE=1 might be grossly inefficient on modern             |
|     multi-core architectures or massively parallel machines. Do your        |
|     own testing! More info at https://www.vasp.at/wiki/index.php/NCORE      |
|     Unfortunately you need to use the default for GW and RPA                |
|     calculations (for HF NCORE is supported but not extensively tested      |
|     yet).                                                                   |
|                                                                             |
 -----------------------------------------------------------------------------

 POTCAR:    PAW_PBE B 06Sep2000                   
   VRHFIN =B: s2p1                                                                                  
   LEXCH  = PE                                                                                      
   EATOM  =    71.1703 eV,    5.2309 Ry                                                             
                                                                                                    
   TITEL  = PAW_PBE B 06Sep2000                                                                     
   LULTRA =        F    use ultrasoft PP ?                                                          
   IUNSCR =        1    unscreen: 0-lin 1-nonlin 2-no                                               
   RPACOR =    1.200    partial core radius                                                         
   POMASS =   10.811; ZVAL   =    3.000    mass and valenz                                          
   RCORE  =    1.700    outmost cutoff radius                                                       
   RWIGS  =    1.710; RWIGS  =    0.905    wigner-seitz radius (au A)                               
   ENMAX  =  318.614; ENMIN  =  238.960 eV                                                          
   ICORE  =        2    local potential                                                             
   LCOR   =        T    correct aug charges                                                         
   LPAW   =        T    paw PP                                                                      
   EAUG   =  535.514                                                                                
   DEXC   =    0.000                                                                                
   RMAX   =    1.732    core radius for proj-oper                                                   
   RAUG   =    1.300    factor for augmentation sphere                                              
   RDEP   =    1.757    radius for radial grids                                                     
   RDEPT  =    1.436    core radius for aug-charge                                                  
                                                                                                    
   Atomic configuration                                                                             
    4 entries                                                                                       
     n  l   j            E        occ.                                                              
     1  0  0.50      -180.5896   2.0000                                                             
     2  0  0.50        -9.4431   2.0000                                                             
     2  1  0.50        -3.6068   1.0000                                                             
     3  2  1.50        -4.0817   0.0000                                                             
   Description                                                                                      
     l       E           TYP  RCUT    TYP  RCUT                                                     
     0     -9.4430752     23  1.500                                                                 
     0      0.8675899     23  1.500                                                                 
     1     -3.6067955     23  1.700                                                                 
     1      6.1086146     23  1.700                                                                 
     2     -4.0817478      7  1.700                                                                 
  local pseudopotential read in
  partial core-charges read in
  partial kinetic energy density read in
  atomic valenz-charges read in
  non local Contribution for L=           0  read in
    real space projection operators read in
  non local Contribution for L=           0  read in
    real space projection operators read in
  non local Contribution for L=           1  read in
    real space projection operators read in
  non local Contribution for L=           1  read in
    real space projection operators read in
    PAW grid and wavefunctions read in
 
   number of l-projection  operators is LMAX  =           4
   number of lm-projection operators is LMMAX =           8
 
 POTCAR:    PAW_PBE Mo_sv 02Feb2006               
   VRHFIN =Mo: 4p5s4d                                                                               
   LEXCH  = PE                                                                                      
   EATOM  =  1862.2866 eV,  136.8742 Ry                                                             
                                                                                                    
   TITEL  = PAW_PBE Mo_sv 02Feb2006                                                                 
   LULTRA =        F    use ultrasoft PP ?                                                          
   IUNSCR =        1    unscreen: 0-lin 1-nonlin 2-no                                               
   RPACOR =    2.200    partial core radius                                                         
   POMASS =   95.940; ZVAL   =   14.000    mass and valenz                                          
   RCORE  =    2.500    outmost cutoff radius                                                       
   RWIGS  =    2.750; RWIGS  =    1.455    wigner-seitz radius (au A)                               
   ENMAX  =  242.676; ENMIN  =  182.007 eV                                                          
   ICORE  =        3    local potential                                                             
   LCOR   =        T    correct aug charges                                                         
   LPAW   =        T    paw PP                                                                      
   EAUG   =  446.014                                                                                
   DEXC   =    0.000                                                                                
   RMAX   =    2.563    core radius for proj-oper                                                   
   RAUG   =    1.300    factor for augmentation sphere                                              
   RDEP   =    2.641    radius for radial grids                                                     
   RDEPT  =    2.031    core radius for aug-charge                                                  
                                                                                                    
   Atomic configuration                                                                             
   11 entries                                                                                       
     n  l   j            E        occ.                                                              
     1  0  0.50    -19819.0341   2.0000                                                             
     2  0  0.50     -2799.0127   2.0000                                                             
     2  1  1.50     -2502.0276   6.0000                                                             
     3  0  0.50      -476.4449   2.0000                                                             
     3  1  1.50      -379.1496   6.0000                                                             
     3  2  2.50      -220.9367  10.0000                                                             
     4  0  0.50       -64.3378   2.0000                                                             
     5  0  0.50        -4.0862   1.0000                                                             
     4  1  1.50       -38.4773   6.0000                                                             
     4  2  2.50        -3.7535   5.0000                                                             
     4  3  2.50        -1.3606   0.0000                                                             
   Description                                                                                      
     l       E           TYP  RCUT    TYP  RCUT                                                     
     0    -64.3377829     23  2.100                                                                 
     0     -4.0861640     23  2.400                                                                 
     1    -38.4772993     23  2.100                                                                 
     1     13.6058260     23  2.100                                                                 
     2     -3.7534941     23  2.400                                                                 
     2     -5.1140767     23  2.400                                                                 
     3     -4.0817478     23  2.500                                                                 
  local pseudopotential read in
  partial core-charges read in
  partial kinetic energy density read in
  atomic valenz-charges read in
  non local Contribution for L=           0  read in
    real space projection operators read in
  non local Contribution for L=           0  read in
    real space projection operators read in
  non local Contribution for L=           1  read in
    real space projection operators read in
  non local Contribution for L=           1  read in
    real space projection operators read in
  non local Contribution for L=           2  read in
    real space projection operators read in
  non local Contribution for L=           2  read in
    real space projection operators read in
    PAW grid and wavefunctions read in
 
   number of l-projection  operators is LMAX  =           6
   number of lm-projection operators is LMMAX =          18
 
 POTCAR:    PAW_PBE Si 05Jan2001                  
   VRHFIN =Si: s2p2                                                                                 
   LEXCH  = PE                                                                                      
   EATOM  =   103.0669 eV,    7.5752 Ry                                                             
                                                                                                    
   TITEL  = PAW_PBE Si 05Jan2001                                                                    
   LULTRA =        F    use ultrasoft PP ?                                                          
   IUNSCR =        1    unscreen: 0-lin 1-nonlin 2-no                                               
   RPACOR =    1.500    partial core radius                                                         
   POMASS =   28.085; ZVAL   =    4.000    mass and valenz                                          
   RCORE  =    1.900    outmost cutoff radius                                                       
   RWIGS  =    2.480; RWIGS  =    1.312    wigner-seitz radius (au A)                               
   ENMAX  =  245.345; ENMIN  =  184.009 eV                                                          
   ICORE  =        2    local potential                                                             
   LCOR   =        T    correct aug charges                                                         
   LPAW   =        T    paw PP                                                                      
   EAUG   =  322.069                                                                                
   DEXC   =    0.000                                                                                
   RMAX   =    1.950    core radius for proj-oper                                                   
   RAUG   =    1.300    factor for augmentation sphere                                              
   RDEP   =    1.993    radius for radial grids                                                     
   RDEPT  =    1.837    core radius for aug-charge                                                  
                                                                                                    
   Atomic configuration                                                                             
    6 entries                                                                                       
     n  l   j            E        occ.                                                              
     1  0  0.50     -1785.8828   2.0000                                                             
     2  0  0.50      -139.4969   2.0000                                                             
     2  1  1.50       -95.5546   6.0000                                                             
     3  0  0.50       -10.8127   2.0000                                                             
     3  1  0.50        -4.0811   2.0000                                                             
     3  2  1.50        -4.0817   0.0000                                                             
   Description                                                                                      
     l       E           TYP  RCUT    TYP  RCUT                                                     
     0    -10.8127223     23  1.900                                                                 
     0     -7.6451159     23  1.900                                                                 
     1     -4.0811372     23  1.900                                                                 
     1      2.4879257     23  1.900                                                                 
     2     -4.0817478      7  1.900                                                                 
  local pseudopotential read in
  partial core-charges read in
  partial kinetic energy density read in
  atomic valenz-charges read in
  non local Contribution for L=           0  read in
    real space projection operators read in
  non local Contribution for L=           0  read in
    real space projection operators read in
  non local Contribution for L=           1  read in
    real space projection operators read in
  non local Contribution for L=           1  read in
    real space projection operators read in
    PAW grid and wavefunctions read in
 
   number of l-projection  operators is LMAX  =           4
   number of lm-projection operators is LMMAX =           8
 
  PAW_PBE B 06Sep2000                   :
 energy of atom  1       EATOM=  -71.1703
 kinetic energy error for atom=    0.0007 (will be added to EATOM!!)
  PAW_PBE Mo_sv 02Feb2006               :
 energy of atom  2       EATOM=-1862.2866
 kinetic energy error for atom=    0.0041 (will be added to EATOM!!)
  PAW_PBE Si 05Jan2001                  :
 energy of atom  3       EATOM= -103.0669
 kinetic energy error for atom=    0.0003 (will be added to EATOM!!)
 
 
 POSCAR: EA80
  positions in direct lattice
  No initial velocities read in

 METAGGA = R2SCA    LMAXTAU =  6    LMIXTAU =  F

 exchange correlation table for  LEXCH =        8
   RHO(1)=    0.500       N(1)  =     2000
   RHO(2)=  100.500       N(2)  =     4000
 


--------------------------------------------------------------------------------------------------------


 ion  position               nearest neighbor table
   1  0.000  0.000  0.000-   3 2.07   5 2.07
   2  0.500  0.500  0.000-   3 2.07   5 2.07
   3  0.250  0.250  0.000-   1 2.07   2 2.07   6 2.20   8 2.20   7 2.20   4 2.20  10 3.11   9 3.11
                             9 3.11  10 3.11
   4  0.000  0.500  0.000-   9 2.20  10 2.20   3 2.20   5 2.20   6 3.11   8 3.11   8 3.11   6 3.11

   5  0.750  0.750  0.000-   1 2.07   2 2.07   8 2.20   6 2.20   4 2.20   7 2.20  10 3.11   9 3.11
                            10 3.11   9 3.11
   6  0.500  0.500  0.500-   5 2.20   3 2.20  10 2.20   9 2.20   7 3.11   4 3.11   7 3.11   4 3.11

   7  0.500  0.000  0.000-  10 2.20   9 2.20   3 2.20   5 2.20   6 3.11   8 3.11   6 3.11   8 3.11

   8  0.000  0.000  0.500-   3 2.20   5 2.20  10 2.20   9 2.20   7 3.11   4 3.11   4 3.11   7 3.11

   9  0.250  0.750  0.500-   7 2.20   4 2.20   8 2.20   6 2.20   3 3.11   5 3.11   3 3.11   5 3.11

  10  0.750  0.250  0.500-   4 2.20   7 2.20   8 2.20   6 2.20   5 3.11   3 3.11   5 3.11   3 3.11

 
  LATTYP: Found a face centered orthorhombic cell.
 ALAT       =     8.2719448793
 B/A-ratio  =     1.0633368032
 C/A-ratio  =     1.0633454948
  
  Lattice vectors:
  
 A1 = (   5.3310205027,   0.0000000000,   3.2037701674)
 A2 = (   5.3310205027,   0.0000000000,  -2.8334798326)
 A3 = (   3.4055993800,   4.9711701943,   0.3702903347)


Analysis of symmetry for initial positions (statically):
=====================================================================
 Subroutine PRICEL returns following result:
 
  LATTYP: Found a simple tetragonal cell.
 ALAT       =     4.3979676603
 C/A-ratio  =     0.9404281157
  
  Lattice vectors:
  
 A1 = (  -3.6282208127,   2.4855850972,   0.0000000000)
 A2 = (   1.7027996900,   2.4855850972,   3.2037701674)
 A3 = (   1.7027996900,   2.4855850972,  -2.8334798326)
 
   2 primitive cells build up your supercell.
 

 Routine SETGRP: Setting up the symmetry group for a 
 face centered orthorhombic supercell.


 Subroutine GETGRP returns: Found  8 space group operations
 (whereof  8 operations were pure point group operations)
 out of a pool of  8 trial point group operations.


The static configuration has the point symmetry D_2h.


Analysis of symmetry for dynamics (positions and initial velocities):
=====================================================================
 Subroutine PRICEL returns following result:
 
  LATTYP: Found a simple tetragonal cell.
 ALAT       =     4.3979676603
 C/A-ratio  =     0.9404281157
  
  Lattice vectors:
  
 A1 = (  -3.6282208127,   2.4855850972,   0.0000000000)
 A2 = (   1.7027996900,   2.4855850972,   3.2037701674)
 A3 = (   1.7027996900,   2.4855850972,  -2.8334798326)
 
   2 primitive cells build up your supercell.
 

 Routine SETGRP: Setting up the symmetry group for a 
 face centered orthorhombic supercell.


 Subroutine GETGRP returns: Found  8 space group operations
 (whereof  8 operations were pure point group operations)
 out of a pool of  8 trial point group operations.


The dynamic configuration has the point symmetry D_2h.


 Subroutine INISYM returns: Found  8 space group operations
 (whereof  8 operations are pure point group operations),
 and found     2 'primitive' translations


----------------------------------------------------------------------------------------

                                     Primitive cell                                     

  volume of cell :      79.9978

  direct lattice vectors                    reciprocal lattice vectors
    -3.628220813  2.485585097  0.000000000    -0.187581346  0.128506346  0.000000000
     1.702799690  2.485585097  3.203770167     0.088038090  0.128509634  0.165638329
     1.702799690  2.485585097 -2.833479833     0.099543256  0.145303781 -0.165638329

  length of vectors
     4.397967660  4.397931712  4.135972440     0.227377752  0.227379611  0.241781108

  position of ions in fractional coordinates (direct lattice)
     0.000000000  0.000000000  0.000000000
     0.000000000  0.000000000  0.500000000
     0.500000000  0.000000000  0.500000000
     0.000000000  0.500000000  0.500000000
     0.500000000  0.500000000  0.500000000

  ion indices of the primitive-cell ions
   primitive index   ion index
                 1           1
                 2           3
                 3           4
                 4           8
                 5           9

----------------------------------------------------------------------------------------

 
 
 KPOINTS: EA                                      

Automatic generation of k-mesh.
 Grid dimensions read from file:
 generate k-points for:    7    7    8

 Generating k-lattice:

  Cartesian coordinates                     Fractional coordinates (reciprocal lattice)
     0.026797335  0.010379076  0.000000000     0.142857143  0.000000000  0.000000000
     0.000000000  0.028737126  0.000000000     0.000000000  0.142857143  0.000000000
     0.011004761  0.016063704  0.020704791    -0.000000000  0.000000000  0.125000000

  Length of vectors
     0.028737126  0.028737126  0.028422451

  Shift w.r.t. Gamma in fractional coordinates (k-lattice)
     0.000000000  0.000000000  0.000000000

 -----------------------------------------------------------------------------
|                                                                             |
|           W    W    AA    RRRRR   N    N  II  N    N   GGGG   !!!           |
|           W    W   A  A   R    R  NN   N  II  NN   N  G    G  !!!           |
|           W    W  A    A  R    R  N N  N  II  N N  N  G       !!!           |
|           W WW W  AAAAAA  RRRRR   N  N N  II  N  N N  G  GGG   !            |
|           WW  WW  A    A  R   R   N   NN  II  N   NN  G    G                |
|           W    W  A    A  R    R  N    N  II  N    N   GGGG   !!!           |
|                                                                             |
|     Your reciprocal lattice and k-lattice belong to different lattice       |
|     classes:                                                                |
|                                                                             |
|        The reciprocal lattice is body-centered orthorhombic,                |
|        whereas your k-lattice is base-centered monoclinic.                  |
|                                                                             |
|     Results are often still useful ...                                      |
|                                                                             |
 -----------------------------------------------------------------------------

 WARNING: IBZKPT: internal override: KBLOWUP is changed to .FALSE.
      ... skipping the blow-up phase ...

 
 Subroutine IBZKPT returns following result:
 ===========================================
 
 Found    116 irreducible k-points:
 
 Following reciprocal coordinates:
            Coordinates               Weight
  0.000000  0.000000  0.000000      1.000000
  0.142857  0.000000  0.000000      4.000000
  0.285714  0.000000  0.000000      4.000000
  0.428571  0.000000  0.000000      4.000000
  0.142857  0.142857  0.000000      2.000000
  0.285714  0.142857  0.000000      4.000000
  0.428571  0.142857  0.000000      4.000000
 -0.428571  0.142857  0.000000      4.000000
 -0.285714  0.142857  0.000000      4.000000
 -0.142857  0.142857  0.000000      2.000000
  0.285714  0.285714  0.000000      2.000000
  0.428571  0.285714  0.000000      4.000000
 -0.428571  0.285714  0.000000      4.000000
 -0.285714  0.285714  0.000000      2.000000
  0.428571  0.428571  0.000000      2.000000
 -0.428571  0.428571  0.000000      2.000000
 -0.000000  0.000000  0.125000      2.000000
  0.142857  0.000000  0.125000      4.000000
  0.285714  0.000000  0.125000      4.000000
  0.428571 -0.000000  0.125000      4.000000
 -0.428571  0.000000  0.125000      4.000000
 -0.285714  0.000000  0.125000      4.000000
 -0.142857  0.000000  0.125000      4.000000
  0.142857  0.142857  0.125000      2.000000
  0.285714  0.142857  0.125000      4.000000
  0.428571  0.142857  0.125000      4.000000
 -0.428571  0.142857  0.125000      4.000000
 -0.285714  0.142857  0.125000      4.000000
 -0.142857  0.142857  0.125000      4.000000
  0.285714  0.285714  0.125000      2.000000
  0.428571  0.285714  0.125000      4.000000
 -0.428571  0.285714  0.125000      4.000000
 -0.285714  0.285714  0.125000      4.000000
 -0.142857  0.285714  0.125000      4.000000
  0.428571  0.428571  0.125000      2.000000
 -0.428571  0.428571  0.125000      4.000000
 -0.285714  0.428571  0.125000      4.000000
 -0.142857  0.428571  0.125000      4.000000
 -0.428571 -0.428571  0.125000      2.000000
 -0.285714 -0.428571  0.125000      4.000000
 -0.142857 -0.428571  0.125000      4.000000
 -0.285714 -0.285714  0.125000      2.000000
 -0.142857 -0.285714  0.125000      4.000000
 -0.142857 -0.142857  0.125000      2.000000
 -0.000000  0.000000  0.250000      2.000000
  0.142857  0.000000  0.250000      4.000000
  0.285714  0.000000  0.250000      4.000000
  0.428571  0.000000  0.250000      4.000000
 -0.428571  0.000000  0.250000      4.000000
 -0.285714  0.000000  0.250000      4.000000
 -0.142857  0.000000  0.250000      4.000000
  0.142857  0.142857  0.250000      2.000000
  0.285714  0.142857  0.250000      4.000000
  0.428571  0.142857  0.250000      4.000000
 -0.428571  0.142857  0.250000      4.000000
 -0.285714  0.142857  0.250000      4.000000
 -0.142857  0.142857  0.250000      4.000000
  0.285714  0.285714  0.250000      2.000000
  0.428571  0.285714  0.250000      4.000000
 -0.428571  0.285714  0.250000      4.000000
 -0.285714  0.285714  0.250000      4.000000
 -0.142857  0.285714  0.250000      4.000000
  0.428571  0.428571  0.250000      2.000000
 -0.428571  0.428571  0.250000      4.000000
 -0.285714  0.428571  0.250000      4.000000
 -0.142857  0.428571  0.250000      4.000000
 -0.428571 -0.428571  0.250000      2.000000
 -0.285714 -0.428571  0.250000      4.000000
 -0.142857 -0.428571  0.250000      4.000000
 -0.285714 -0.285714  0.250000      2.000000
 -0.142857 -0.285714  0.250000      4.000000
 -0.142857 -0.142857  0.250000      2.000000
 -0.000000  0.000000  0.375000      2.000000
  0.142857  0.000000  0.375000      4.000000
  0.285714 -0.000000  0.375000      4.000000
  0.428571  0.000000  0.375000      4.000000
 -0.428571  0.000000  0.375000      4.000000
 -0.285714  0.000000  0.375000      4.000000
 -0.142857  0.000000  0.375000      4.000000
  0.142857  0.142857  0.375000      2.000000
  0.285714  0.142857  0.375000      4.000000
  0.428571  0.142857  0.375000      4.000000
 -0.428571  0.142857  0.375000      4.000000
 -0.285714  0.142857  0.375000      4.000000
 -0.142857  0.142857  0.375000      4.000000
  0.285714  0.285714  0.375000      2.000000
  0.428571  0.285714  0.375000      4.000000
 -0.428571  0.285714  0.375000      4.000000
 -0.285714  0.285714  0.375000      4.000000
 -0.142857  0.285714  0.375000      4.000000
  0.428571  0.428571  0.375000      2.000000
 -0.428571  0.428571  0.375000      4.000000
 -0.285714  0.428571  0.375000      4.000000
 -0.142857  0.428571  0.375000      4.000000
 -0.428571 -0.428571  0.375000      2.000000
 -0.285714 -0.428571  0.375000      4.000000
 -0.142857 -0.428571  0.375000      4.000000
 -0.285714 -0.285714  0.375000      2.000000
 -0.142857 -0.285714  0.375000      4.000000
 -0.142857 -0.142857  0.375000      2.000000
 -0.000000  0.000000  0.500000      1.000000
  0.142857  0.000000  0.500000      4.000000
  0.285714  0.000000  0.500000      4.000000
  0.428571  0.000000  0.500000      4.000000
  0.142857  0.142857  0.500000      2.000000
  0.285714  0.142857  0.500000      4.000000
  0.428571  0.142857  0.500000      4.000000
 -0.428571  0.142857  0.500000      4.000000
 -0.285714  0.142857  0.500000      4.000000
 -0.142857  0.142857  0.500000      2.000000
  0.285714  0.285714  0.500000      2.000000
  0.428571  0.285714  0.500000      4.000000
 -0.428571  0.285714  0.500000      4.000000
 -0.285714  0.285714  0.500000      2.000000
  0.428571  0.428571  0.500000      2.000000
 -0.428571  0.428571  0.500000      2.000000
 
 Following cartesian coordinates:
            Coordinates               Weight
  0.000000  0.000000  0.000000      1.000000
  0.026797  0.010379  0.000000      4.000000
  0.053595  0.020758  0.000000      4.000000
  0.080392  0.031137  0.000000      4.000000
  0.026797  0.039116  0.000000      2.000000
  0.053595  0.049495  0.000000      4.000000
  0.080392  0.059874  0.000000      4.000000
 -0.080392 -0.002400  0.000000      4.000000
 -0.053595  0.007979  0.000000      4.000000
 -0.026797  0.018358  0.000000      2.000000
  0.053595  0.078232  0.000000      2.000000
  0.080392  0.088611  0.000000      4.000000
 -0.080392  0.026337  0.000000      4.000000
 -0.053595  0.036716  0.000000      2.000000
  0.080392  0.117349  0.000000      2.000000
 -0.080392  0.055074  0.000000      2.000000
  0.011005  0.016064  0.020705      2.000000
  0.037802  0.026443  0.020705      4.000000
  0.064599  0.036822  0.020705      4.000000
  0.091397  0.047201  0.020705      4.000000
 -0.069387 -0.015074  0.020705      4.000000
 -0.042590 -0.004694  0.020705      4.000000
 -0.015793  0.005685  0.020705      4.000000
  0.037802  0.055180  0.020705      2.000000
  0.064599  0.065559  0.020705      4.000000
  0.091397  0.075938  0.020705      4.000000
 -0.069387  0.013664  0.020705      4.000000
 -0.042590  0.024043  0.020705      4.000000
 -0.015793  0.034422  0.020705      4.000000
  0.064599  0.094296  0.020705      2.000000
  0.091397  0.104675  0.020705      4.000000
 -0.069387  0.042401  0.020705      4.000000
 -0.042590  0.052780  0.020705      4.000000
 -0.015793  0.063159  0.020705      4.000000
  0.091397  0.133412  0.020705      2.000000
 -0.069387  0.071138  0.020705      4.000000
 -0.042590  0.081517  0.020705      4.000000
 -0.015793  0.091896  0.020705      4.000000
 -0.069387 -0.101285  0.020705      2.000000
 -0.042590 -0.090906  0.020705      4.000000
 -0.015793 -0.080527  0.020705      4.000000
 -0.042590 -0.062169  0.020705      2.000000
 -0.015793 -0.051790  0.020705      4.000000
 -0.015793 -0.023052  0.020705      2.000000
  0.022010  0.032127  0.041410      2.000000
  0.048807  0.042506  0.041410      4.000000
  0.075604  0.052886  0.041410      4.000000
  0.102402  0.063265  0.041410      4.000000
 -0.058382  0.000990  0.041410      4.000000
 -0.031585  0.011369  0.041410      4.000000
 -0.004788  0.021748  0.041410      4.000000
  0.048807  0.071244  0.041410      2.000000
  0.075604  0.081623  0.041410      4.000000
  0.102402  0.092002  0.041410      4.000000
 -0.058382  0.029727  0.041410      4.000000
 -0.031585  0.040106  0.041410      4.000000
 -0.004788  0.050485  0.041410      4.000000
  0.075604  0.110360  0.041410      2.000000
  0.102402  0.120739  0.041410      4.000000
 -0.058382  0.058464  0.041410      4.000000
 -0.031585  0.068844  0.041410      4.000000
 -0.004788  0.079223  0.041410      4.000000
  0.102402  0.149476  0.041410      2.000000
 -0.058382  0.087202  0.041410      4.000000
 -0.031585  0.097581  0.041410      4.000000
 -0.004788  0.107960  0.041410      4.000000
 -0.058382 -0.085221  0.041410      2.000000
 -0.031585 -0.074842  0.041410      4.000000
 -0.004788 -0.064463  0.041410      4.000000
 -0.031585 -0.046105  0.041410      2.000000
 -0.004788 -0.035726  0.041410      4.000000
 -0.004788 -0.006989  0.041410      2.000000
  0.033014  0.048191  0.062114      2.000000
  0.059812  0.058570  0.062114      4.000000
  0.086609  0.068949  0.062114      4.000000
  0.113406  0.079328  0.062114      4.000000
 -0.047378  0.017054  0.062114      4.000000
 -0.020580  0.027433  0.062114      4.000000
  0.006217  0.037812  0.062114      4.000000
  0.059812  0.087307  0.062114      2.000000
  0.086609  0.097686  0.062114      4.000000
  0.113406  0.108065  0.062114      4.000000
 -0.047378  0.045791  0.062114      4.000000
 -0.020580  0.056170  0.062114      4.000000
  0.006217  0.066549  0.062114      4.000000
  0.086609  0.126424  0.062114      2.000000
  0.113406  0.136803  0.062114      4.000000
 -0.047378  0.074528  0.062114      4.000000
 -0.020580  0.084907  0.062114      4.000000
  0.006217  0.095286  0.062114      4.000000
  0.113406  0.165540  0.062114      2.000000
 -0.047378  0.103265  0.062114      4.000000
 -0.020580  0.113644  0.062114      4.000000
  0.006217  0.124023  0.062114      4.000000
 -0.047378 -0.069157  0.062114      2.000000
 -0.020580 -0.058778  0.062114      4.000000
  0.006217 -0.048399  0.062114      4.000000
 -0.020580 -0.030041  0.062114      2.000000
  0.006217 -0.019662  0.062114      4.000000
  0.006217  0.009075  0.062114      2.000000
  0.044019  0.064255  0.082819      1.000000
  0.070816  0.074634  0.082819      4.000000
  0.097614  0.085013  0.082819      4.000000
  0.124411  0.095392  0.082819      4.000000
  0.070816  0.103371  0.082819      2.000000
  0.097614  0.113750  0.082819      4.000000
  0.124411  0.124129  0.082819      4.000000
 -0.036373  0.061855  0.082819      4.000000
 -0.009576  0.072234  0.082819      4.000000
  0.017222  0.082613  0.082819      2.000000
  0.097614  0.142487  0.082819      2.000000
  0.124411  0.152866  0.082819      4.000000
 -0.036373  0.090592  0.082819      4.000000
 -0.009576  0.100971  0.082819      2.000000
  0.124411  0.181603  0.082819      2.000000
 -0.036373  0.119329  0.082819      2.000000
 


--------------------------------------------------------------------------------------------------------




 Dimension of arrays:
   k-points           NKPTS =    116   k-points in BZ     NKDIM =    116   number of bands    NBANDS=     60
   number of dos      NEDOS =    301   number of ions     NIONS =     10
   non local maximal  LDIM  =      6   non local SUM 2l+1 LMDIM =     18
   total plane-waves  NPLWV = 110592
   max r-space proj   IRMAX =      1   max aug-charges    IRDMAX= 241996
   dimension x,y,z NGX =    48 NGY =   48 NGZ =   48
   dimension x,y,z NGXF=    96 NGYF=   96 NGZF=   96
   support grid    NGXF=   192 NGYF=  192 NGZF=  192
   ions per type =               2   6   2
   NGX,Y,Z   is equivalent  to a cutoff of  13.22, 13.22, 13.22 a.u.
   NGXF,Y,Z  is equivalent  to a cutoff of  26.44, 26.44, 26.44 a.u.

 SYSTEM =  routine with relax: pwdword             
 POSCAR =  EA80                                    

 Startparameter for this run:
   NWRITE =      2    write-flag & timer
   PREC   = acc       normal or accurate (medium, high low for compatibility)
   ISTART =      0    job   : 0-new  1-cont  2-samecut
   ICHARG =      2    charge: 1-file 2-atom 10-const
   ISPIN  =      1    spin polarized calculation?
   LNONCOLLINEAR =      F non collinear calculations
   LSORBIT =      F    spin-orbit coupling
   INIWAV =      1    electr: 0-lowe 1-rand  2-diag
   LASPH  =      T    aspherical Exc in radial PAW
   METAGGA=      F    non-selfconsistent MetaGGA calc.

 Electronic Relaxation 1
   ENCUT  =  600.0 eV  44.10 Ry    6.64 a.u.  12.06 12.06 12.06*2*pi/ulx,y,z
   ENINI  =  600.0     initial cutoff
   ENAUG  =  535.5 eV  augmentation charge cutoff
   NELM   =    100;   NELMIN=  6; NELMDL= -5     # of ELM steps 
   EDIFF  = 0.1E-08   stopping-criterion for ELM
   LREAL  =      F    real-space projection
   NLSPLINE    = F    spline interpolate recip. space projectors
   LCOMPAT=      F    compatible to vasp.4.4
   GGA_COMPAT  = T    GGA compatible to vasp.4.4-vasp.4.6
   LMAXPAW     = -100 max onsite density
   LMAXMIX     =    2 max onsite mixed and CHGCAR
   VOSKOWN=      0    Vosko Wilk Nusair interpolation
   ROPT   =    0.00000   0.00000   0.00000
 Ionic relaxation
   EDIFFG = 0.1E-07   stopping-criterion for IOM
   NSW    =      0    number of steps for IOM
   NBLOCK =      1;   KBLOCK =      1    inner block; outer block 
   IBRION =     -1    ionic relax: 0-MD 1-quasi-New 2-CG
   NFREE  =      0    steps in history (QN), initial steepest desc. (CG)
   ISIF   =     -1    stress and relaxation
   IWAVPR =     10    prediction:  0-non 1-charg 2-wave 3-comb
   ISYM   =      2    0-nonsym 1-usesym 2-fastsym
   LCORR  =      T    Harris-Foulkes like correction to forces

   POTIM  = 0.5000    time-step for ionic-motion
   TEIN   =    0.0    initial temperature
   TEBEG  =    0.0;   TEEND  =   0.0 temperature during run
   SMASS  =  -3.00    Nose mass-parameter (am)
   estimated Nose-frequenzy (Omega)   =  0.10E-29 period in steps = 0.13E+47 mass=  -0.833E-27a.u.
   SCALEE = 1.0000    scale energy and forces
   NPACO  =    256;   APACO  = 16.0  distance and # of slots for P.C.
   PSTRESS=    0.0 pullay stress

  Mass of Ions in am
   POMASS =  10.81 95.94 28.09
  Ionic Valenz
   ZVAL   =   3.00 14.00  4.00
  Atomic Wigner-Seitz radii
   RWIGS  =  -1.00 -1.00 -1.00
  virtual crystal weights 
   VCA    =   1.00  1.00  1.00
   NELECT =      98.0000    total number of electrons
   NUPDOWN=      -1.0000    fix difference up-down

 DOS related values:
   EMIN   =  10.00;   EMAX   =-10.00  energy-range for DOS
   EFERMI =   0.00
   ISMEAR =     0;   SIGMA  =   0.02  broadening in eV -4-tet -1-fermi 0-gaus

 Electronic relaxation 2 (details)
   IALGO  =     58    algorithm
   LDIAG  =      T    sub-space diagonalisation (order eigenvalues)
   LSUBROT=      F    optimize rotation matrix (better conditioning)
   TURBO    =      0    0=normal 1=particle mesh
   IRESTART =      0    0=no restart 2=restart with 2 vectors
   NREBOOT  =      0    no. of reboots
   NMIN     =      0    reboot dimension
   EREF     =   0.00    reference energy to select bands
   IMIX   =      4    mixing-type and parameters
     AMIX     =   0.40;   BMIX     =  1.00
     AMIX_MAG =   1.60;   BMIX_MAG =  1.00
     AMIN     =   0.10
     WC   =   100.;   INIMIX=   1;  MIXPRE=   1;  MAXMIX= -45

 Intra band minimization:
   WEIMIN = 0.0000     energy-eigenvalue tresh-hold
   EBREAK =  0.42E-11  absolut break condition
   DEPER  =   0.30     relativ break condition  

   TIME   =   0.40     timestep for ELM

  volume/ion in A,a.u.               =      16.00       107.97
  Fermi-wavevector in a.u.,A,eV,Ry     =   1.390318  2.627320 26.299845  1.932984
  Thomas-Fermi vector in A             =   2.514265
 
 Write flags
   LWAVE        =      T    write WAVECAR
   LDOWNSAMPLE  =      F    k-point downsampling of WAVECAR
   LCHARG       =      T    write CHGCAR
   LVTOT        =      F    write LOCPOT, total local potential
   LVHAR        =      F    write LOCPOT, Hartree potential only
   LELF         =      F    write electronic localiz. function (ELF)
   LORBIT       =      0    0 simple, 1 ext, 2 COOP (PROOUT), +10 PAW based schemes


 Dipole corrections
   LMONO  =      F    monopole corrections only (constant potential shift)
   LDIPOL =      F    correct potential (dipole corrections)
   IDIPOL =      0    1-x, 2-y, 3-z, 4-all directions 
   EPSILON=  1.0000000 bulk dielectric constant

 Exchange correlation treatment:
   GGA     =    --    GGA type
   LEXCH   =     8    internal setting for exchange type
   VOSKOWN=      0    Vosko Wilk Nusair interpolation
   LHFCALC =     F    Hartree Fock is set to
   LHFONE  =     F    Hartree Fock one center treatment
   AEXX    =    0.0000 exact exchange contribution

 Linear response parameters
   LEPSILON=     F    determine dielectric tensor
   LRPA    =     F    only Hartree local field effects (RPA)
   LNABLA  =     F    use nabla operator in PAW spheres
   LVEL    =     F    velocity operator in full k-point grid
   LINTERFAST=   F  fast interpolation
   KINTER  =     0    interpolate to denser k-point grid
   CSHIFT  =0.1000    complex shift for real part using Kramers Kronig
   OMEGAMAX=  -1.0    maximum frequency
   DEG_THRESHOLD= 0.2000000E-02 threshold for treating states as degnerate
   RTIME   =   -0.100 relaxation time in fs
  (WPLASMAI=    0.000 imaginary part of plasma frequency in eV, 0.658/RTIME)
   DFIELD  = 0.0000000 0.0000000 0.0000000 field for delta impulse in time
 
 Orbital magnetization related:
   ORBITALMAG=     F  switch on orbital magnetization
   LCHIMAG   =     F  perturbation theory with respect to B field
   DQ        =  0.001000  dq finite difference perturbation B field
   LLRAUG    =     F  two centre corrections for induced B field



--------------------------------------------------------------------------------------------------------


 Static calculation
 charge density and potential will be updated during run
 non-spin polarized calculation
 Conjugate gradient for all bands (Freysoldt, et al. PRB 79, 241103 (2009))
 preconditioned conjugated gradient                                        
 perform sub-space diagonalisation
    before iterative eigenvector-optimisation
 modified Broyden-mixing scheme, WC =      100.0
 initial mixing is a Kerker type mixing with AMIX =  0.4000 and BMIX =      1.0000
 Hartree-type preconditioning will be used
 using additional bands           11
 reciprocal scheme for non local part
 use partial core corrections
 no Harris-corrections to forces 
 use gradient corrections 
 use of overlap-Matrix (Vanderbilt PP)
 Gauss-broadening in eV      SIGMA  =   0.02


--------------------------------------------------------------------------------------------------------


  energy-cutoff  :      600.00
  volume of cell :      160.00
      direct lattice vectors                 reciprocal lattice vectors
     5.331020503  0.000000000 -2.833479833     0.187581346  0.072653535  0.000000000
    -1.925421123  4.971170194 -2.833479833     0.000000000  0.201159880  0.000000000
     0.000000000  0.000000000  6.037250000     0.088038090  0.128509634  0.165638329

  length of vectors
     6.037250000  6.037250000  6.037250000     0.201159880  0.201159880  0.227379611


 
 k-points in units of 2pi/SCALE and weight: EA                                      
   0.00000000  0.00000000  0.00000000       0.003
   0.02679734  0.01037908  0.00000000       0.010
   0.05359467  0.02075815  0.00000000       0.010
   0.08039201  0.03113723  0.00000000       0.010
   0.02679734  0.03911620  0.00000000       0.005
   0.05359467  0.04949528  0.00000000       0.010
   0.08039201  0.05987435  0.00000000       0.010
  -0.08039201 -0.00240010  0.00000000       0.010
  -0.05359467  0.00797897  0.00000000       0.010
  -0.02679734  0.01835805  0.00000000       0.005
   0.05359467  0.07823240  0.00000000       0.005
   0.08039201  0.08861148  0.00000000       0.010
  -0.08039201  0.02633702  0.00000000       0.010
  -0.05359467  0.03671610  0.00000000       0.005
   0.08039201  0.11734861  0.00000000       0.005
  -0.08039201  0.05507415  0.00000000       0.005
   0.01100476  0.01606370  0.02070479       0.005
   0.03780210  0.02644278  0.02070479       0.010
   0.06459943  0.03682186  0.02070479       0.010
   0.09139677  0.04720093  0.02070479       0.010
  -0.06938724 -0.01507352  0.02070479       0.010
  -0.04258991 -0.00469445  0.02070479       0.010
  -0.01579257  0.00568463  0.02070479       0.010
   0.03780210  0.05517991  0.02070479       0.005
   0.06459943  0.06555898  0.02070479       0.010
   0.09139677  0.07593806  0.02070479       0.010
  -0.06938724  0.01366360  0.02070479       0.010
  -0.04258991  0.02404268  0.02070479       0.010
  -0.01579257  0.03442175  0.02070479       0.010
   0.06459943  0.09429611  0.02070479       0.005
   0.09139677  0.10467518  0.02070479       0.010
  -0.06938724  0.04240073  0.02070479       0.010
  -0.04258991  0.05277980  0.02070479       0.010
  -0.01579257  0.06315888  0.02070479       0.010
   0.09139677  0.13341231  0.02070479       0.005
  -0.06938724  0.07113785  0.02070479       0.010
  -0.04258991  0.08151693  0.02070479       0.010
  -0.01579257  0.09189601  0.02070479       0.010
  -0.06938724 -0.10128490  0.02070479       0.005
  -0.04258991 -0.09090583  0.02070479       0.010
  -0.01579257 -0.08052675  0.02070479       0.010
  -0.04258991 -0.06216870  0.02070479       0.005
  -0.01579257 -0.05178962  0.02070479       0.010
  -0.01579257 -0.02305250  0.02070479       0.005
   0.02200952  0.03212741  0.04140958       0.005
   0.04880686  0.04250648  0.04140958       0.010
   0.07560419  0.05288556  0.04140958       0.010
   0.10240153  0.06326464  0.04140958       0.010
  -0.05838248  0.00099018  0.04140958       0.010
  -0.03158515  0.01136926  0.04140958       0.010
  -0.00478781  0.02174833  0.04140958       0.010
   0.04880686  0.07124361  0.04140958       0.005
   0.07560419  0.08162269  0.04140958       0.010
   0.10240153  0.09200176  0.04140958       0.010
  -0.05838248  0.02972731  0.04140958       0.010
  -0.03158515  0.04010638  0.04140958       0.010
  -0.00478781  0.05048546  0.04140958       0.010
   0.07560419  0.11035981  0.04140958       0.005
   0.10240153  0.12073889  0.04140958       0.010
  -0.05838248  0.05846443  0.04140958       0.010
  -0.03158515  0.06884351  0.04140958       0.010
  -0.00478781  0.07922258  0.04140958       0.010
   0.10240153  0.14947601  0.04140958       0.005
  -0.05838248  0.08720156  0.04140958       0.010
  -0.03158515  0.09758063  0.04140958       0.010
  -0.00478781  0.10795971  0.04140958       0.010
  -0.05838248 -0.08522120  0.04140958       0.005
  -0.03158515 -0.07484212  0.04140958       0.010
  -0.00478781 -0.06446305  0.04140958       0.010
  -0.03158515 -0.04610500  0.04140958       0.005
  -0.00478781 -0.03572592  0.04140958       0.010
  -0.00478781 -0.00698879  0.04140958       0.005
   0.03301428  0.04819111  0.06211437       0.005
   0.05981162  0.05857019  0.06211437       0.010
   0.08660895  0.06894927  0.06211437       0.010
   0.11340629  0.07932834  0.06211437       0.010
  -0.04737772  0.01705388  0.06211437       0.010
  -0.02058039  0.02743296  0.06211437       0.010
   0.00621695  0.03781204  0.06211437       0.010
   0.05981162  0.08730731  0.06211437       0.005
   0.08660895  0.09768639  0.06211437       0.010
   0.11340629  0.10806547  0.06211437       0.010
  -0.04737772  0.04579101  0.06211437       0.010
  -0.02058039  0.05617009  0.06211437       0.010
   0.00621695  0.06654916  0.06211437       0.010
   0.08660895  0.12642352  0.06211437       0.005
   0.11340629  0.13680259  0.06211437       0.010
  -0.04737772  0.07452814  0.06211437       0.010
  -0.02058039  0.08490721  0.06211437       0.010
   0.00621695  0.09528629  0.06211437       0.010
   0.11340629  0.16553972  0.06211437       0.005
  -0.04737772  0.10326526  0.06211437       0.010
  -0.02058039  0.11364434  0.06211437       0.010
   0.00621695  0.12402341  0.06211437       0.010
  -0.04737772 -0.06915749  0.06211437       0.005
  -0.02058039 -0.05877842  0.06211437       0.010
   0.00621695 -0.04839934  0.06211437       0.010
  -0.02058039 -0.03004129  0.06211437       0.005
   0.00621695 -0.01966222  0.06211437       0.010
   0.00621695  0.00907491  0.06211437       0.005
   0.04401905  0.06425482  0.08281916       0.003
   0.07081638  0.07463389  0.08281916       0.010
   0.09761372  0.08501297  0.08281916       0.010
   0.12441105  0.09539205  0.08281916       0.010
   0.07081638  0.10337102  0.08281916       0.005
   0.09761372  0.11375010  0.08281916       0.010
   0.12441105  0.12412917  0.08281916       0.010
  -0.03637296  0.06185471  0.08281916       0.010
  -0.00957563  0.07223379  0.08281916       0.010
   0.01722171  0.08261287  0.08281916       0.005
   0.09761372  0.14248722  0.08281916       0.005
   0.12441105  0.15286630  0.08281916       0.010
  -0.03637296  0.09059184  0.08281916       0.010
  -0.00957563  0.10097092  0.08281916       0.005
   0.12441105  0.18160342  0.08281916       0.005
  -0.03637296  0.11932897  0.08281916       0.005
 
 k-points in reciprocal lattice and weights: EA                                      
   0.00000000  0.00000000  0.00000000       0.003
   0.14285714  0.00000000  0.00000000       0.010
   0.28571429  0.00000000  0.00000000       0.010
   0.42857143  0.00000000  0.00000000       0.010
   0.14285714  0.14285714  0.00000000       0.005
   0.28571429  0.14285714  0.00000000       0.010
   0.42857143  0.14285714  0.00000000       0.010
  -0.42857143  0.14285714  0.00000000       0.010
  -0.28571429  0.14285714  0.00000000       0.010
  -0.14285714  0.14285714  0.00000000       0.005
   0.28571429  0.28571429  0.00000000       0.005
   0.42857143  0.28571429  0.00000000       0.010
  -0.42857143  0.28571429  0.00000000       0.010
  -0.28571429  0.28571429  0.00000000       0.005
   0.42857143  0.42857143  0.00000000       0.005
  -0.42857143  0.42857143  0.00000000       0.005
  -0.00000000  0.00000000  0.12500000       0.005
   0.14285714  0.00000000  0.12500000       0.010
   0.28571429  0.00000000  0.12500000       0.010
   0.42857143 -0.00000000  0.12500000       0.010
  -0.42857143  0.00000000  0.12500000       0.010
  -0.28571429  0.00000000  0.12500000       0.010
  -0.14285714  0.00000000  0.12500000       0.010
   0.14285714  0.14285714  0.12500000       0.005
   0.28571429  0.14285714  0.12500000       0.010
   0.42857143  0.14285714  0.12500000       0.010
  -0.42857143  0.14285714  0.12500000       0.010
  -0.28571429  0.14285714  0.12500000       0.010
  -0.14285714  0.14285714  0.12500000       0.010
   0.28571429  0.28571429  0.12500000       0.005
   0.42857143  0.28571429  0.12500000       0.010
  -0.42857143  0.28571429  0.12500000       0.010
  -0.28571429  0.28571429  0.12500000       0.010
  -0.14285714  0.28571429  0.12500000       0.010
   0.42857143  0.42857143  0.12500000       0.005
  -0.42857143  0.42857143  0.12500000       0.010
  -0.28571429  0.42857143  0.12500000       0.010
  -0.14285714  0.42857143  0.12500000       0.010
  -0.42857143 -0.42857143  0.12500000       0.005
  -0.28571429 -0.42857143  0.12500000       0.010
  -0.14285714 -0.42857143  0.12500000       0.010
  -0.28571429 -0.28571429  0.12500000       0.005
  -0.14285714 -0.28571429  0.12500000       0.010
  -0.14285714 -0.14285714  0.12500000       0.005
  -0.00000000  0.00000000  0.25000000       0.005
   0.14285714  0.00000000  0.25000000       0.010
   0.28571429  0.00000000  0.25000000       0.010
   0.42857143  0.00000000  0.25000000       0.010
  -0.42857143  0.00000000  0.25000000       0.010
  -0.28571429  0.00000000  0.25000000       0.010
  -0.14285714  0.00000000  0.25000000       0.010
   0.14285714  0.14285714  0.25000000       0.005
   0.28571429  0.14285714  0.25000000       0.010
   0.42857143  0.14285714  0.25000000       0.010
  -0.42857143  0.14285714  0.25000000       0.010
  -0.28571429  0.14285714  0.25000000       0.010
  -0.14285714  0.14285714  0.25000000       0.010
   0.28571429  0.28571429  0.25000000       0.005
   0.42857143  0.28571429  0.25000000       0.010
  -0.42857143  0.28571429  0.25000000       0.010
  -0.28571429  0.28571429  0.25000000       0.010
  -0.14285714  0.28571429  0.25000000       0.010
   0.42857143  0.42857143  0.25000000       0.005
  -0.42857143  0.42857143  0.25000000       0.010
  -0.28571429  0.42857143  0.25000000       0.010
  -0.14285714  0.42857143  0.25000000       0.010
  -0.42857143 -0.42857143  0.25000000       0.005
  -0.28571429 -0.42857143  0.25000000       0.010
  -0.14285714 -0.42857143  0.25000000       0.010
  -0.28571429 -0.28571429  0.25000000       0.005
  -0.14285714 -0.28571429  0.25000000       0.010
  -0.14285714 -0.14285714  0.25000000       0.005
  -0.00000000  0.00000000  0.37500000       0.005
   0.14285714  0.00000000  0.37500000       0.010
   0.28571429 -0.00000000  0.37500000       0.010
   0.42857143  0.00000000  0.37500000       0.010
  -0.42857143  0.00000000  0.37500000       0.010
  -0.28571429  0.00000000  0.37500000       0.010
  -0.14285714  0.00000000  0.37500000       0.010
   0.14285714  0.14285714  0.37500000       0.005
   0.28571429  0.14285714  0.37500000       0.010
   0.42857143  0.14285714  0.37500000       0.010
  -0.42857143  0.14285714  0.37500000       0.010
  -0.28571429  0.14285714  0.37500000       0.010
  -0.14285714  0.14285714  0.37500000       0.010
   0.28571429  0.28571429  0.37500000       0.005
   0.42857143  0.28571429  0.37500000       0.010
  -0.42857143  0.28571429  0.37500000       0.010
  -0.28571429  0.28571429  0.37500000       0.010
  -0.14285714  0.28571429  0.37500000       0.010
   0.42857143  0.42857143  0.37500000       0.005
  -0.42857143  0.42857143  0.37500000       0.010
  -0.28571429  0.42857143  0.37500000       0.010
  -0.14285714  0.42857143  0.37500000       0.010
  -0.42857143 -0.42857143  0.37500000       0.005
  -0.28571429 -0.42857143  0.37500000       0.010
  -0.14285714 -0.42857143  0.37500000       0.010
  -0.28571429 -0.28571429  0.37500000       0.005
  -0.14285714 -0.28571429  0.37500000       0.010
  -0.14285714 -0.14285714  0.37500000       0.005
  -0.00000000  0.00000000  0.50000000       0.003
   0.14285714  0.00000000  0.50000000       0.010
   0.28571429  0.00000000  0.50000000       0.010
   0.42857143  0.00000000  0.50000000       0.010
   0.14285714  0.14285714  0.50000000       0.005
   0.28571429  0.14285714  0.50000000       0.010
   0.42857143  0.14285714  0.50000000       0.010
  -0.42857143  0.14285714  0.50000000       0.010
  -0.28571429  0.14285714  0.50000000       0.010
  -0.14285714  0.14285714  0.50000000       0.005
   0.28571429  0.28571429  0.50000000       0.005
   0.42857143  0.28571429  0.50000000       0.010
  -0.42857143  0.28571429  0.50000000       0.010
  -0.28571429  0.28571429  0.50000000       0.005
   0.42857143  0.42857143  0.50000000       0.005
  -0.42857143  0.42857143  0.50000000       0.005
 
 position of ions in fractional coordinates (direct lattice) 
   0.00000000  0.00000000  0.00000000
   0.50000000  0.50000000  0.00000000
   0.25000000  0.25000000  0.00000000
   0.00000000  0.50000000  0.00000000
   0.75000000  0.75000000  0.00000000
   0.50000000  0.50000000  0.50000000
   0.50000000  0.00000000  0.00000000
   0.00000000  0.00000000  0.50000000
   0.25000000  0.75000000  0.50000000
   0.75000000  0.25000000  0.50000000
 
 position of ions in cartesian coordinates  (Angst):
   0.00000000  0.00000000  0.00000000
   1.70279969  2.48558510 -2.83347983
   0.85139985  1.24279255 -1.41673992
  -0.96271056  2.48558510 -1.41673992
   2.55419954  3.72837765 -4.25021975
   1.70279969  2.48558510  0.18514517
   2.66551025  0.00000000 -1.41673992
   0.00000000  0.00000000  3.01862500
  -0.11131072  3.72837765  0.18514517
   3.51691010  1.24279255  0.18514517
 


--------------------------------------------------------------------------------------------------------


 k-point   1 :   0.0000 0.0000 0.0000  plane waves:    5345
 k-point   2 :   0.1429 0.0000 0.0000  plane waves:    5347
 k-point   3 :   0.2857 0.0000 0.0000  plane waves:    5326
 k-point   4 :   0.4286 0.0000 0.0000  plane waves:    5335
 k-point   5 :   0.1429 0.1429 0.0000  plane waves:    5344
 k-point   6 :   0.2857 0.1429 0.0000  plane waves:    5334
 k-point   7 :   0.4286 0.1429 0.0000  plane waves:    5325
 k-point   8 :  -0.4286 0.1429 0.0000  plane waves:    5332
 k-point   9 :  -0.2857 0.1429 0.0000  plane waves:    5337
 k-point  10 :  -0.1429 0.1429 0.0000  plane waves:    5345
 k-point  11 :   0.2857 0.2857 0.0000  plane waves:    5335
 k-point  12 :   0.4286 0.2857 0.0000  plane waves:    5338
 k-point  13 :  -0.4286 0.2857 0.0000  plane waves:    5329
 k-point  14 :  -0.2857 0.2857 0.0000  plane waves:    5324
 k-point  15 :   0.4286 0.4286 0.0000  plane waves:    5319
 k-point  16 :  -0.4286 0.4286 0.0000  plane waves:    5326
 k-point  17 :  -0.0000 0.0000 0.1250  plane waves:    5341
 k-point  18 :   0.1429 0.0000 0.1250  plane waves:    5335
 k-point  19 :   0.2857 0.0000 0.1250  plane waves:    5337
 k-point  20 :   0.4286-0.0000 0.1250  plane waves:    5328
 k-point  21 :  -0.4286 0.0000 0.1250  plane waves:    5330
 k-point  22 :  -0.2857 0.0000 0.1250  plane waves:    5339
 k-point  23 :  -0.1429 0.0000 0.1250  plane waves:    5345
 k-point  24 :   0.1429 0.1429 0.1250  plane waves:    5331
 k-point  25 :   0.2857 0.1429 0.1250  plane waves:    5330
 k-point  26 :   0.4286 0.1429 0.1250  plane waves:    5329
 k-point  27 :  -0.4286 0.1429 0.1250  plane waves:    5339
 k-point  28 :  -0.2857 0.1429 0.1250  plane waves:    5335
 k-point  29 :  -0.1429 0.1429 0.1250  plane waves:    5342
 k-point  30 :   0.2857 0.2857 0.1250  plane waves:    5340
 k-point  31 :   0.4286 0.2857 0.1250  plane waves:    5333
 k-point  32 :  -0.4286 0.2857 0.1250  plane waves:    5340
 k-point  33 :  -0.2857 0.2857 0.1250  plane waves:    5321
 k-point  34 :  -0.1429 0.2857 0.1250  plane waves:    5337
 k-point  35 :   0.4286 0.4286 0.1250  plane waves:    5317
 k-point  36 :  -0.4286 0.4286 0.1250  plane waves:    5343
 k-point  37 :  -0.2857 0.4286 0.1250  plane waves:    5345
 k-point  38 :  -0.1429 0.4286 0.1250  plane waves:    5339
 k-point  39 :  -0.4286-0.4286 0.1250  plane waves:    5347
 k-point  40 :  -0.2857-0.4286 0.1250  plane waves:    5343
 k-point  41 :  -0.1429-0.4286 0.1250  plane waves:    5343
 k-point  42 :  -0.2857-0.2857 0.1250  plane waves:    5345
 k-point  43 :  -0.1429-0.2857 0.1250  plane waves:    5336
 k-point  44 :  -0.1429-0.1429 0.1250  plane waves:    5335
 k-point  45 :  -0.0000 0.0000 0.2500  plane waves:    5318
 k-point  46 :   0.1429 0.0000 0.2500  plane waves:    5327
 k-point  47 :   0.2857 0.0000 0.2500  plane waves:    5334
 k-point  48 :   0.4286 0.0000 0.2500  plane waves:    5339
 k-point  49 :  -0.4286 0.0000 0.2500  plane waves:    5331
 k-point  50 :  -0.2857 0.0000 0.2500  plane waves:    5331
 k-point  51 :  -0.1429 0.0000 0.2500  plane waves:    5331
 k-point  52 :   0.1429 0.1429 0.2500  plane waves:    5339
 k-point  53 :   0.2857 0.1429 0.2500  plane waves:    5348
 k-point  54 :   0.4286 0.1429 0.2500  plane waves:    5333
 k-point  55 :  -0.4286 0.1429 0.2500  plane waves:    5326
 k-point  56 :  -0.2857 0.1429 0.2500  plane waves:    5326
 k-point  57 :  -0.1429 0.1429 0.2500  plane waves:    5321
 k-point  58 :   0.2857 0.2857 0.2500  plane waves:    5343
 k-point  59 :   0.4286 0.2857 0.2500  plane waves:    5334
 k-point  60 :  -0.4286 0.2857 0.2500  plane waves:    5337
 k-point  61 :  -0.2857 0.2857 0.2500  plane waves:    5336
 k-point  62 :  -0.1429 0.2857 0.2500  plane waves:    5341
 k-point  63 :   0.4286 0.4286 0.2500  plane waves:    5344
 k-point  64 :  -0.4286 0.4286 0.2500  plane waves:    5355
 k-point  65 :  -0.2857 0.4286 0.2500  plane waves:    5365
 k-point  66 :  -0.1429 0.4286 0.2500  plane waves:    5347
 k-point  67 :  -0.4286-0.4286 0.2500  plane waves:    5361
 k-point  68 :  -0.2857-0.4286 0.2500  plane waves:    5354
 k-point  69 :  -0.1429-0.4286 0.2500  plane waves:    5350
 k-point  70 :  -0.2857-0.2857 0.2500  plane waves:    5372
 k-point  71 :  -0.1429-0.2857 0.2500  plane waves:    5343
 k-point  72 :  -0.1429-0.1429 0.2500  plane waves:    5333
 k-point  73 :  -0.0000 0.0000 0.3750  plane waves:    5340
 k-point  74 :   0.1429 0.0000 0.3750  plane waves:    5329
 k-point  75 :   0.2857-0.0000 0.3750  plane waves:    5333
 k-point  76 :   0.4286 0.0000 0.3750  plane waves:    5338
 k-point  77 :  -0.4286 0.0000 0.3750  plane waves:    5331
 k-point  78 :  -0.2857 0.0000 0.3750  plane waves:    5334
 k-point  79 :  -0.1429 0.0000 0.3750  plane waves:    5331
 k-point  80 :   0.1429 0.1429 0.3750  plane waves:    5335
 k-point  81 :   0.2857 0.1429 0.3750  plane waves:    5332
 k-point  82 :   0.4286 0.1429 0.3750  plane waves:    5330
 k-point  83 :  -0.4286 0.1429 0.3750  plane waves:    5337
 k-point  84 :  -0.2857 0.1429 0.3750  plane waves:    5340
 k-point  85 :  -0.1429 0.1429 0.3750  plane waves:    5346
 k-point  86 :   0.2857 0.2857 0.3750  plane waves:    5342
 k-point  87 :   0.4286 0.2857 0.3750  plane waves:    5336
 k-point  88 :  -0.4286 0.2857 0.3750  plane waves:    5361
 k-point  89 :  -0.2857 0.2857 0.3750  plane waves:    5351
 k-point  90 :  -0.1429 0.2857 0.3750  plane waves:    5345
 k-point  91 :   0.4286 0.4286 0.3750  plane waves:    5359
 k-point  92 :  -0.4286 0.4286 0.3750  plane waves:    5374
 k-point  93 :  -0.2857 0.4286 0.3750  plane waves:    5362
 k-point  94 :  -0.1429 0.4286 0.3750  plane waves:    5352
 k-point  95 :  -0.4286-0.4286 0.3750  plane waves:    5357
 k-point  96 :  -0.2857-0.4286 0.3750  plane waves:    5363
 k-point  97 :  -0.1429-0.4286 0.3750  plane waves:    5348
 k-point  98 :  -0.2857-0.2857 0.3750  plane waves:    5351
 k-point  99 :  -0.1429-0.2857 0.3750  plane waves:    5343
 k-point 100 :  -0.1429-0.1429 0.3750  plane waves:    5332
 k-point 101 :  -0.0000 0.0000 0.5000  plane waves:    5342
 k-point 102 :   0.1429 0.0000 0.5000  plane waves:    5329
 k-point 103 :   0.2857 0.0000 0.5000  plane waves:    5336
 k-point 104 :   0.4286 0.0000 0.5000  plane waves:    5324
 k-point 105 :   0.1429 0.1429 0.5000  plane waves:    5341
 k-point 106 :   0.2857 0.1429 0.5000  plane waves:    5331
 k-point 107 :   0.4286 0.1429 0.5000  plane waves:    5334
 k-point 108 :  -0.4286 0.1429 0.5000  plane waves:    5343
 k-point 109 :  -0.2857 0.1429 0.5000  plane waves:    5349
 k-point 110 :  -0.1429 0.1429 0.5000  plane waves:    5328
 k-point 111 :   0.2857 0.2857 0.5000  plane waves:    5340
 k-point 112 :   0.4286 0.2857 0.5000  plane waves:    5358
 k-point 113 :  -0.4286 0.2857 0.5000  plane waves:    5361
 k-point 114 :  -0.2857 0.2857 0.5000  plane waves:    5350
 k-point 115 :   0.4286 0.4286 0.5000  plane waves:    5361
 k-point 116 :  -0.4286 0.4286 0.5000  plane waves:    5376

 maximum and minimum number of plane-waves per node :      2714     2625

 maximum number of plane-waves:      5376
 maximum index in each direction: 
   IXMAX=   12   IYMAX=   12   IZMAX=   12
   IXMIN=  -12   IYMIN=  -12   IZMIN=  -12


 parallel 3D FFT for wavefunctions:
    minimum data exchange during FFTs selected (reduces bandwidth)
 parallel 3D FFT for charge:
    minimum data exchange during FFTs selected (reduces bandwidth)


 total amount of memory used by VASP MPI-rank0   343948. kBytes
=======================================================================

   base      :      30000. kBytes
   nonl-proj :     136639. kBytes
   fftplans  :      12493. kBytes
   grid      :       9393. kBytes
   one-center:         77. kBytes
   wavefun   :     155346. kBytes
 
     INWAV:  cpu time    0.0001: real time    0.0000
 Broyden mixing: mesh for mixing (old mesh)
   NGX = 25   NGY = 25   NGZ = 25
  (NGX  = 96   NGY  = 96   NGZ  = 96)
  gives a total of  15625 points

 initial charge density was supplied:
 charge density of overlapping atoms calculated
 number of electron      98.0000000 magnetization 
 keeping initial charge density in first step


--------------------------------------------------------------------------------------------------------


 Maximum index for augmentation-charges        19707 (set IRDMAX)


--------------------------------------------------------------------------------------------------------


 First call to EWALD:  gamma=   0.326
 Maximum number of real-space cells 3x 3x 3
 Maximum number of reciprocal cells 3x 3x 3

    FEWALD:  cpu time    0.0035: real time    0.0035


--------------------------------------- Iteration      1(   1)  ---------------------------------------


    POTLOK:  cpu time    0.1458: real time    0.1467
    SETDIJ:  cpu time    0.5944: real time    0.5973
    TRIAL :  cpu time   17.1666: real time   17.2901
    CORREC:  cpu time    0.0021: real time    0.0022
    --------------------------------------------
      LOOP:  cpu time   17.9584: real time   18.0903

 eigenvalue-minimisations  : 13932
 total energy-change (2. order) : 0.1154755E+04  (-0.6785077E+04)
 number of electron      98.0000000 magnetization 
 augmentation part       98.0000000 magnetization 

 Free energy of the ion-electron system (eV)
  ---------------------------------------------------
  alpha Z        PSCENC =       522.16701797
  Ewald energy   TEWEN  =     -7771.43046798
  -Hartree energ DENC   =     -3572.36050294
  -exchange      EXHF   =         0.00000000
  -V(xc)+E(xc)   XCENC  =       470.05974251
  PAW double counting   =      9166.97638771    -9126.13493418
  entropy T*S    EENTRO =        -0.00049513
  eigenvalues    EBANDS =       -56.68874124
  atomic energy  EATOM  =     11522.16744521
  ---------------------------------------------------
  free energy    TOTEN  =      1154.75545193 eV

  energy without entropy =     1154.75594706  energy(sigma->0) =     1154.75569950


--------------------------------------------------------------------------------------------------------




--------------------------------------- Iteration      1(   2)  ---------------------------------------


    TRIAL :  cpu time   17.2447: real time   17.3731
    CORREC:  cpu time    0.0019: real time    0.0019
    --------------------------------------------
      LOOP:  cpu time   17.2507: real time   17.3801

 eigenvalue-minimisations  : 15360
 total energy-change (2. order) :-0.1306562E+04  (-0.1270733E+04)
 number of electron      98.0000000 magnetization 
 augmentation part       98.0000000 magnetization 

 Free energy of the ion-electron system (eV)
  ---------------------------------------------------
  alpha Z        PSCENC =       522.16701797
  Ewald energy   TEWEN  =     -7771.43046798
  -Hartree energ DENC   =     -3572.36050294
  -exchange      EXHF   =         0.00000000
  -V(xc)+E(xc)   XCENC  =       470.05974251
  PAW double counting   =      9166.97638771    -9126.13493418
  entropy T*S    EENTRO =        -0.00137159
  eigenvalues    EBANDS =     -1363.25032813
  atomic energy  EATOM  =     11522.16744521
  ---------------------------------------------------
  free energy    TOTEN  =      -151.80701142 eV

  energy without entropy =     -151.80563983  energy(sigma->0) =     -151.80632562


--------------------------------------------------------------------------------------------------------




--------------------------------------- Iteration      1(   3)  ---------------------------------------


    TRIAL :  cpu time   19.6193: real time   19.7624
    CORREC:  cpu time    0.0022: real time    0.0022
    --------------------------------------------
      LOOP:  cpu time   19.6240: real time   19.7674

 eigenvalue-minimisations  : 18336
 total energy-change (2. order) :-0.4965663E+02  (-0.4767284E+02)
 number of electron      98.0000000 magnetization 
 augmentation part       98.0000000 magnetization 

 Free energy of the ion-electron system (eV)
  ---------------------------------------------------
  alpha Z        PSCENC =       522.16701797
  Ewald energy   TEWEN  =     -7771.43046798
  -Hartree energ DENC   =     -3572.36050294
  -exchange      EXHF   =         0.00000000
  -V(xc)+E(xc)   XCENC  =       470.05974251
  PAW double counting   =      9166.97638771    -9126.13493418
  entropy T*S    EENTRO =        -0.00159254
  eigenvalues    EBANDS =     -1412.90673304
  atomic energy  EATOM  =     11522.16744521
  ---------------------------------------------------
  free energy    TOTEN  =      -201.46363727 eV

  energy without entropy =     -201.46204474  energy(sigma->0) =     -201.46284101


--------------------------------------------------------------------------------------------------------




--------------------------------------- Iteration      1(   4)  ---------------------------------------


    TRIAL :  cpu time   18.7316: real time   18.8669
    CORREC:  cpu time    0.0021: real time    0.0021
    --------------------------------------------
      LOOP:  cpu time   18.7342: real time   18.8718

 eigenvalue-minimisations  : 16764
 total energy-change (2. order) :-0.1001687E+01  (-0.9903728E+00)
 number of electron      98.0000000 magnetization 
 augmentation part       98.0000000 magnetization 

 Free energy of the ion-electron system (eV)
  ---------------------------------------------------
  alpha Z        PSCENC =       522.16701797
  Ewald energy   TEWEN  =     -7771.43046798
  -Hartree energ DENC   =     -3572.36050294
  -exchange      EXHF   =         0.00000000
  -V(xc)+E(xc)   XCENC  =       470.05974251
  PAW double counting   =      9166.97638771    -9126.13493418
  entropy T*S    EENTRO =        -0.00170069
  eigenvalues    EBANDS =     -1413.90831207
  atomic energy  EATOM  =     11522.16744521
  ---------------------------------------------------
  free energy    TOTEN  =      -202.46532445 eV

  energy without entropy =     -202.46362376  energy(sigma->0) =     -202.46447411


--------------------------------------------------------------------------------------------------------




--------------------------------------- Iteration      1(   5)  ---------------------------------------


    TRIAL :  cpu time   19.1993: real time   19.3404
    CORREC:  cpu time    0.0020: real time    0.0020
    CHARGE:  cpu time    1.4923: real time    1.5009
    --------------------------------------------
      LOOP:  cpu time   20.6942: real time   20.8461

 eigenvalue-minimisations  : 17952
 total energy-change (2. order) :-0.2734987E-01  (-0.2730392E-01)
 number of electron      98.0000000 magnetization 
 augmentation part       13.3895720 magnetization 

 Free energy of the ion-electron system (eV)
  ---------------------------------------------------
  alpha Z        PSCENC =       522.16701797
  Ewald energy   TEWEN  =     -7771.43046798
  -Hartree energ DENC   =     -3572.36050294
  -exchange      EXHF   =         0.00000000
  -V(xc)+E(xc)   XCENC  =       470.05974251
  PAW double counting   =      9166.97638771    -9126.13493418
  entropy T*S    EENTRO =        -0.00169398
  eigenvalues    EBANDS =     -1413.93566865
  atomic energy  EATOM  =     11522.16744521
  ---------------------------------------------------
  free energy    TOTEN  =      -202.49267432 eV

  energy without entropy =     -202.49098034  energy(sigma->0) =     -202.49182733


--------------------------------------------------------------------------------------------------------




--------------------------------------- Iteration      1(   6)  ---------------------------------------


    POTLOK:  cpu time    0.1031: real time    0.1037
    SETDIJ:  cpu time    0.5890: real time    0.5919
    TRIAL :  cpu time   13.5124: real time   13.6099
    CORREC:  cpu time    4.8886: real time    4.9227
    CHARGE:  cpu time    1.5625: real time    1.5711
    --------------------------------------------
      LOOP:  cpu time   20.6601: real time   20.8038

 eigenvalue-minimisations  :     0
 total energy-change (2. order) : 0.4810155E+02  (-0.6025831E+01)
 number of electron      98.0000000 magnetization 
 augmentation part       14.3772581 magnetization 

 Free energy of the ion-electron system (eV)
  ---------------------------------------------------
  alpha Z        PSCENC =       522.16701797
  Ewald energy   TEWEN  =     -7771.43046798
  -Hartree energ DENC   =     -3457.56217846
  -exchange      EXHF   =         0.00000000
  -V(xc)+E(xc)   XCENC  =       479.19326342
  PAW double counting   =     17319.09890857   -17307.14178935
  entropy T*S    EENTRO =        -0.00230019
  eigenvalues    EBANDS =     -1460.88162484
  atomic energy  EATOM  =     11522.16744521
  ---------------------------------------------------
  free energy    TOTEN  =      -154.39111944 eV

  energy without entropy =     -154.38881925  energy(sigma->0) =     -154.38996934


--------------------------------------------------------------------------------------------------------




--------------------------------------- Iteration      1(   7)  ---------------------------------------


    POTLOK:  cpu time    0.0955: real time    0.0960
    SETDIJ:  cpu time    0.5916: real time    0.5943
    TRIAL :  cpu time   12.6365: real time   12.7316
    CORREC:  cpu time    5.0254: real time    5.0599
    CHARGE:  cpu time    1.5834: real time    1.5919
    --------------------------------------------
      LOOP:  cpu time   19.9330: real time   20.0767

 eigenvalue-minimisations  :     0
 total energy-change (2. order) :-0.6034493E+01  (-0.1218520E+01)
 number of electron      98.0000001 magnetization 
 augmentation part       14.4792743 magnetization 

 Free energy of the ion-electron system (eV)
  ---------------------------------------------------
  alpha Z        PSCENC =       522.16701797
  Ewald energy   TEWEN  =     -7771.43046798
  -Hartree energ DENC   =     -3542.85915541
  -exchange      EXHF   =         0.00000000
  -V(xc)+E(xc)   XCENC  =       483.42682965
  PAW double counting   =     16547.11118493   -16526.78727514
  entropy T*S    EENTRO =        -0.00186607
  eigenvalues    EBANDS =     -1394.21889195
  atomic energy  EATOM  =     11522.16744521
  ---------------------------------------------------
  free energy    TOTEN  =      -160.42561291 eV

  energy without entropy =     -160.42374683  energy(sigma->0) =     -160.42467987


--------------------------------------------------------------------------------------------------------




--------------------------------------- Iteration      1(   8)  ---------------------------------------


    POTLOK:  cpu time    0.0927: real time    0.0932
    SETDIJ:  cpu time    0.5936: real time    0.5965
    TRIAL :  cpu time   12.7709: real time   12.8656
    CORREC:  cpu time    4.8808: real time    4.9134
    CHARGE:  cpu time    1.5017: real time    1.5100
    --------------------------------------------
      LOOP:  cpu time   19.8423: real time   19.9854

 eigenvalue-minimisations  :     0
 total energy-change (2. order) :-0.1216301E+01  (-0.3361332E+00)
 number of electron      98.0000001 magnetization 
 augmentation part       14.5145189 magnetization 

 Free energy of the ion-electron system (eV)
  ---------------------------------------------------
  alpha Z        PSCENC =       522.16701797
  Ewald energy   TEWEN  =     -7771.43046798
  -Hartree energ DENC   =     -3549.25795906
  -exchange      EXHF   =         0.00000000
  -V(xc)+E(xc)   XCENC  =       483.90780479
  PAW double counting   =     16168.18747580   -16145.36004172
  entropy T*S    EENTRO =        -0.00158509
  eigenvalues    EBANDS =     -1392.02132325
  atomic energy  EATOM  =     11522.16744521
  ---------------------------------------------------
  free energy    TOTEN  =      -161.64191431 eV

  energy without entropy =     -161.64032923  energy(sigma->0) =     -161.64112177


--------------------------------------------------------------------------------------------------------




--------------------------------------- Iteration      1(   9)  ---------------------------------------


    POTLOK:  cpu time    0.0955: real time    0.0960
    SETDIJ:  cpu time    0.5851: real time    0.5880
    TRIAL :  cpu time   12.8017: real time   12.8977
    CORREC:  cpu time    4.9695: real time    5.0026
    CHARGE:  cpu time    1.5364: real time    1.5445
    --------------------------------------------
      LOOP:  cpu time   19.9905: real time   20.1317

 eigenvalue-minimisations  :     0
 total energy-change (2. order) :-0.3373504E+00  (-0.1302128E+00)
 number of electron      98.0000001 magnetization 
 augmentation part       14.5071013 magnetization 

 Free energy of the ion-electron system (eV)
  ---------------------------------------------------
  alpha Z        PSCENC =       522.16701797
  Ewald energy   TEWEN  =     -7771.43046798
  -Hartree energ DENC   =     -3548.98052023
  -exchange      EXHF   =         0.00000000
  -V(xc)+E(xc)   XCENC  =       483.95673094
  PAW double counting   =     16038.78567109   -16014.92251858
  entropy T*S    EENTRO =        -0.00167218
  eigenvalues    EBANDS =     -1393.72103808
  atomic energy  EATOM  =     11522.16744521
  ---------------------------------------------------
  free energy    TOTEN  =      -161.97926474 eV

  energy without entropy =     -161.97759256  energy(sigma->0) =     -161.97842865


--------------------------------------------------------------------------------------------------------




--------------------------------------- Iteration      1(  10)  ---------------------------------------


    POTLOK:  cpu time    0.0936: real time    0.0941
    SETDIJ:  cpu time    0.5925: real time    0.5953
    TRIAL :  cpu time   12.8812: real time   12.9767
    CORREC:  cpu time    4.9616: real time    4.9949
    CHARGE:  cpu time    1.5079: real time    1.5162
    --------------------------------------------
      LOOP:  cpu time   20.0432: real time   20.1841

 eigenvalue-minimisations  :     0
 total energy-change (2. order) :-0.1300185E+00  (-0.5490058E-01)
 number of electron      98.0000001 magnetization 
 augmentation part       14.4955069 magnetization 

 Free energy of the ion-electron system (eV)
  ---------------------------------------------------
  alpha Z        PSCENC =       522.16701797
  Ewald energy   TEWEN  =     -7771.43046798
  -Hartree energ DENC   =     -3548.63543811
  -exchange      EXHF   =         0.00000000
  -V(xc)+E(xc)   XCENC  =       483.99192718
  PAW double counting   =     16016.48765488   -15992.15924649
  entropy T*S    EENTRO =        -0.00174895
  eigenvalues    EBANDS =     -1394.69650368
  atomic energy  EATOM  =     11522.16744521
  ---------------------------------------------------
  free energy    TOTEN  =      -162.10928322 eV

  energy without entropy =     -162.10753427  energy(sigma->0) =     -162.10840874


--------------------------------------------------------------------------------------------------------




--------------------------------------- Iteration      1(  11)  ---------------------------------------


    POTLOK:  cpu time    0.0966: real time    0.0971
    SETDIJ:  cpu time    0.5953: real time    0.5982
    TRIAL :  cpu time   12.6317: real time   12.7264
    CORREC:  cpu time    5.0495: real time    5.0823
    CHARGE:  cpu time    1.5954: real time    1.6038
    --------------------------------------------
      LOOP:  cpu time   19.9712: real time   20.1111

 eigenvalue-minimisations  :     0
 total energy-change (2. order) :-0.5483049E-01  (-0.2275565E-01)
 number of electron      98.0000001 magnetization 
 augmentation part       14.4921592 magnetization 

 Free energy of the ion-electron system (eV)
[...]
     10     -28.5167      2.00000
     11     -27.6533      2.00000
     12     -27.6468      2.00000
     13     -27.5042      2.00000
     14     -27.4754      2.00000
     15     -27.4044      2.00000
     16     -27.3889      2.00000
     17     -27.1622      2.00000
     18     -27.1472      2.00000
     19     -27.1099      2.00000
     20     -26.8592      2.00000
     21     -26.7292      2.00000
     22     -26.1143      2.00000
     23     -25.6799      2.00000
     24     -25.0807      2.00000
     25      -0.4543      2.00000
     26       0.2101      2.00000
     27       0.7529      2.00000
     28       2.2807      2.00000
     29       2.3213      2.00000
     30       3.0084      2.00000
     31       3.2357      2.00000
     32       3.4722      2.00000
     33       3.4999      2.00000
     34       3.5689      2.00000
     35       4.4223      2.00000
     36       4.7502      2.00000
     37       4.8103      2.00000
     38       5.2024      2.00000
     39       5.2215      2.00000
     40       6.2023      2.00000
     41       6.5843      2.00000
     42       6.6352      2.00000
     43       6.7950      2.00000
     44       6.8541      2.00000
     45       7.5688      2.00000
     46       7.7231      2.00000
     47       7.9020      2.00000
     48       7.9681      2.00000
     49       8.3612      2.00000
     50       9.1751      0.00000
     51       9.3124      0.00000
     52       9.3358      0.00000
     53      10.1846      0.00000
     54      10.3418      0.00000
     55      10.5560      0.00000
     56      10.9725      0.00000
     57      10.9755      0.00000
     58      11.4033      0.00000
     59      11.7481      0.00000
     60      12.2780      0.00000

 k-point   110 :      -0.1429    0.1429    0.5000
  band No.  band energies     occupation 
      1     -54.4810      2.00000
      2     -54.3746      2.00000
      3     -53.8939      2.00000
      4     -53.8682      2.00000
      5     -53.3756      2.00000
      6     -53.2725      2.00000
      7     -30.3491      2.00000
      8     -30.1019      2.00000
      9     -29.0388      2.00000
     10     -28.0681      2.00000
     11     -27.9284      2.00000
     12     -27.6246      2.00000
     13     -27.5346      2.00000
     14     -27.4894      2.00000
     15     -27.4694      2.00000
     16     -27.4349      2.00000
     17     -27.2076      2.00000
     18     -27.1661      2.00000
     19     -27.1573      2.00000
     20     -26.8199      2.00000
     21     -26.7527      2.00000
     22     -26.6212      2.00000
     23     -25.3120      2.00000
     24     -25.0037      2.00000
     25      -0.1316      2.00000
     26       0.1546      2.00000
     27       0.5161      2.00000
     28       2.5597      2.00000
     29       2.6112      2.00000
     30       3.0187      2.00000
     31       3.2224      2.00000
     32       3.3701      2.00000
     33       3.5330      2.00000
     34       3.6811      2.00000
     35       4.0915      2.00000
     36       4.2462      2.00000
     37       4.6607      2.00000
     38       4.7096      2.00000
     39       5.4432      2.00000
     40       5.9856      2.00000
     41       6.5005      2.00000
     42       6.9056      2.00000
     43       7.0212      2.00000
     44       7.0455      2.00000
     45       7.4697      2.00000
     46       7.5319      2.00000
     47       7.5655      2.00000
     48       8.1475      2.00000
     49       8.9557      0.00000
     50       9.0337      0.00000
     51       9.5567      0.00000
     52       9.6189      0.00000
     53       9.9483      0.00000
     54      10.1761      0.00000
     55      10.6042      0.00000
     56      10.7785      0.00000
     57      11.0245      0.00000
     58      11.2636      0.00000
     59      11.9880      0.00000
     60      12.5422      0.00000

 k-point   111 :       0.2857    0.2857    0.5000
  band No.  band energies     occupation 
      1     -54.5766      2.00000
      2     -54.2383      2.00000
      3     -53.8824      2.00000
      4     -53.8505      2.00000
      5     -53.5479      2.00000
      6     -53.1703      2.00000
      7     -30.3536      2.00000
      8     -29.8745      2.00000
      9     -29.4560      2.00000
     10     -27.9859      2.00000
     11     -27.9115      2.00000
     12     -27.6937      2.00000
     13     -27.5774      2.00000
     14     -27.4370      2.00000
     15     -27.4227      2.00000
     16     -27.4140      2.00000
     17     -27.2110      2.00000
     18     -27.1635      2.00000
     19     -27.1370      2.00000
     20     -26.9399      2.00000
     21     -26.6843      2.00000
     22     -26.1672      2.00000
     23     -25.6637      2.00000
     24     -24.9853      2.00000
     25      -0.9849      2.00000
     26       0.8865      2.00000
     27       1.1571      2.00000
     28       1.3861      2.00000
     29       1.9527      2.00000
     30       3.1891      2.00000
     31       3.2138      2.00000
     32       3.2679      2.00000
     33       3.4488      2.00000
     34       3.6406      2.00000
     35       4.5667      2.00000
     36       4.6875      2.00000
     37       4.8628      2.00000
     38       5.5828      2.00000
     39       5.8863      2.00000
     40       5.9840      2.00000
     41       6.3438      2.00000
     42       6.8047      2.00000
     43       7.5410      2.00000
     44       7.6721      2.00000
     45       7.7294      2.00000
     46       7.8576      2.00000
     47       7.9785      2.00000
     48       8.4193      2.00000
     49       8.4596      2.00000
     50       8.5270      2.00000
     51       9.1520      0.00000
     52       9.3585      0.00000
     53       9.5359      0.00000
     54       9.7411      0.00000
     55      10.2098      0.00000
     56      10.6585      0.00000
     57      11.2363      0.00000
     58      11.2801      0.00000
     59      11.5461      0.00000
     60      12.0083      0.00000

 k-point   112 :       0.4286    0.2857    0.5000
  band No.  band energies     occupation 
      1     -54.6078      2.00000
      2     -54.1682      2.00000
      3     -53.8804      2.00000
      4     -53.8435      2.00000
      5     -53.6287      2.00000
      6     -53.1372      2.00000
      7     -30.3029      2.00000
      8     -30.1491      2.00000
      9     -28.9982      2.00000
     10     -28.4719      2.00000
     11     -27.7201      2.00000
     12     -27.6936      2.00000
     13     -27.4350      2.00000
     14     -27.3860      2.00000
     15     -27.3845      2.00000
     16     -27.3374      2.00000
     17     -27.1711      2.00000
     18     -27.1593      2.00000
     19     -27.1332      2.00000
     20     -26.9957      2.00000
     21     -26.7096      2.00000
     22     -26.6625      2.00000
     23     -25.3024      2.00000
     24     -25.0617      2.00000
     25      -1.0945      2.00000
     26       0.8520      2.00000
     27       1.1897      2.00000
     28       1.7696      2.00000
     29       1.7773      2.00000
     30       3.0389      2.00000
     31       3.1443      2.00000
     32       3.1942      2.00000
     33       3.2242      2.00000
     34       3.3207      2.00000
     35       4.3836      2.00000
     36       4.8427      2.00000
     37       5.3934      2.00000
     38       5.4637      2.00000
     39       5.8128      2.00000
     40       6.3706      2.00000
     41       6.7162      2.00000
     42       7.2316      2.00000
     43       7.3109      2.00000
     44       7.3201      2.00000
     45       7.5680      2.00000
     46       7.9362      2.00000
     47       8.2034      2.00000
     48       8.2524      2.00000
     49       8.4524      2.00000
     50       9.1034      0.00000
     51       9.1182      0.00000
     52       9.4227      0.00000
     53       9.4640      0.00000
     54       9.8864      0.00000
     55       9.9826      0.00000
     56      10.2994      0.00000
     57      11.1343      0.00000
     58      11.3146      0.00000
     59      11.6833      0.00000
     60      11.8614      0.00000

 k-point   113 :      -0.4286    0.2857    0.5000
  band No.  band energies     occupation 
      1     -54.6082      2.00000
      2     -54.1652      2.00000
      3     -53.8867      2.00000
      4     -53.8426      2.00000
      5     -53.6254      2.00000
      6     -53.1377      2.00000
      7     -30.3144      2.00000
      8     -30.1372      2.00000
      9     -28.9865      2.00000
     10     -28.4837      2.00000
     11     -27.7220      2.00000
     12     -27.6943      2.00000
     13     -27.4347      2.00000
     14     -27.3860      2.00000
     15     -27.3816      2.00000
     16     -27.3462      2.00000
     17     -27.1738      2.00000
     18     -27.1617      2.00000
     19     -27.1340      2.00000
     20     -26.9927      2.00000
     21     -26.6984      2.00000
     22     -26.6630      2.00000
     23     -25.2911      2.00000
     24     -25.0729      2.00000
     25      -1.0337      2.00000
     26       0.7160      2.00000
     27       1.1221      2.00000
     28       1.7772      2.00000
     29       2.2148      2.00000
     30       3.0166      2.00000
     31       3.1002      2.00000
     32       3.1201      2.00000
     33       3.1906      2.00000
     34       3.2024      2.00000
     35       4.0687      2.00000
     36       5.0708      2.00000
     37       5.1551      2.00000
     38       5.6632      2.00000
     39       6.0448      2.00000
     40       6.3469      2.00000
     41       6.6917      2.00000
     42       6.9481      2.00000
     43       7.1149      2.00000
     44       7.2749      2.00000
     45       7.6274      2.00000
     46       7.8294      2.00000
     47       8.1244      2.00000
     48       8.1560      2.00000
     49       8.5732      2.00000
     50       9.0987      0.00000
     51       9.1778      0.00000
     52       9.4901      0.00000
     53       9.6287      0.00000
     54       9.8857      0.00000
     55      10.0235      0.00000
     56      10.3460      0.00000
     57      11.3217      0.00000
     58      11.5322      0.00000
     59      11.7159      0.00000
     60      11.8822      0.00000

 k-point   114 :      -0.2857    0.2857    0.5000
  band No.  band energies     occupation 
      1     -54.5778      2.00000
      2     -54.2329      2.00000
      3     -53.8933      2.00000
      4     -53.8477      2.00000
      5     -53.5424      2.00000
      6     -53.1717      2.00000
      7     -30.3646      2.00000
      8     -29.8622      2.00000
      9     -29.4447      2.00000
     10     -27.9904      2.00000
     11     -27.9282      2.00000
     12     -27.6992      2.00000
     13     -27.5823      2.00000
     14     -27.4305      2.00000
     15     -27.4207      2.00000
     16     -27.4148      2.00000
     17     -27.2103      2.00000
     18     -27.1660      2.00000
     19     -27.1391      2.00000
     20     -26.9346      2.00000
     21     -26.6857      2.00000
     22     -26.1561      2.00000
     23     -25.6523      2.00000
     24     -24.9964      2.00000
     25      -0.8111      2.00000
     26       0.6720      2.00000
     27       0.7574      2.00000
     28       1.9731      2.00000
     29       2.4790      2.00000
     30       3.0915      2.00000
     31       3.1437      2.00000
     32       3.1561      2.00000
     33       3.2354      2.00000
     34       3.2748      2.00000
     35       4.0023      2.00000
     36       5.2628      2.00000
     37       5.2801      2.00000
     38       5.3398      2.00000
     39       5.6291      2.00000
     40       6.0832      2.00000
     41       6.6786      2.00000
     42       6.8525      2.00000
     43       7.0161      2.00000
     44       7.1005      2.00000
     45       7.3569      2.00000
     46       7.8088      2.00000
     47       7.9473      2.00000
     48       8.1305      2.00000
     49       8.1745      2.00000
     50       9.0699      0.00000
     51       9.4514      0.00000
     52       9.6911      0.00000
     53       9.7429      0.00000
     54       9.9801      0.00000
     55      10.4747      0.00000
     56      10.5148      0.00000
     57      11.2020      0.00000
     58      11.6445      0.00000
     59      11.7806      0.00000
     60      12.0398      0.00000

 k-point   115 :       0.4286    0.4286    0.5000
  band No.  band energies     occupation 
      1     -54.6435      2.00000
      2     -54.0266      2.00000
      3     -53.8820      2.00000
      4     -53.8381      2.00000
      5     -53.7796      2.00000
      6     -53.0959      2.00000
      7     -30.3653      2.00000
      8     -30.3212      2.00000
      9     -28.4685      2.00000
     10     -27.9115      2.00000
     11     -27.8824      2.00000
     12     -27.7492      2.00000
     13     -27.6923      2.00000
     14     -27.4064      2.00000
     15     -27.3985      2.00000
     16     -27.2999      2.00000
     17     -27.2818      2.00000
     18     -27.2154      2.00000
     19     -27.1597      2.00000
     20     -27.1299      2.00000
     21     -27.0991      2.00000
     22     -26.6351      2.00000
     23     -25.0695      2.00000
     24     -24.9792      2.00000
     25      -1.2486      2.00000
     26       0.8721      2.00000
     27       1.5722      2.00000
     28       1.5766      2.00000
     29       2.1889      2.00000
     30       2.8061      2.00000
     31       2.9013      2.00000
     32       2.9338      2.00000
     33       3.0424      2.00000
     34       3.0615      2.00000
     35       3.9212      2.00000
     36       4.9990      2.00000
     37       5.0656      2.00000
     38       5.9331      2.00000
     39       6.0693      2.00000
     40       6.2929      2.00000
     41       7.3272      2.00000
     42       7.4154      2.00000
     43       7.6508      2.00000
     44       7.6978      2.00000
     45       7.7218      2.00000
     46       8.0942      2.00000
     47       8.4108      2.00000
     48       8.4719      2.00000
     49       8.6038      2.00000
     50       8.8956      0.00000
     51       9.1519      0.00000
     52       9.2686      0.00000
     53       9.4477      0.00000
     54       9.5578      0.00000
     55       9.6828      0.00000
     56      10.2485      0.00000
     57      11.0989      0.00000
     58      11.1150      0.00000
     59      11.3216      0.00000
     60      12.0461      0.00000

 k-point   116 :      -0.4286    0.4286    0.5000
  band No.  band energies     occupation 
      1     -54.6436      2.00000
      2     -54.0218      2.00000
      3     -53.8929      2.00000
      4     -53.8379      2.00000
      5     -53.7736      2.00000
      6     -53.0960      2.00000
      7     -30.3769      2.00000
      8     -30.3094      2.00000
      9     -28.4566      2.00000
     10     -27.9279      2.00000
     11     -27.8882      2.00000
     12     -27.7499      2.00000
     13     -27.6938      2.00000
     14     -27.4058      2.00000
     15     -27.3989      2.00000
     16     -27.2885      2.00000
     17     -27.2791      2.00000
     18     -27.2153      2.00000
     19     -27.1659      2.00000
     20     -27.1302      2.00000
     21     -27.0945      2.00000
     22     -26.6352      2.00000
     23     -25.0582      2.00000
     24     -24.9905      2.00000
     25      -1.2274      2.00000
     26       0.8199      2.00000
     27       1.5600      2.00000
     28       1.5744      2.00000
     29       2.4341      2.00000
     30       2.7968      2.00000
     31       2.8922      2.00000
     32       2.9329      2.00000
     33       2.9959      2.00000
     34       3.0263      2.00000
     35       3.7215      2.00000
     36       4.8762      2.00000
     37       5.1225      2.00000
     38       6.1390      2.00000
     39       6.1667      2.00000
     40       6.2324      2.00000
     41       7.2302      2.00000
     42       7.2916      2.00000
     43       7.5941      2.00000
     44       7.6783      2.00000
     45       7.7202      2.00000
     46       8.0828      2.00000
     47       8.4293      2.00000
     48       8.4627      2.00000
     49       8.5749      2.00000
     50       8.9339      0.00000
     51       9.1719      0.00000
     52       9.2508      0.00000
     53       9.4416      0.00000
     54       9.6390      0.00000
     55       9.6913      0.00000
     56      10.2883      0.00000
     57      11.0713      0.00000
     58      11.1267      0.00000
     59      11.3219      0.00000
     60      12.2437      0.00000


--------------------------------------------------------------------------------------------------------


 soft charge-density along one line, spin component           1
         0         1         2         3         4         5         6         7         8         9
 total charge-density along one line
 
 pseudopotential strength for first ion, spin component:           1
  6.024   9.136  -0.000   0.000   0.000  -0.000   0.000   0.000
  9.136  13.847  -0.000   0.000   0.000  -0.000   0.000   0.000
 -0.000  -0.000  -2.019   0.007  -0.004  -3.378   0.015  -0.009
  0.000   0.000   0.007  -2.021   0.005   0.015  -3.381   0.010
  0.000   0.000  -0.004   0.005  -2.016  -0.009   0.010  -3.371
 -0.000  -0.000  -3.378   0.015  -0.009  -5.439   0.029  -0.018
  0.000   0.000   0.015  -3.381   0.010   0.029  -5.446   0.020
  0.000   0.000  -0.009   0.010  -3.371  -0.018   0.020  -5.425
 total augmentation occupancy for first ion, spin component:           1
  2.818  -0.511   0.000   0.000   0.000   0.000   0.000   0.000
 -0.511   0.113   0.000   0.000   0.000   0.000   0.000   0.000
  0.000   0.000   1.744  -0.563   0.338  -0.398   0.129  -0.077
  0.000  -0.000  -0.563   1.892  -0.386   0.129  -0.432   0.088
  0.000   0.000   0.338  -0.386   1.483  -0.077   0.088  -0.338
 -0.000   0.000  -0.398   0.129  -0.077   0.097  -0.035   0.021
 -0.000   0.000   0.129  -0.432   0.088  -0.035   0.106  -0.024
 -0.000   0.000  -0.077   0.088  -0.338   0.021  -0.024   0.081


------------------------ aborting loop because EDIFF is reached ----------------------------------------




--------------------------------------------------------------------------------------------------------



  FREE ENERGIE OF THE ION-ELECTRON SYSTEM (eV)
  ---------------------------------------------------
  free  energy   TOTEN  =      -162.20643414 eV

  energy  without entropy=     -162.20445513  energy(sigma->0) =     -162.20544463
 


--------------------------------------------------------------------------------------------------------


    POTLOK:  cpu time    0.7330: real time    0.7371


--------------------------------------------------------------------------------------------------------


 writing wavefunctions
     LOOP+:  cpu time  735.7633: real time  740.9444
    4ORBIT:  cpu time    0.0000: real time    0.0000

 total amount of memory used by VASP MPI-rank0   343948. kBytes
=======================================================================

   base      :      30000. kBytes
   nonl-proj :     136639. kBytes
   fftplans  :      12493. kBytes
   grid      :       9393. kBytes
   one-center:         77. kBytes
   wavefun   :     155346. kBytes
 
  
  
 General timing and accounting informations for this job:
 ========================================================
  
                  Total CPU time used (sec):      740.014
                            User time (sec):      737.217
                          System time (sec):        2.797
                         Elapsed time (sec):      746.176
  
                   Maximum memory used (kb):      541780.
                   Average memory used (kb):          N/A
  
                          Minor page faults:       920830
                          Major page faults:           45
                 Voluntary context switches:         1158
