<?xml version="1.0" encoding="ISO-8859-1"?>
<modeling>
 <generator>
  <i name="program" type="string">vasp </i>
  <i name="version" type="string">6.2.0  </i>
  <i name="subversion" type="string">18Jan21 (build Jan 05 2022 15:41:44) complex                          parallel </i>
  <i name="platform" type="string">LinuxIFC </i>
  <i name="date" type="string">2025 05 07 </i>
  <i name="time" type="string">17:30:59 </i>
 </generator>
 <incar>
  <i type="string" name="SYSTEM">routine with relax: pwdword</i>
  <i type="string" name="PREC">Acc</i>
  <i type="int" name="IALGO">    38</i>
  <i type="string" name="ALGO">A</i>
  <i type="logical" name="ADDGRID"> T  </i>
  <i type="int" name="ICHARG">     2</i>
  <i type="int" name="NELM">   100</i>
  <i type="int" name="NELMIN">     6</i>
  <i name="EDIFF">      0.00000000</i>
  <i type="int" name="NSW">     0</i>
  <i type="int" name="ISIF">    -1</i>
  <i name="ENCUT">    600.00000000</i>
  <i type="logical" name="LREAL"> F  </i>
  <i type="int" name="ISMEAR">     0</i>
  <i name="SIGMA">      0.02000000</i>
  <i type="logical" name="LASPH"> T  </i>
  <i type="string" name="METAGGA">R2SCAN</i>
  <i type="logical" name="LMIXTAU"> F  </i>
 </incar>
 <primitive_cell>
  <structure name="primitive_cell" >
   <crystal>
    <varray name="basis" >
     <v>      -3.84861740       2.69689316       0.00000000 </v>
     <v>       1.88983003       2.69689316       3.35267336 </v>
     <v>       1.88983003       2.69689316      -3.23463664 </v>
    </varray>
    <i name="volume">    101.94507530 </i>
    <varray name="rec_basis" >
     <v>      -0.17426316       0.12211376       0.00000000 </v>
     <v>       0.08557029       0.12211359       0.15180704 </v>
     <v>       0.08869288       0.12656969      -0.15180704 </v>
    </varray>
   </crystal>
   <varray name="positions" >
    <v>       0.50000000       0.00000000       0.50000000 </v>
    <v>       0.00000000       0.50000000       0.50000000 </v>
    <v>       0.50000000       0.50000000       0.50000000 </v>
    <v>       0.00000000       0.00000000       0.00000000 </v>
    <v>       0.00000000       0.00000000       0.50000000 </v>
   </varray>
  </structure>
  <varray name="primitive_index" >
   <v type="int" >        1 </v>
   <v type="int" >        2 </v>
   <v type="int" >        5 </v>
   <v type="int" >        6 </v>
   <v type="int" >        9 </v>
  </varray>
 </primitive_cell>
 <kpoints>
  <generation param="Gamma">
   <v type="int" name="divisions">       7        7        8 </v>
   <v name="usershift">      0.00000000       0.00000000       0.00000000 </v>
   <v name="genvec1">      0.14285714       0.00000000       0.00000000 </v>
   <v name="genvec2">      0.00000000       0.14285714       0.00000000 </v>
   <v name="genvec3">      0.00000000       0.00000000       0.12500000 </v>
   <v name="shift">      0.00000000       0.00000000       0.00000000 </v>
  </generation>
  <varray name="kpointlist" >
   <v>       0.00000000       0.00000000       0.00000000 </v>
   <v>       0.14285714       0.00000000       0.00000000 </v>
   <v>       0.28571429       0.00000000       0.00000000 </v>
   <v>       0.42857143       0.00000000       0.00000000 </v>
   <v>       0.14285714       0.14285714       0.00000000 </v>
   <v>       0.28571429       0.14285714       0.00000000 </v>
   <v>       0.42857143       0.14285714       0.00000000 </v>
   <v>      -0.42857143       0.14285714       0.00000000 </v>
   <v>      -0.28571429       0.14285714       0.00000000 </v>
   <v>      -0.14285714       0.14285714       0.00000000 </v>
   <v>       0.28571429       0.28571429       0.00000000 </v>
   <v>       0.42857143       0.28571429       0.00000000 </v>
   <v>      -0.42857143       0.28571429       0.00000000 </v>
   <v>      -0.28571429       0.28571429       0.00000000 </v>
   <v>       0.42857143       0.42857143       0.00000000 </v>
   <v>      -0.42857143       0.42857143       0.00000000 </v>
   <v>       0.00000000       0.00000000       0.12500000 </v>
   <v>       0.14285714       0.00000000       0.12500000 </v>
   <v>       0.28571429       0.00000000       0.12500000 </v>
   <v>       0.42857143       0.00000000       0.12500000 </v>
   <v>      -0.42857143       0.00000000       0.12500000 </v>
   <v>      -0.28571429       0.00000000       0.12500000 </v>
   <v>      -0.14285714       0.00000000       0.12500000 </v>
   <v>       0.14285714       0.14285714       0.12500000 </v>
   <v>       0.28571429       0.14285714       0.12500000 </v>
   <v>       0.42857143       0.14285714       0.12500000 </v>
   <v>      -0.42857143       0.14285714       0.12500000 </v>
   <v>      -0.28571429       0.14285714       0.12500000 </v>
   <v>      -0.14285714       0.14285714       0.12500000 </v>
   <v>       0.28571429       0.28571429       0.12500000 </v>
   <v>       0.42857143       0.28571429       0.12500000 </v>
   <v>      -0.42857143       0.28571429       0.12500000 </v>
   <v>      -0.28571429       0.28571429       0.12500000 </v>
   <v>      -0.14285714       0.28571429       0.12500000 </v>
   <v>       0.42857143       0.42857143       0.12500000 </v>
   <v>      -0.42857143       0.42857143       0.12500000 </v>
   <v>      -0.28571429       0.42857143       0.12500000 </v>
   <v>      -0.14285714       0.42857143       0.12500000 </v>
   <v>      -0.42857143      -0.42857143       0.12500000 </v>
   <v>      -0.28571429      -0.42857143       0.12500000 </v>
   <v>      -0.14285714      -0.42857143       0.12500000 </v>
   <v>      -0.28571429      -0.28571429       0.12500000 </v>
   <v>      -0.14285714      -0.28571429       0.12500000 </v>
   <v>      -0.14285714      -0.14285714       0.12500000 </v>
   <v>       0.00000000       0.00000000       0.25000000 </v>
   <v>       0.14285714       0.00000000       0.25000000 </v>
   <v>       0.28571429      -0.00000000       0.25000000 </v>
   <v>       0.42857143       0.00000000       0.25000000 </v>
   <v>      -0.42857143       0.00000000       0.25000000 </v>
   <v>      -0.28571429       0.00000000       0.25000000 </v>
   <v>      -0.14285714       0.00000000       0.25000000 </v>
   <v>       0.14285714       0.14285714       0.25000000 </v>
   <v>       0.28571429       0.14285714       0.25000000 </v>
   <v>       0.42857143       0.14285714       0.25000000 </v>
   <v>      -0.42857143       0.14285714       0.25000000 </v>
   <v>      -0.28571429       0.14285714       0.25000000 </v>
   <v>      -0.14285714       0.14285714       0.25000000 </v>
   <v>       0.28571429       0.28571429       0.25000000 </v>
   <v>       0.42857143       0.28571429       0.25000000 </v>
   <v>      -0.42857143       0.28571429       0.25000000 </v>
   <v>      -0.28571429       0.28571429       0.25000000 </v>
   <v>      -0.14285714       0.28571429       0.25000000 </v>
   <v>       0.42857143       0.42857143       0.25000000 </v>
   <v>      -0.42857143       0.42857143       0.25000000 </v>
   <v>      -0.28571429       0.42857143       0.25000000 </v>
   <v>      -0.14285714       0.42857143       0.25000000 </v>
   <v>      -0.42857143      -0.42857143       0.25000000 </v>
   <v>      -0.28571429      -0.42857143       0.25000000 </v>
   <v>      -0.14285714      -0.42857143       0.25000000 </v>
   <v>      -0.28571429      -0.28571429       0.25000000 </v>
   <v>      -0.14285714      -0.28571429       0.25000000 </v>
   <v>      -0.14285714      -0.14285714       0.25000000 </v>
   <v>      -0.00000000       0.00000000       0.37500000 </v>
   <v>       0.14285714      -0.00000000       0.37500000 </v>
   <v>       0.28571429       0.00000000       0.37500000 </v>
   <v>       0.42857143       0.00000000       0.37500000 </v>
   <v>      -0.42857143      -0.00000000       0.37500000 </v>
   <v>      -0.28571429      -0.00000000       0.37500000 </v>
   <v>      -0.14285714      -0.00000000       0.37500000 </v>
   <v>       0.14285714       0.14285714       0.37500000 </v>
   <v>       0.28571429       0.14285714       0.37500000 </v>
   <v>       0.42857143       0.14285714       0.37500000 </v>
   <v>      -0.42857143       0.14285714       0.37500000 </v>
   <v>      -0.28571429       0.14285714       0.37500000 </v>
   <v>      -0.14285714       0.14285714       0.37500000 </v>
   <v>       0.28571429       0.28571429       0.37500000 </v>
   <v>       0.42857143       0.28571429       0.37500000 </v>
   <v>      -0.42857143       0.28571429       0.37500000 </v>
   <v>      -0.28571429       0.28571429       0.37500000 </v>
   <v>      -0.14285714       0.28571429       0.37500000 </v>
   <v>       0.42857143       0.42857143       0.37500000 </v>
   <v>      -0.42857143       0.42857143       0.37500000 </v>
   <v>      -0.28571429       0.42857143       0.37500000 </v>
   <v>      -0.14285714       0.42857143       0.37500000 </v>
   <v>      -0.42857143      -0.42857143       0.37500000 </v>
   <v>      -0.28571429      -0.42857143       0.37500000 </v>
   <v>      -0.14285714      -0.42857143       0.37500000 </v>
   <v>      -0.28571429      -0.28571429       0.37500000 </v>
   <v>      -0.14285714      -0.28571429       0.37500000 </v>
   <v>      -0.14285714      -0.14285714       0.37500000 </v>
   <v>       0.00000000       0.00000000       0.50000000 </v>
   <v>       0.14285714       0.00000000       0.50000000 </v>
   <v>       0.28571429      -0.00000000       0.50000000 </v>
   <v>       0.42857143       0.00000000       0.50000000 </v>
   <v>       0.14285714       0.14285714       0.50000000 </v>
   <v>       0.28571429       0.14285714       0.50000000 </v>
   <v>       0.42857143       0.14285714       0.50000000 </v>
   <v>      -0.42857143       0.14285714       0.50000000 </v>
   <v>      -0.28571429       0.14285714       0.50000000 </v>
   <v>      -0.14285714       0.14285714       0.50000000 </v>
   <v>       0.28571429       0.28571429       0.50000000 </v>
   <v>       0.42857143       0.28571429       0.50000000 </v>
   <v>      -0.42857143       0.28571429       0.50000000 </v>
   <v>      -0.28571429       0.28571429       0.50000000 </v>
   <v>       0.42857143       0.42857143       0.50000000 </v>
   <v>      -0.42857143       0.42857143       0.50000000 </v>
  </varray>
  <varray name="weights" >
   <v>       0.00255102 </v>
   <v>       0.01020408 </v>
   <v>       0.01020408 </v>
   <v>       0.01020408 </v>
   <v>       0.00510204 </v>
   <v>       0.01020408 </v>
   <v>       0.01020408 </v>
   <v>       0.01020408 </v>
   <v>       0.01020408 </v>
   <v>       0.00510204 </v>
   <v>       0.00510204 </v>
   <v>       0.01020408 </v>
   <v>       0.01020408 </v>
   <v>       0.00510204 </v>
   <v>       0.00510204 </v>
   <v>       0.00510204 </v>
   <v>       0.00510204 </v>
   <v>       0.01020408 </v>
   <v>       0.01020408 </v>
   <v>       0.01020408 </v>
   <v>       0.01020408 </v>
   <v>       0.01020408 </v>
   <v>       0.01020408 </v>
   <v>       0.00510204 </v>
   <v>       0.01020408 </v>
   <v>       0.01020408 </v>
   <v>       0.01020408 </v>
   <v>       0.01020408 </v>
   <v>       0.01020408 </v>
   <v>       0.00510204 </v>
   <v>       0.01020408 </v>
   <v>       0.01020408 </v>
   <v>       0.01020408 </v>
   <v>       0.01020408 </v>
   <v>       0.00510204 </v>
   <v>       0.01020408 </v>
   <v>       0.01020408 </v>
   <v>       0.01020408 </v>
   <v>       0.00510204 </v>
   <v>       0.01020408 </v>
   <v>       0.01020408 </v>
   <v>       0.00510204 </v>
   <v>       0.01020408 </v>
   <v>       0.00510204 </v>
   <v>       0.00510204 </v>
   <v>       0.01020408 </v>
   <v>       0.01020408 </v>
   <v>       0.01020408 </v>
   <v>       0.01020408 </v>
   <v>       0.01020408 </v>
   <v>       0.01020408 </v>
   <v>       0.00510204 </v>
   <v>       0.01020408 </v>
   <v>       0.01020408 </v>
   <v>       0.01020408 </v>
   <v>       0.01020408 </v>
   <v>       0.01020408 </v>
   <v>       0.00510204 </v>
   <v>       0.01020408 </v>
   <v>       0.01020408 </v>
   <v>       0.01020408 </v>
   <v>       0.01020408 </v>
   <v>       0.00510204 </v>
   <v>       0.01020408 </v>
   <v>       0.01020408 </v>
   <v>       0.01020408 </v>
   <v>       0.00510204 </v>
   <v>       0.01020408 </v>
   <v>       0.01020408 </v>
   <v>       0.00510204 </v>
   <v>       0.01020408 </v>
   <v>       0.00510204 </v>
   <v>       0.00510204 </v>
   <v>       0.01020408 </v>
   <v>       0.01020408 </v>
   <v>       0.01020408 </v>
   <v>       0.01020408 </v>
   <v>       0.01020408 </v>
   <v>       0.01020408 </v>
   <v>       0.00510204 </v>
   <v>       0.01020408 </v>
   <v>       0.01020408 </v>
   <v>       0.01020408 </v>
   <v>       0.01020408 </v>
   <v>       0.01020408 </v>
   <v>       0.00510204 </v>
   <v>       0.01020408 </v>
   <v>       0.01020408 </v>
   <v>       0.01020408 </v>
   <v>       0.01020408 </v>
   <v>       0.00510204 </v>
   <v>       0.01020408 </v>
   <v>       0.01020408 </v>
   <v>       0.01020408 </v>
   <v>       0.00510204 </v>
   <v>       0.01020408 </v>
   <v>       0.01020408 </v>
   <v>       0.00510204 </v>
   <v>       0.01020408 </v>
   <v>       0.00510204 </v>
   <v>       0.00255102 </v>
   <v>       0.01020408 </v>
   <v>       0.01020408 </v>
   <v>       0.01020408 </v>
   <v>       0.00510204 </v>
   <v>       0.01020408 </v>
   <v>       0.01020408 </v>
   <v>       0.01020408 </v>
   <v>       0.01020408 </v>
   <v>       0.00510204 </v>
   <v>       0.00510204 </v>
   <v>       0.01020408 </v>
   <v>       0.01020408 </v>
   <v>       0.00510204 </v>
   <v>       0.00510204 </v>
   <v>       0.00510204 </v>
  </varray>
 </kpoints>
 <parameters>
  <separator name="general" >
   <i type="string" name="SYSTEM">routine with relax: pwdword</i>
   <i type="logical" name="LCOMPAT"> F  </i>
  </separator>
  <separator name="electronic" >
   <i type="string" name="PREC">acc</i>
   <i name="ENMAX">    600.00000000</i>
   <i name="ENAUG">    535.51400000</i>
   <i name="EDIFF">      0.00000000</i>
   <i type="int" name="IALGO">    58</i>
   <i type="int" name="IWAVPR">    10</i>
   <i type="int" name="NBANDS">    48</i>
   <i type="int" name="NBANDSLOW">    -1</i>
   <i type="int" name="NBANDSHIGH">    -1</i>
   <i name="NELECT">     76.00000000</i>
   <i type="int" name="TURBO">     0</i>
   <i type="int" name="IRESTART">     0</i>
   <i type="int" name="NREBOOT">     0</i>
   <i type="int" name="NMIN">     0</i>
   <i name="EREF">      0.00000000</i>
   <separator name="electronic smearing" >
    <i type="int" name="ISMEAR">     0</i>
    <i name="SIGMA">      0.02000000</i>
    <i name="KSPACING">      0.50000000</i>
    <i type="logical" name="KGAMMA"> T  </i>
    <i type="logical" name="KBLOWUP"> F  </i>
   </separator>
   <separator name="electronic projectors" >
    <i type="logical" name="LREAL"> F  </i>
    <v name="ROPT">      0.00000000      0.00000000      0.00000000</v>
    <i type="int" name="LMAXPAW">  -100</i>
    <i type="int" name="LMAXMIX">     2</i>
    <i type="logical" name="NLSPLINE"> F  </i>
   </separator>
   <separator name="electronic startup" >
    <i type="int" name="ISTART">     0</i>
    <i type="int" name="ICHARG">     2</i>
    <i type="int" name="INIWAV">     1</i>
   </separator>
   <separator name="electronic spin" >
    <i type="int" name="ISPIN">     1</i>
    <i type="logical" name="LNONCOLLINEAR"> F  </i>
    <v name="MAGMOM">      1.00000000      1.00000000      1.00000000      1.00000000      1.00000000      1.00000000      1.00000000      1.00000000      1.00000000      1.00000000</v>
    <i name="NUPDOWN">     -1.00000000</i>
    <i type="logical" name="LSORBIT"> F  </i>
    <v name="SAXIS">      0.00000000      0.00000000      1.00000000</v>
    <i type="logical" name="LSPIRAL"> F  </i>
    <v name="QSPIRAL">      0.00000000      0.00000000      0.00000000</v>
    <i type="logical" name="LZEROZ"> F  </i>
   </separator>
   <separator name="electronic exchange-correlation" >
    <i type="logical" name="LASPH"> T  </i>
    <i type="logical" name="LMETAGGA"> F  </i>
   </separator>
   <separator name="electronic convergence" >
    <i type="int" name="NELM">   100</i>
    <i type="int" name="NELMDL">    -5</i>
    <i type="int" name="NELMIN">     6</i>
    <i name="ENINI">    600.00000000</i>
    <separator name="electronic convergence detail" >
     <i type="logical" name="LDIAG"> T  </i>
     <i type="logical" name="LSUBROT"> F  </i>
     <i name="WEIMIN">      0.00000000</i>
     <i name="EBREAK">      0.00000000</i>
     <i name="DEPER">      0.30000000</i>
     <i type="int" name="NRMM">     4</i>
     <i name="TIME">      0.40000000</i>
    </separator>
   </separator>
   <separator name="electronic mixer" >
    <i name="AMIX">      0.40000000</i>
    <i name="BMIX">      1.00000000</i>
    <i name="AMIN">      0.10000000</i>
    <i name="AMIX_MAG">      1.60000000</i>
    <i name="BMIX_MAG">      1.00000000</i>
    <separator name="electronic mixer details" >
     <i type="int" name="IMIX">     4</i>
     <i type="logical" name="MIXFIRST"> F  </i>
     <i type="int" name="MAXMIX">   -45</i>
     <i name="WC">    100.00000000</i>
     <i type="int" name="INIMIX">     1</i>
     <i type="int" name="MIXPRE">     1</i>
     <i type="int" name="MREMOVE">     5</i>
    </separator>
   </separator>
   <separator name="electronic dipolcorrection" >
    <i type="logical" name="LDIPOL"> F  </i>
    <i type="logical" name="LMONO"> F  </i>
    <i type="int" name="IDIPOL">     0</i>
    <i name="EPSILON">      1.00000000</i>
    <v name="DIPOL">   -100.00000000   -100.00000000   -100.00000000</v>
    <i name="EFIELD">      0.00000000</i>
   </separator>
  </separator>
  <separator name="grids" >
   <i type="int" name="NGX">    54</i>
   <i type="int" name="NGY">    54</i>
   <i type="int" name="NGZ">    54</i>
   <i type="int" name="NGXF">   108</i>
   <i type="int" name="NGYF">   108</i>
   <i type="int" name="NGZF">   108</i>
   <i type="logical" name="ADDGRID"> T  </i>
  </separator>
  <separator name="ionic" >
   <i type="int" name="NSW">     0</i>
   <i type="int" name="IBRION">    -1</i>
   <i type="int" name="MDALGO">     0</i>
   <i type="int" name="ISIF">    -1</i>
   <i name="PSTRESS">      0.00000000</i>
   <i name="EDIFFG">      0.00000001</i>
   <i type="int" name="NFREE">     0</i>
   <i name="POTIM">      0.50000000</i>
   <i name="SMASS">     -3.00000000</i>
   <i name="SCALEE">      1.00000000</i>
  </separator>
  <separator name="ionic md" >
   <i name="TEBEG">      0.00010000</i>
   <i name="TEEND">      0.00010000</i>
   <i type="int" name="NBLOCK">     1</i>
   <i type="int" name="KBLOCK">     1</i>
   <i type="int" name="NPACO">   256</i>
   <i name="APACO">     16.00000000</i>
  </separator>
  <separator name="symmetry" >
   <i type="int" name="ISYM">     2</i>
   <i name="SYMPREC">      0.00001000</i>
  </separator>
  <separator name="dos" >
   <i type="int" name="LORBIT">     0</i>
   <v name="RWIGS">     -1.00000000     -1.00000000     -1.00000000</v>
   <i type="int" name="NEDOS">   301</i>
   <i name="EMIN">     10.00000000</i>
   <i name="EMAX">    -10.00000000</i>
   <i name="EFERMI">      0.00000000</i>
  </separator>
  <separator name="writing" >
   <i type="int" name="NWRITE">     2</i>
   <i type="logical" name="LWAVE"> T  </i>
   <i type="logical" name="LDOWNSAMPLE"> F  </i>
   <i type="logical" name="LCHARG"> T  </i>
   <i type="logical" name="LPARD"> F  </i>
   <i type="logical" name="LVTOT"> F  </i>
   <i type="logical" name="LVHAR"> F  </i>
   <i type="logical" name="LELF"> F  </i>
   <i type="logical" name="LOPTICS"> F  </i>
   <v name="STM">      0.00000000      0.00000000      0.00000000      0.00000000      0.00000000      0.00000000      0.00000000</v>
  </separator>
  <separator name="performance" >
   <i type="int" name="NPAR">     6</i>
   <i type="int" name="NSIM">     4</i>
   <i type="int" name="NBLK">    -1</i>
   <i type="logical" name="LPLANE"> T  </i>
   <i type="logical" name="LSCALAPACK"> T  </i>
   <i type="logical" name="LSCAAWARE"> F  </i>
   <i type="logical" name="LSCALU"> F  </i>
   <i type="logical" name="LASYNC"> F  </i>
   <i type="logical" name="LORBITALREAL"> F  </i>
  </separator>
  <separator name="miscellaneous" >
   <i type="int" name="IDIOT">     3</i>
   <i type="int" name="PHON_NSTRUCT">    -1</i>
   <i type="logical" name="LMUSIC"> F  </i>
   <v name="POMASS">     10.81100000     95.94000000     28.08500000</v>
   <v name="DARWINR">      0.00000000      0.00000000      0.00000000</v>
   <v name="DARWINV">      1.00000000      1.00000000      1.00000000</v>
   <i type="logical" name="LCORR"> T  </i>
  </separator>
  <i type="logical" name="GGA_COMPAT"> T  </i>
  <i type="logical" name="LBERRY"> F  </i>
  <i type="int" name="ICORELEVEL">     0</i>
  <i type="logical" name="LDAU"> F  </i>
  <i type="int" name="I_CONSTRAINED_M">     0</i>
  <separator name="electronic exchange-correlation" >
   <i type="string" name="GGA">--</i>
   <i type="int" name="VOSKOWN">     0</i>
   <i type="logical" name="LHFCALC"> F  </i>
   <i type="string" name="PRECFOCK"></i>
   <i type="logical" name="LSYMGRAD"> F  </i>
   <i type="logical" name="LHFONE"> F  </i>
   <i type="logical" name="LRHFCALC"> F  </i>
   <i type="logical" name="LTHOMAS"> F  </i>
   <i type="logical" name="LMODELHF"> F  </i>
   <i type="logical" name="LFOCKACE"> F  </i>
   <i name="ENCUT4O">     -1.00000000</i>
   <i type="int" name="EXXOEP">     0</i>
   <i type="int" name="FOURORBIT">     0</i>
   <i name="AEXX">      0.00000000</i>
   <i name="HFALPHA">      0.00000000</i>
   <i name="MCALPHA">      0.00000000</i>
   <i name="ALDAX">      1.00000000</i>
   <i name="AGGAX">      1.00000000</i>
   <i name="ALDAC">      1.00000000</i>
   <i name="AGGAC">      1.00000000</i>
   <i type="int" name="NKREDX">     1</i>
   <i type="int" name="NKREDY">     1</i>
   <i type="int" name="NKREDZ">     1</i>
   <i type="logical" name="SHIFTRED"> F  </i>
   <i type="logical" name="ODDONLY"> F  </i>
   <i type="logical" name="EVENONLY"> F  </i>
   <i type="int" name="LMAXFOCK">     0</i>
   <i type="int" name="NMAXFOCKAE">     0</i>
   <i type="logical" name="LFOCKAEDFT"> F  </i>
   <i name="HFSCREEN">      0.00000000</i>
   <i name="HFSCREENC">      0.00000000</i>
   <i type="int" name="NBANDSGWLOW">     0</i>
  </separator>
  <separator name="vdW DFT" >
   <i type="logical" name="LUSE_VDW"> F  </i>
   <i name="Zab_VDW">     -0.84910000</i>
   <i name="PARAM1">      0.12340000</i>
   <i name="PARAM2">      1.00000000</i>
   <i name="PARAM3">      0.00000000</i>
  </separator>
  <separator name="model GW" >
   <i type="int" name="MODEL_GW">     0</i>
   <i name="MODEL_EPS0">     12.23340904</i>
   <i name="MODEL_ALPHA">      1.00000000</i>
  </separator>
  <separator name="linear response parameters" >
   <i type="logical" name="LEPSILON"> F  </i>
   <i type="logical" name="LRPA"> F  </i>
   <i type="logical" name="LNABLA"> F  </i>
   <i type="logical" name="LVEL"> F  </i>
   <i type="int" name="KINTER">     0</i>
   <i name="CSHIFT">      0.10000000</i>
   <i name="OMEGAMAX">     -1.00000000</i>
   <i name="DEG_THRESHOLD">      0.00200000</i>
   <i name="RTIME">     -0.10000000</i>
   <i name="WPLASMAI">      0.00000000</i>
   <v name="DFIELD">      0.00000000      0.00000000      0.00000000</v>
   <v name="WPLASMA">      0.00000000      0.00000000      0.00000000      0.00000000      0.00000000      0.00000000      0.00000000      0.00000000      0.00000000</v>
  </separator>
  <separator name="orbital magnetization" >
   <i type="logical" name="NUCIND"> F  </i>
   <v name="MAGPOS">      0.00000000      0.00000000      0.00000000</v>
   <i type="logical" name="LNICSALL"> T  </i>
   <i type="logical" name="ORBITALMAG"> F  </i>
   <i type="logical" name="LMAGBLOCH"> F  </i>
   <i type="logical" name="LCHIMAG"> F  </i>
   <i type="logical" name="LGAUGE"> T  </i>
   <i type="int" name="MAGATOM">     0</i>
   <v name="MAGDIPOL">      0.00000000      0.00000000      0.00000000</v>
   <v name="AVECCONST">      0.00000000      0.00000000      0.00000000</v>
  </separator>
  <separator name="response functions" >
   <i type="logical" name="LFINITE_TEMPERATURE"> F  </i>
   <i type="logical" name="LADDER"> F  </i>
   <i type="logical" name="LRPAFORCE"> F  </i>
   <i type="logical" name="LFXC"> F  </i>
   <i type="logical" name="LHARTREE"> T  </i>
   <i type="int" name="IBSE">     0</i>
   <v type="int" name="KPOINT">    -1     0     0     0</v>
   <i type="logical" name="LTCTC"> F  </i>
   <i type="logical" name="LTCTE"> F  </i>
   <i type="logical" name="LTETE"> F  </i>
   <i type="logical" name="LTRIPLET"> F  </i>
   <i type="logical" name="LFXCEPS"> F  </i>
   <i type="logical" name="LFXHEG"> F  </i>
   <i type="int" name="NATURALO">     2</i>
   <i type="logical" name="LHOLEGF"> F  </i>
   <i type="logical" name="L2ORDER"> F  </i>
   <i type="logical" name="LDMP1"> F  </i>
   <i type="logical" name="LMP2LT"> F  </i>
   <i type="logical" name="LSMP2LT"> F  </i>
   <i type="logical" name="LGWLF"> F  </i>
   <i name="ENCUTGW">     -2.00000000</i>
   <i name="ENCUTGWSOFT">     -2.00000000</i>
   <i name="ENCUTLF">     -1.00000000</i>
   <i type="logical" name="LESF_SPLINES"> F  </i>
   <i type="int" name="LMAXMP2">    -1</i>
   <i name="SCISSOR">      0.00000000</i>
   <i type="int" name="NOMEGA">     0</i>
   <i type="int" name="NOMEGAR">     0</i>
   <i type="int" name="NBANDSGW">    -1</i>
   <i type="int" name="NBANDSO">    -1</i>
   <i type="int" name="NBANDSV">    -1</i>
   <i type="int" name="NELM">   100</i>
   <i type="int" name="NELMHF">     1</i>
   <i type="int" name="DIM">     3</i>
   <i type="int" name="IESPILON">     4</i>
   <i type="int" name="ANTIRES">     0</i>
   <i name="OMEGAMAX">    -30.00000000</i>
   <i name="OMEGAMIN">    -30.00000000</i>
   <i name="OMEGATL">   -200.00000000</i>
   <i type="int" name="OMEGAGRID">     0</i>
   <i name="CSHIFT">     -0.10000000</i>
   <i type="logical" name="LSELFENERGY"> F  </i>
   <i type="logical" name="LSPECTRAL"> F  </i>
   <i type="logical" name="LSPECTRALGW"> F  </i>
   <i type="logical" name="LSINGLES"> F  </i>
   <i type="logical" name="LFERMIGW"> F  </i>
   <i type="logical" name="ODDONLYGW"> F  </i>
   <i type="logical" name="EVENONLYGW"> F  </i>
   <i type="int" name="NKREDLFX">     1</i>
   <i type="int" name="NKREDLFY">     1</i>
   <i type="int" name="NKREDLFZ">     1</i>
   <i type="int" name="MAXMEM">  2800</i>
   <i type="int" name="TELESCOPE">     0</i>
   <i type="int" name="NTAUPAR">    -1</i>
   <i type="int" name="NOMEGAPAR">    -1</i>
   <i name="DAMP_NEWTON">      0.80000001</i>
   <i name="LAMBDA">      1.00000000</i>
  </separator>
  <separator name="External order field" >
   <i name="OFIELD_KAPPA">      0.00000000</i>
   <v name="OFIELD_K">      0.00000000      0.00000000      0.00000000</v>
   <i name="OFIELD_Q6_NEAR">      0.00000000</i>
   <i name="OFIELD_Q6_FAR">      0.00000000</i>
   <i name="OFIELD_A">      0.00000000</i>
  </separator>
 </parameters>
 <atominfo>
  <atoms>      10 </atoms>
  <types>       3 </types>
  <array name="atoms" >
   <dimension dim="1">ion</dimension>
   <field type="string">element</field>
   <field type="int">atomtype</field>
   <set>
    <rc><c>B </c><c>   1</c></rc>
    <rc><c>B </c><c>   1</c></rc>
    <rc><c>B </c><c>   1</c></rc>
    <rc><c>B </c><c>   1</c></rc>
    <rc><c>Mo</c><c>   2</c></rc>
    <rc><c>Mo</c><c>   2</c></rc>
    <rc><c>Mo</c><c>   2</c></rc>
    <rc><c>Mo</c><c>   2</c></rc>
    <rc><c>Si</c><c>   3</c></rc>
    <rc><c>Si</c><c>   3</c></rc>
   </set>
  </array>
  <array name="atomtypes" >
   <dimension dim="1">type</dimension>
   <field type="int">atomspertype</field>
   <field type="string">element</field>
   <field>mass</field>
   <field>valence</field>
   <field type="string">pseudopotential</field>
   <set>
    <rc><c>   4</c><c>B </c><c>     10.81100000</c><c>      3.00000000</c><c>  PAW_PBE B 06Sep2000                   </c></rc>
    <rc><c>   4</c><c>Mo</c><c>     95.94000000</c><c>     14.00000000</c><c>  PAW_PBE Mo_sv 02Feb2006               </c></rc>
    <rc><c>   2</c><c>Si</c><c>     28.08500000</c><c>      4.00000000</c><c>  PAW_PBE Si 05Jan2001                  </c></rc>
   </set>
  </array>
 </atominfo>
 <structure name="initialpos" >
  <crystal>
   <varray name="basis" >
    <v>       5.73844743       0.00000000      -3.23463664 </v>
    <v>      -1.95878737       5.39378632      -3.23463664 </v>
    <v>       0.00000000       0.00000000       6.58731000 </v>
   </varray>
   <i name="volume">    203.89015060 </i>
   <varray name="rec_basis" >
    <v>       0.17426316       0.06328476       0.00000000 </v>
    <v>       0.00000000       0.18539852       0.00000000 </v>
    <v>       0.08557029       0.12211359       0.15180704 </v>
   </varray>
  </crystal>
  <varray name="positions" >
   <v>       0.50000000       0.00000000       0.00000000 </v>
   <v>       0.00000000       0.00000000       0.50000000 </v>
   <v>       0.00000000       0.50000000       0.00000000 </v>
   <v>       0.50000000       0.50000000       0.50000000 </v>
   <v>       0.25000000       0.75000000       0.50000000 </v>
   <v>       0.50000000       0.50000000       0.00000000 </v>
   <v>       0.75000000       0.25000000       0.50000000 </v>
   <v>       0.00000000       0.00000000       0.00000000 </v>
   <v>       0.25000000       0.25000000       0.00000000 </v>
   <v>       0.75000000       0.75000000       0.00000000 </v>
  </varray>
 </structure>
 <calculation>
  <scstep>
   <time name="total">   22.98   23.68</time>
   <energy>
    <i name="alphaZ">    236.73010808 </i>
    <i name="ewald">  -5328.47869885 </i>
    <i name="hartreedc">  -2228.00659923 </i>
    <i name="XCdc">    319.92366435 </i>
    <i name="pawpsdc">   6278.15209018 </i>
    <i name="pawaedc">  -6244.81064237 </i>
    <i name="eentropy">     -0.00054819 </i>
    <i name="bandstr">   -401.00070467 </i>
    <i name="atom">   7939.94160518 </i>
    <i name="e_fr_energy">    572.45027449 </i>
    <i name="e_wo_entrp">    572.45082267 </i>
    <i name="e_0_energy">    572.45054858 </i>
   </energy>
  </scstep>
  <scstep>
   <time name="total">   22.78   23.41</time>
   <energy>
    <i name="e_fr_energy">   -130.81002155 </i>
    <i name="e_wo_entrp">   -130.80784889 </i>
    <i name="e_0_energy">   -130.80893522 </i>
   </energy>
  </scstep>
  <scstep>
   <time name="total">   25.42   26.07</time>
   <energy>
    <i name="e_fr_energy">   -163.92860436 </i>
    <i name="e_wo_entrp">   -163.92762492 </i>
    <i name="e_0_energy">   -163.92811464 </i>
   </energy>
  </scstep>
  <scstep>
   <time name="total">   24.93   25.46</time>
   <energy>
    <i name="e_fr_energy">   -165.03644421 </i>
    <i name="e_wo_entrp">   -165.03548782 </i>
    <i name="e_0_energy">   -165.03596601 </i>
   </energy>
  </scstep>
  <scstep>
   <time name="total">   27.46   28.10</time>
   <energy>
    <i name="e_fr_energy">   -165.07721445 </i>
    <i name="e_wo_entrp">   -165.07621722 </i>
    <i name="e_0_energy">   -165.07671583 </i>
   </energy>
  </scstep>
  <scstep>
   <time name="total">   28.31   28.78</time>
   <energy>
    <i name="e_fr_energy">    -89.90763742 </i>
    <i name="e_wo_entrp">    -89.90699636 </i>
    <i name="e_0_energy">    -89.90731689 </i>
   </energy>
  </scstep>
  <scstep>
   <time name="total">   30.27   30.93</time>
   <energy>
    <i name="e_fr_energy">   -121.25806821 </i>
    <i name="e_wo_entrp">   -121.25632873 </i>
    <i name="e_0_energy">   -121.25719847 </i>
   </energy>
  </scstep>
  <scstep>
   <time name="total">   30.80   31.44</time>
   <energy>
    <i name="e_fr_energy">   -127.28500730 </i>
    <i name="e_wo_entrp">   -127.28217830 </i>
    <i name="e_0_energy">   -127.28359280 </i>
   </energy>
  </scstep>
  <scstep>
   <time name="total">   31.10   31.49</time>
   <energy>
    <i name="e_fr_energy">   -128.79195129 </i>
    <i name="e_wo_entrp">   -128.78930706 </i>
    <i name="e_0_energy">   -128.79062918 </i>
   </energy>
  </scstep>
  <scstep>
   <time name="total">   29.62   30.02</time>
   <energy>
    <i name="e_fr_energy">   -129.43048858 </i>
    <i name="e_wo_entrp">   -129.42806329 </i>
    <i name="e_0_energy">   -129.42927594 </i>
   </energy>
  </scstep>
  <scstep>
   <time name="total">   31.16   31.50</time>
   <energy>
    <i name="e_fr_energy">   -129.62247701 </i>
    <i name="e_wo_entrp">   -129.62006380 </i>
    <i name="e_0_energy">   -129.62127040 </i>
   </energy>
  </scstep>
  <scstep>
   <time name="total">   30.34   30.57</time>
   <energy>
    <i name="e_fr_energy">   -129.74375606 </i>
    <i name="e_wo_entrp">   -129.74143001 </i>
    <i name="e_0_energy">   -129.74259303 </i>
   </energy>
  </scstep>
  <scstep>
   <time name="total">   30.08   30.38</time>
   <energy>
    <i name="e_fr_energy">   -129.81700126 </i>
    <i name="e_wo_entrp">   -129.81452134 </i>
    <i name="e_0_energy">   -129.81576130 </i>
   </energy>
  </scstep>
  <scstep>
   <time name="total">   30.10   30.46</time>
   <energy>
    <i name="e_fr_energy">   -129.86306956 </i>
    <i name="e_wo_entrp">   -129.86036284 </i>
    <i name="e_0_energy">   -129.86171620 </i>
   </energy>
  </scstep>
  <scstep>
   <time name="total">   29.58   30.05</time>
   <energy>
    <i name="e_fr_energy">   -129.88270795 </i>
    <i name="e_wo_entrp">   -129.88003650 </i>
    <i name="e_0_energy">   -129.88137223 </i>
   </energy>
  </scstep>
  <scstep>
   <time name="total">   30.56   30.84</time>
   <energy>
    <i name="e_fr_energy">   -129.90381963 </i>
    <i name="e_wo_entrp">   -129.90111107 </i>
    <i name="e_0_energy">   -129.90246535 </i>
   </energy>
  </scstep>
  <scstep>
   <time name="total">   31.54   31.82</time>
   <energy>
    <i name="e_fr_energy">   -129.91876176 </i>
    <i name="e_wo_entrp">   -129.91606984 </i>
    <i name="e_0_energy">   -129.91741580 </i>
   </energy>
  </scstep>
  <scstep>
   <time name="total">   27.99   28.24</time>
   <energy>
    <i name="e_fr_energy">   -129.92632510 </i>
    <i name="e_wo_entrp">   -129.92357503 </i>
    <i name="e_0_energy">   -129.92495007 </i>
   </energy>
  </scstep>
  <scstep>
   <time name="total">   28.87   29.20</time>
   <energy>
    <i name="e_fr_energy">   -129.92900968 </i>
    <i name="e_wo_entrp">   -129.92631215 </i>
    <i name="e_0_energy">   -129.92766092 </i>
   </energy>
  </scstep>
  <scstep>
   <time name="total">   29.14   29.37</time>
   <energy>
    <i name="e_fr_energy">   -129.93128087 </i>
    <i name="e_wo_entrp">   -129.92857753 </i>
    <i name="e_0_energy">   -129.92992920 </i>
   </energy>
  </scstep>
  <scstep>
   <time name="total">   30.13   30.50</time>
   <energy>
    <i name="e_fr_energy">   -129.93361736 </i>
    <i name="e_wo_entrp">   -129.93093109 </i>
    <i name="e_0_energy">   -129.93227422 </i>
   </energy>
  </scstep>
  <scstep>
   <time name="total">   29.22   29.67</time>
   <energy>
    <i name="e_fr_energy">   -129.93510765 </i>
    <i name="e_wo_entrp">   -129.93239692 </i>
    <i name="e_0_energy">   -129.93375229 </i>
   </energy>
  </scstep>
  <scstep>
   <time name="total">   30.80   31.12</time>
   <energy>
    <i name="e_fr_energy">   -129.93553953 </i>
    <i name="e_wo_entrp">   -129.93284611 </i>
    <i name="e_0_energy">   -129.93419282 </i>
   </energy>
  </scstep>
  <scstep>
   <time name="total">   30.35   30.71</time>
   <energy>
    <i name="e_fr_energy">   -129.93598521 </i>
    <i name="e_wo_entrp">   -129.93328430 </i>
    <i name="e_0_energy">   -129.93463476 </i>
   </energy>
  </scstep>
  <scstep>
   <time name="total">   29.06   29.40</time>
   <energy>
    <i name="e_fr_energy">   -129.93626951 </i>
    <i name="e_wo_entrp">   -129.93357466 </i>
    <i name="e_0_energy">   -129.93492209 </i>
   </energy>
  </scstep>
  <scstep>
   <time name="total">   29.63   29.89</time>
   <energy>
    <i name="e_fr_energy">   -129.93638162 </i>
    <i name="e_wo_entrp">   -129.93367455 </i>
    <i name="e_0_energy">   -129.93502809 </i>
   </energy>
  </scstep>
  <scstep>
   <time name="total">   28.99   29.21</time>
   <energy>
    <i name="e_fr_energy">   -129.93645235 </i>
    <i name="e_wo_entrp">   -129.93374376 </i>
    <i name="e_0_energy">   -129.93509806 </i>
   </energy>
  </scstep>
  <scstep>
   <time name="total">   30.46   30.79</time>
   <energy>
    <i name="e_fr_energy">   -129.93652920 </i>
    <i name="e_wo_entrp">   -129.93381342 </i>
    <i name="e_0_energy">   -129.93517131 </i>
   </energy>
  </scstep>
  <scstep>
   <time name="total">   29.72   30.11</time>
   <energy>
    <i name="e_fr_energy">   -129.93656620 </i>
    <i name="e_wo_entrp">   -129.93385397 </i>
    <i name="e_0_energy">   -129.93521009 </i>
   </energy>
  </scstep>
  <scstep>
   <time name="total">   29.95   30.28</time>
   <energy>
    <i name="e_fr_energy">   -129.93658221 </i>
    <i name="e_wo_entrp">   -129.93386688 </i>
    <i name="e_0_energy">   -129.93522454 </i>
   </energy>
  </scstep>
  <scstep>
   <time name="total">   30.35   30.58</time>
   <energy>
    <i name="e_fr_energy">   -129.93660206 </i>
    <i name="e_wo_entrp">   -129.93388855 </i>
    <i name="e_0_energy">   -129.93524531 </i>
   </energy>
  </scstep>
  <scstep>
   <time name="total">   28.28   28.62</time>
   <energy>
    <i name="e_fr_energy">   -129.93661187 </i>
    <i name="e_wo_entrp">   -129.93389649 </i>
    <i name="e_0_energy">   -129.93525418 </i>
   </energy>
  </scstep>
  <scstep>
   <time name="total">   28.65   29.03</time>
   <energy>
    <i name="e_fr_energy">   -129.93661507 </i>
    <i name="e_wo_entrp">   -129.93390201 </i>
    <i name="e_0_energy">   -129.93525854 </i>
   </energy>
  </scstep>
  <scstep>
   <time name="total">   30.60   30.85</time>
   <energy>
    <i name="e_fr_energy">   -129.93661987 </i>
    <i name="e_wo_entrp">   -129.93390812 </i>
    <i name="e_0_energy">   -129.93526399 </i>
   </energy>
  </scstep>
  <scstep>
   <time name="total">   31.08   31.38</time>
   <energy>
    <i name="e_fr_energy">   -129.93662308 </i>
    <i name="e_wo_entrp">   -129.93391326 </i>
    <i name="e_0_energy">   -129.93526817 </i>
   </energy>
  </scstep>
  <scstep>
   <time name="total">   31.31   31.83</time>
   <energy>
    <i name="e_fr_energy">   -129.93662488 </i>
    <i name="e_wo_entrp">   -129.93391460 </i>
    <i name="e_0_energy">   -129.93526974 </i>
   </energy>
  </scstep>
  <scstep>
   <time name="total">   31.67   31.93</time>
   <energy>
    <i name="e_fr_energy">   -129.93662531 </i>
    <i name="e_wo_entrp">   -129.93391592 </i>
    <i name="e_0_energy">   -129.93527061 </i>
   </energy>
  </scstep>
  <scstep>
   <time name="total">   31.19   31.46</time>
   <energy>
    <i name="e_fr_energy">   -129.93662568 </i>
    <i name="e_wo_entrp">   -129.93391575 </i>
    <i name="e_0_energy">   -129.93527072 </i>
   </energy>
  </scstep>
  <scstep>
   <time name="total">   30.24   30.46</time>
   <energy>
    <i name="e_fr_energy">   -129.93662651 </i>
    <i name="e_wo_entrp">   -129.93391700 </i>
    <i name="e_0_energy">   -129.93527175 </i>
   </energy>
  </scstep>
  <scstep>
   <time name="total">   32.10   32.40</time>
   <energy>
    <i name="e_fr_energy">   -129.93662676 </i>
    <i name="e_wo_entrp">   -129.93391663 </i>
    <i name="e_0_energy">   -129.93527170 </i>
   </energy>
  </scstep>
  <scstep>
   <time name="total">   31.83   32.15</time>
   <energy>
    <i name="e_fr_energy">   -129.93662696 </i>
    <i name="e_wo_entrp">   -129.93391707 </i>
    <i name="e_0_energy">   -129.93527202 </i>
   </energy>
  </scstep>
  <scstep>
   <time name="total">   30.96   31.38</time>
   <energy>
    <i name="e_fr_energy">   -129.93662704 </i>
    <i name="e_wo_entrp">   -129.93391724 </i>
    <i name="e_0_energy">   -129.93527214 </i>
   </energy>
  </scstep>
  <scstep>
   <time name="total">   30.52   30.85</time>
   <energy>
    <i name="e_fr_energy">   -129.93662707 </i>
    <i name="e_wo_entrp">   -129.93391706 </i>
    <i name="e_0_energy">   -129.93527206 </i>
   </energy>
  </scstep>
  <scstep>
   <time name="total">   27.92   28.14</time>
   <energy>
    <i name="e_fr_energy">   -129.93662708 </i>
    <i name="e_wo_entrp">   -129.93391713 </i>
    <i name="e_0_energy">   -129.93527211 </i>
   </energy>
  </scstep>
  <scstep>
   <time name="total">   30.11   30.35</time>
   <energy>
    <i name="e_fr_energy">   -129.93662713 </i>
    <i name="e_wo_entrp">   -129.93391720 </i>
    <i name="e_0_energy">   -129.93527217 </i>
   </energy>
  </scstep>
  <scstep>
   <time name="total">   31.00   31.22</time>
   <energy>
    <i name="e_fr_energy">   -129.93662713 </i>
    <i name="e_wo_entrp">   -129.93391712 </i>
    <i name="e_0_energy">   -129.93527212 </i>
   </energy>
  </scstep>
  <scstep>
   <time name="total">   30.20   30.54</time>
   <energy>
    <i name="e_fr_energy">   -129.93662714 </i>
    <i name="e_wo_entrp">   -129.93391716 </i>
    <i name="e_0_energy">   -129.93527215 </i>
   </energy>
  </scstep>
  <scstep>
   <time name="total">   30.07   30.58</time>
   <energy>
    <i name="e_fr_energy">   -129.93662714 </i>
    <i name="e_wo_entrp">   -129.93391719 </i>
    <i name="e_0_energy">   -129.93527217 </i>
   </energy>
  </scstep>
  <scstep>
   <time name="total">   29.63   30.08</time>
   <energy>
    <i name="e_fr_energy">   -129.93662715 </i>
    <i name="e_wo_entrp">   -129.93391709 </i>
    <i name="e_0_energy">   -129.93527212 </i>
   </energy>
  </scstep>
  <scstep>
   <time name="total">   29.56   30.01</time>
   <energy>
    <i name="e_fr_energy">   -129.93662716 </i>
    <i name="e_wo_entrp">   -129.93391718 </i>
    <i name="e_0_energy">   -129.93527217 </i>
   </energy>
  </scstep>
  <scstep>
   <time name="total">   30.74   30.97</time>
   <energy>
    <i name="e_fr_energy">   -129.93662716 </i>
    <i name="e_wo_entrp">   -129.93391723 </i>
    <i name="e_0_energy">   -129.93527219 </i>
   </energy>
  </scstep>
  <scstep>
   <time name="total">   28.56   28.77</time>
   <energy>
    <i name="e_fr_energy">   -129.93662716 </i>
    <i name="e_wo_entrp">   -129.93391712 </i>
    <i name="e_0_energy">   -129.93527214 </i>
   </energy>
  </scstep>
  <scstep>
   <time name="total">   30.81   31.57</time>
   <energy>
    <i name="e_fr_energy">   -129.93662717 </i>
    <i name="e_wo_entrp">   -129.93391717 </i>
    <i name="e_0_energy">   -129.93527217 </i>
   </energy>
  </scstep>
  <scstep>
   <time name="total">   35.05   35.35</time>
   <energy>
    <i name="alphaZ">    236.73010808 </i>
    <i name="ewald">  -5328.47869885 </i>
    <i name="hartreedc">  -2140.76886237 </i>
    <i name="XCdc">    325.84991207 </i>
    <i name="pawpsdc">   7722.48532317 </i>
    <i name="pawaedc">  -7696.20486971 </i>
    <i name="eentropy">     -0.00271003 </i>
    <i name="bandstr">  -1189.48843476 </i>
    <i name="atom">   7939.94160518 </i>
    <i name="e_fr_energy">   -129.93662717 </i>
    <i name="e_wo_entrp">   -129.93391715 </i>
    <i name="e_0_energy">   -129.93527216 </i>
   </energy>
  </scstep>
  <structure>
   <crystal>
    <varray name="basis" >
     <v>       5.73844743       0.00000000      -3.23463664 </v>
     <v>      -1.95878737       5.39378632      -3.23463664 </v>
     <v>       0.00000000       0.00000000       6.58731000 </v>
    </varray>
    <i name="volume">    203.89015060 </i>
    <varray name="rec_basis" >
     <v>       0.17426316       0.06328476       0.00000000 </v>
     <v>       0.00000000       0.18539852       0.00000000 </v>
     <v>       0.08557029       0.12211359       0.15180704 </v>
    </varray>
   </crystal>
   <varray name="positions" >
    <v>       0.50000000       0.00000000       0.00000000 </v>
    <v>       0.00000000       0.00000000       0.50000000 </v>
    <v>       0.00000000       0.50000000       0.00000000 </v>
    <v>       0.50000000       0.50000000       0.50000000 </v>
    <v>       0.25000000       0.75000000       0.50000000 </v>
    <v>       0.50000000       0.50000000       0.00000000 </v>
    <v>       0.75000000       0.25000000       0.50000000 </v>
    <v>       0.00000000       0.00000000       0.00000000 </v>
    <v>       0.25000000       0.25000000       0.00000000 </v>
    <v>       0.75000000       0.75000000       0.00000000 </v>
   </varray>
  </structure>
  <varray name="forces" >
   <v>       0.00000000       0.00000000       0.00000000 </v>
   <v>       0.00000000       0.00000000       0.00000000 </v>
   <v>       0.00000000       0.00000000       0.00000000 </v>
   <v>       0.00000000       0.00000000       0.00000000 </v>
   <v>       0.00000000       0.00000000       0.00000000 </v>
   <v>       0.00000000       0.00000000       0.00000000 </v>
   <v>       0.00000000       0.00000000       0.00000000 </v>
   <v>       0.00000000       0.00000000       0.00000000 </v>
   <v>       0.00000000       0.00000000       0.00000000 </v>
   <v>       0.00000000       0.00000000       0.00000000 </v>
  </varray>
  <varray name="stress" >
   <v>       0.00000000       0.00000000       0.00000000 </v>
   <v>       0.00000000       0.00000000       0.00000000 </v>
   <v>       0.00000000       0.00000000       0.00000000 </v>
  </varray>
  <energy>
   <i name="e_fr_energy">   -129.93662717 </i>
   <i name="e_wo_entrp">   -129.93391715 </i>
   <i name="e_0_energy">   -129.93527216 </i>
  </energy>
  <time name="totalsc"> 1608.06 1628.31</time>
  <eigenvalues>
   <array>
    <dimension dim="1">band</dimension>
    <dimension dim="2">kpoint</dimension>
    <dimension dim="3">spin</dimension>
    <field>eigene</field>
    <field>occ</field>
    <set>
     <set comment="spin 1">
      <set comment="kpoint 1">
       <r>  -58.6819    1.0000 </r>
       <r>  -58.6819    1.0000 </r>
       <r>  -58.5524    1.0000 </r>
       <r>  -58.5519    1.0000 </r>
       <r>  -32.0070    1.0000 </r>
       <r>  -32.0069    1.0000 </r>
       <r>  -32.0051    1.0000 </r>
       <r>  -32.0050    1.0000 </r>
       <r>  -32.0002    1.0000 </r>
       <r>  -31.9996    1.0000 </r>
       <r>  -31.9749    1.0000 </r>
       <r>  -31.9749    1.0000 </r>
       <r>  -31.9713    1.0000 </r>
       <r>  -31.9713    1.0000 </r>
       <r>  -31.9238    1.0000 </r>
       <r>  -31.9104    1.0000 </r>
       <r>   -6.4981    1.0000 </r>
       <r>   -4.0773    1.0000 </r>
       <r>   -2.7120    1.0000 </r>
       <r>   -2.7120    1.0000 </r>
       <r>   -1.9579    1.0000 </r>
       <r>    0.2840    1.0000 </r>
       <r>    0.2861    1.0000 </r>
       <r>    0.6314    1.0000 </r>
       <r>    0.6314    1.0000 </r>
       <r>    0.7761    1.0000 </r>
       <r>    1.5328    1.0000 </r>
       <r>    2.1913    1.0000 </r>
       <r>    2.1913    1.0000 </r>
       <r>    2.5518    1.0000 </r>
       <r>    3.1325    1.0000 </r>
       <r>    3.2918    1.0000 </r>
       <r>    3.2918    1.0000 </r>
       <r>    3.4515    1.0000 </r>
       <r>    3.7324    1.0000 </r>
       <r>    4.3196    1.0000 </r>
       <r>    4.5747    0.0001 </r>
       <r>    4.5747    0.0001 </r>
       <r>    4.7250    0.0000 </r>
       <r>    4.7866    0.0000 </r>
       <r>    4.8123    0.0000 </r>
       <r>    4.8124    0.0000 </r>
       <r>    4.9364    0.0000 </r>
       <r>    5.5457    0.0000 </r>
       <r>    6.0304    0.0000 </r>
       <r>    6.0334    0.0000 </r>
       <r>    6.1502    0.0000 </r>
       <r>    6.5328    0.0000 </r>
      </set>
      <set comment="kpoint 2">
       <r>  -58.6819    1.0000 </r>
       <r>  -58.6819    1.0000 </r>
       <r>  -58.5524    1.0000 </r>
       <r>  -58.5519    1.0000 </r>
       <r>  -32.0069    1.0000 </r>
       <r>  -32.0064    1.0000 </r>
       <r>  -32.0055    1.0000 </r>
       <r>  -32.0053    1.0000 </r>
       <r>  -32.0005    1.0000 </r>
       <r>  -31.9996    1.0000 </r>
       <r>  -31.9746    1.0000 </r>
       <r>  -31.9743    1.0000 </r>
       <r>  -31.9719    1.0000 </r>
       <r>  -31.9714    1.0000 </r>
       <r>  -31.9229    1.0000 </r>
       <r>  -31.9112    1.0000 </r>
       <r>   -6.4111    1.0000 </r>
       <r>   -4.2703    1.0000 </r>
       <r>   -2.6865    1.0000 </r>
       <r>   -2.6414    1.0000 </r>
       <r>   -2.0138    1.0000 </r>
       <r>   -0.3465    1.0000 </r>
       <r>    0.3654    1.0000 </r>
       <r>    0.7254    1.0000 </r>
       <r>    0.9805    1.0000 </r>
       <r>    1.1648    1.0000 </r>
       <r>    1.5667    1.0000 </r>
       <r>    2.2169    1.0000 </r>
       <r>    2.2199    1.0000 </r>
       <r>    2.2820    1.0000 </r>
       <r>    3.2578    1.0000 </r>
       <r>    3.3158    1.0000 </r>
       <r>    3.4185    1.0000 </r>
       <r>    3.4801    1.0000 </r>
       <r>    3.7218    1.0000 </r>
       <r>    4.2165    1.0000 </r>
       <r>    4.4372    1.0000 </r>
       <r>    4.5239    0.4368 </r>
       <r>    4.7018    0.0000 </r>
       <r>    4.7449    0.0000 </r>
       <r>    4.8062    0.0000 </r>
       <r>    4.8712    0.0000 </r>
       <r>    4.9531    0.0000 </r>
       <r>    5.3899    0.0000 </r>
       <r>    5.6519    0.0000 </r>
       <r>    5.8257    0.0000 </r>
       <r>    5.9216    0.0000 </r>
       <r>    6.1879    0.0000 </r>
      </set>
      <set comment="kpoint 3">
       <r>  -58.6819    1.0000 </r>
       <r>  -58.6819    1.0000 </r>
       <r>  -58.5523    1.0000 </r>
       <r>  -58.5520    1.0000 </r>
       <r>  -32.0069    1.0000 </r>
       <r>  -32.0060    1.0000 </r>
       <r>  -32.0057    1.0000 </r>
       <r>  -32.0055    1.0000 </r>
       <r>  -32.0008    1.0000 </r>
       <r>  -31.9997    1.0000 </r>
       <r>  -31.9739    1.0000 </r>
       <r>  -31.9734    1.0000 </r>
       <r>  -31.9731    1.0000 </r>
       <r>  -31.9717    1.0000 </r>
       <r>  -31.9208    1.0000 </r>
       <r>  -31.9130    1.0000 </r>
       <r>   -6.1575    1.0000 </r>
       <r>   -4.7250    1.0000 </r>
       <r>   -2.6104    1.0000 </r>
       <r>   -2.4556    1.0000 </r>
       <r>   -2.1544    1.0000 </r>
       <r>   -1.0786    1.0000 </r>
       <r>    0.5814    1.0000 </r>
       <r>    0.9728    1.0000 </r>
       <r>    1.5104    1.0000 </r>
       <r>    1.5264    1.0000 </r>
       <r>    1.6157    1.0000 </r>
       <r>    1.9673    1.0000 </r>
       <r>    2.2775    1.0000 </r>
       <r>    2.3035    1.0000 </r>
       <r>    3.0860    1.0000 </r>
       <r>    3.3210    1.0000 </r>
       <r>    3.5657    1.0000 </r>
       <r>    3.7083    1.0000 </r>
       <r>    3.7335    1.0000 </r>
       <r>    4.0982    1.0000 </r>
       <r>    4.1739    1.0000 </r>
       <r>    4.4570    1.0000 </r>
       <r>    4.6083    0.0000 </r>
       <r>    4.6586    0.0000 </r>
       <r>    4.7675    0.0000 </r>
       <r>    4.9818    0.0000 </r>
       <r>    5.0213    0.0000 </r>
       <r>    5.3385    0.0000 </r>
       <r>    5.3713    0.0000 </r>
       <r>    5.6001    0.0000 </r>
       <r>    5.7851    0.0000 </r>
       <r>    5.9115    0.0000 </r>
      </set>
      <set comment="kpoint 4">
       <r>  -58.6819    1.0000 </r>
       <r>  -58.6819    1.0000 </r>
       <r>  -58.5522    1.0000 </r>
       <r>  -58.5521    1.0000 </r>
       <r>  -32.0067    1.0000 </r>
       <r>  -32.0063    1.0000 </r>
       <r>  -32.0058    1.0000 </r>
       <r>  -32.0053    1.0000 </r>
       <r>  -32.0008    1.0000 </r>
       <r>  -32.0002    1.0000 </r>
       <r>  -31.9735    1.0000 </r>
       <r>  -31.9732    1.0000 </r>
       <r>  -31.9730    1.0000 </r>
       <r>  -31.9722    1.0000 </r>
       <r>  -31.9181    1.0000 </r>
       <r>  -31.9155    1.0000 </r>
       <r>   -5.7600    1.0000 </r>
       <r>   -5.2599    1.0000 </r>
       <r>   -2.4867    1.0000 </r>
       <r>   -2.3264    1.0000 </r>
       <r>   -2.1490    1.0000 </r>
       <r>   -1.6918    1.0000 </r>
       <r>    0.8929    1.0000 </r>
       <r>    1.2618    1.0000 </r>
       <r>    1.2864    1.0000 </r>
       <r>    1.5392    1.0000 </r>
       <r>    2.1071    1.0000 </r>
       <r>    2.1417    1.0000 </r>
       <r>    2.3332    1.0000 </r>
       <r>    2.4906    1.0000 </r>
       <r>    2.7819    1.0000 </r>
       <r>    2.8985    1.0000 </r>
       <r>    3.7092    1.0000 </r>
       <r>    3.7194    1.0000 </r>
       <r>    3.9958    1.0000 </r>
       <r>    4.0441    1.0000 </r>
       <r>    4.0696    1.0000 </r>
       <r>    4.2776    1.0000 </r>
       <r>    4.6008    0.0000 </r>
       <r>    4.6190    0.0000 </r>
       <r>    4.6208    0.0000 </r>
       <r>    4.8402    0.0000 </r>
       <r>    5.0973    0.0000 </r>
       <r>    5.2490    0.0000 </r>
       <r>    5.3735    0.0000 </r>
       <r>    5.6129    0.0000 </r>
       <r>    5.6321    0.0000 </r>
       <r>    5.7041    0.0000 </r>
      </set>
      <set comment="kpoint 5">
       <r>  -58.6819    1.0000 </r>
       <r>  -58.6819    1.0000 </r>
       <r>  -58.5523    1.0000 </r>
       <r>  -58.5520    1.0000 </r>
       <r>  -32.0065    1.0000 </r>
       <r>  -32.0062    1.0000 </r>
       <r>  -32.0061    1.0000 </r>
       <r>  -32.0057    1.0000 </r>
       <r>  -32.0004    1.0000 </r>
       <r>  -31.9997    1.0000 </r>
       <r>  -31.9739    1.0000 </r>
       <r>  -31.9737    1.0000 </r>
       <r>  -31.9722    1.0000 </r>
       <r>  -31.9720    1.0000 </r>
       <r>  -31.9210    1.0000 </r>
       <r>  -31.9130    1.0000 </r>
       <r>   -6.2702    1.0000 </r>
       <r>   -4.5092    1.0000 </r>
       <r>   -2.9326    1.0000 </r>
       <r>   -2.3244    1.0000 </r>
       <r>   -2.1221    1.0000 </r>
       <r>   -0.3929    1.0000 </r>
       <r>    0.4037    1.0000 </r>
       <r>    0.6817    1.0000 </r>
       <r>    1.0590    1.0000 </r>
       <r>    1.4042    1.0000 </r>
       <r>    1.6795    1.0000 </r>
       <r>    1.9162    1.0000 </r>
       <r>    2.1976    1.0000 </r>
       <r>    2.2569    1.0000 </r>
       <r>    3.2825    1.0000 </r>
       <r>    3.5295    1.0000 </r>
       <r>    3.5743    1.0000 </r>
       <r>    3.6032    1.0000 </r>
       <r>    3.6806    1.0000 </r>
       <r>    4.1349    1.0000 </r>
       <r>    4.2013    1.0000 </r>
       <r>    4.6047    0.0000 </r>
       <r>    4.6409    0.0000 </r>
       <r>    4.6733    0.0000 </r>
       <r>    4.7901    0.0000 </r>
       <r>    4.9087    0.0000 </r>
       <r>    4.9519    0.0000 </r>
       <r>    5.3334    0.0000 </r>
       <r>    5.4637    0.0000 </r>
       <r>    5.8207    0.0000 </r>
       <r>    6.1159    0.0000 </r>
       <r>    6.1299    0.0000 </r>
      </set>
      <set comment="kpoint 6">
       <r>  -58.6819    1.0000 </r>
       <r>  -58.6819    1.0000 </r>
       <r>  -58.5522    1.0000 </r>
       <r>  -58.5521    1.0000 </r>
       <r>  -32.0068    1.0000 </r>
       <r>  -32.0064    1.0000 </r>
       <r>  -32.0059    1.0000 </r>
       <r>  -32.0053    1.0000 </r>
       <r>  -32.0003    1.0000 </r>
       <r>  -32.0001    1.0000 </r>
       <r>  -31.9733    1.0000 </r>
       <r>  -31.9731    1.0000 </r>
       <r>  -31.9730    1.0000 </r>
       <r>  -31.9724    1.0000 </r>
       <r>  -31.9182    1.0000 </r>
       <r>  -31.9155    1.0000 </r>
       <r>   -5.9730    1.0000 </r>
       <r>   -4.9228    1.0000 </r>
       <r>   -3.0222    1.0000 </r>
       <r>   -2.3899    1.0000 </r>
       <r>   -2.0007    1.0000 </r>
       <r>   -0.7703    1.0000 </r>
       <r>    0.5164    1.0000 </r>
       <r>    1.0367    1.0000 </r>
       <r>    1.2098    1.0000 </r>
       <r>    1.2728    1.0000 </r>
       <r>    1.9809    1.0000 </r>
       <r>    1.9945    1.0000 </r>
       <r>    2.2026    1.0000 </r>
       <r>    2.3605    1.0000 </r>
       <r>    3.0483    1.0000 </r>
       <r>    3.4813    1.0000 </r>
       <r>    3.6621    1.0000 </r>
       <r>    3.7579    1.0000 </r>
       <r>    3.8572    1.0000 </r>
       <r>    3.9353    1.0000 </r>
       <r>    4.1315    1.0000 </r>
       <r>    4.4167    1.0000 </r>
       <r>    4.5842    0.0000 </r>
       <r>    4.6184    0.0000 </r>
       <r>    4.6672    0.0000 </r>
       <r>    4.8274    0.0000 </r>
       <r>    5.0100    0.0000 </r>
       <r>    5.3733    0.0000 </r>
       <r>    5.4383    0.0000 </r>
       <r>    5.8367    0.0000 </r>
       <r>    5.9396    0.0000 </r>
       <r>    6.1350    0.0000 </r>
      </set>
      <set comment="kpoint 7">
       <r>  -58.6819    1.0000 </r>
       <r>  -58.6819    1.0000 </r>
       <r>  -58.5522    1.0000 </r>
       <r>  -58.5521    1.0000 </r>
       <r>  -32.0070    1.0000 </r>
       <r>  -32.0064    1.0000 </r>
       <r>  -32.0055    1.0000 </r>
       <r>  -32.0051    1.0000 </r>
       <r>  -32.0010    1.0000 </r>
       <r>  -32.0001    1.0000 </r>
       <r>  -31.9735    1.0000 </r>
       <r>  -31.9731    1.0000 </r>
       <r>  -31.9729    1.0000 </r>
       <r>  -31.9725    1.0000 </r>
       <r>  -31.9180    1.0000 </r>
       <r>  -31.9155    1.0000 </r>
       <r>   -5.5494    1.0000 </r>
       <r>   -5.4044    1.0000 </r>
       <r>   -2.9265    1.0000 </r>
       <r>   -2.6836    1.0000 </r>
       <r>   -1.6655    1.0000 </r>
       <r>   -1.2390    1.0000 </r>
       <r>    0.6745    1.0000 </r>
       <r>    1.0527    1.0000 </r>
       <r>    1.3104    1.0000 </r>
       <r>    1.4466    1.0000 </r>
       <r>    2.1716    1.0000 </r>
       <r>    2.1770    1.0000 </r>
       <r>    2.3427    1.0000 </r>
       <r>    2.6355    1.0000 </r>
       <r>    2.7185    1.0000 </r>
       <r>    3.1500    1.0000 </r>
       <r>    3.6655    1.0000 </r>
       <r>    3.8115    1.0000 </r>
       <r>    3.8285    1.0000 </r>
       <r>    3.8493    1.0000 </r>
       <r>    4.1227    1.0000 </r>
       <r>    4.1468    1.0000 </r>
       <r>    4.5362    0.1528 </r>
       <r>    4.6206    0.0000 </r>
       <r>    4.7368    0.0000 </r>
       <r>    4.7841    0.0000 </r>
       <r>    5.1163    0.0000 </r>
       <r>    5.2207    0.0000 </r>
       <r>    5.6250    0.0000 </r>
       <r>    5.6435    0.0000 </r>
       <r>    5.7719    0.0000 </r>
       <r>    5.8881    0.0000 </r>
      </set>
      <set comment="kpoint 8">
       <r>  -58.6819    1.0000 </r>
       <r>  -58.6819    1.0000 </r>
       <r>  -58.5523    1.0000 </r>
       <r>  -58.5520    1.0000 </r>
       <r>  -32.0070    1.0000 </r>
       <r>  -32.0065    1.0000 </r>
       <r>  -32.0051    1.0000 </r>
       <r>  -32.0050    1.0000 </r>
       <r>  -32.0016    1.0000 </r>
       <r>  -31.9995    1.0000 </r>
       <r>  -31.9739    1.0000 </r>
       <r>  -31.9736    1.0000 </r>
       <r>  -31.9728    1.0000 </r>
       <r>  -31.9721    1.0000 </r>
       <r>  -31.9203    1.0000 </r>
       <r>  -31.9131    1.0000 </r>
       <r>   -5.8495    1.0000 </r>
       <r>   -5.0521    1.0000 </r>
       <r>   -2.9172    1.0000 </r>
       <r>   -2.6974    1.0000 </r>
       <r>   -1.6348    1.0000 </r>
       <r>   -1.2715    1.0000 </r>
       <r>    0.3801    1.0000 </r>
       <r>    1.0876    1.0000 </r>
       <r>    1.3340    1.0000 </r>
       <r>    1.7996    1.0000 </r>
       <r>    2.1623    1.0000 </r>
       <r>    2.2452    1.0000 </r>
       <r>    2.4529    1.0000 </r>
       <r>    2.6688    1.0000 </r>
       <r>    2.6724    1.0000 </r>
       <r>    3.0604    1.0000 </r>
       <r>    3.5472    1.0000 </r>
       <r>    3.6018    1.0000 </r>
       <r>    3.7751    1.0000 </r>
       <r>    3.7906    1.0000 </r>
       <r>    3.9175    1.0000 </r>
       <r>    4.4156    1.0000 </r>
       <r>    4.6186    0.0000 </r>
       <r>    4.6659    0.0000 </r>
       <r>    4.6809    0.0000 </r>
       <r>    4.8403    0.0000 </r>
       <r>    5.1308    0.0000 </r>
       <r>    5.2969    0.0000 </r>
       <r>    5.4700    0.0000 </r>
       <r>    5.6908    0.0000 </r>
       <r>    5.8093    0.0000 </r>
       <r>    5.9297    0.0000 </r>
      </set>
      <set comment="kpoint 9">
       <r>  -58.6819    1.0000 </r>
       <r>  -58.6819    1.0000 </r>
       <r>  -58.5524    1.0000 </r>
       <r>  -58.5519    1.0000 </r>
       <r>  -32.0069    1.0000 </r>
       <r>  -32.0062    1.0000 </r>
       <r>  -32.0055    1.0000 </r>
       <r>  -32.0049    1.0000 </r>
       <r>  -32.0016    1.0000 </r>
       <r>  -31.9993    1.0000 </r>
       <r>  -31.9742    1.0000 </r>
       <r>  -31.9733    1.0000 </r>
       <r>  -31.9732    1.0000 </r>
       <r>  -31.9719    1.0000 </r>
       <r>  -31.9222    1.0000 </r>
       <r>  -31.9113    1.0000 </r>
       <r>   -6.1891    1.0000 </r>
       <r>   -4.5751    1.0000 </r>
       <r>   -3.0303    1.0000 </r>
       <r>   -2.4060    1.0000 </r>
       <r>   -1.9767    1.0000 </r>
       <r>   -0.8089    1.0000 </r>
       <r>    0.1825    1.0000 </r>
       <r>    0.7237    1.0000 </r>
       <r>    1.3133    1.0000 </r>
       <r>    1.9532    1.0000 </r>
       <r>    2.0442    1.0000 </r>
       <r>    2.2538    1.0000 </r>
       <r>    2.2613    1.0000 </r>
       <r>    2.4202    1.0000 </r>
       <r>    2.9592    1.0000 </r>
       <r>    3.3673    1.0000 </r>
       <r>    3.4588    1.0000 </r>
       <r>    3.5361    1.0000 </r>
       <r>    3.6587    1.0000 </r>
       <r>    3.7556    1.0000 </r>
       <r>    3.9533    1.0000 </r>
       <r>    4.5398    0.0997 </r>
       <r>    4.6792    0.0000 </r>
       <r>    4.7143    0.0000 </r>
       <r>    4.7323    0.0000 </r>
       <r>    4.9816    0.0000 </r>
       <r>    5.0825    0.0000 </r>
       <r>    5.2452    0.0000 </r>
       <r>    5.3658    0.0000 </r>
       <r>    5.7957    0.0000 </r>
       <r>    5.9363    0.0000 </r>
       <r>    6.1201    0.0000 </r>
      </set>
      <set comment="kpoint 10">
       <r>  -58.6819    1.0000 </r>
       <r>  -58.6819    1.0000 </r>
       <r>  -58.5524    1.0000 </r>
       <r>  -58.5519    1.0000 </r>
       <r>  -32.0067    1.0000 </r>
       <r>  -32.0065    1.0000 </r>
       <r>  -32.0056    1.0000 </r>
       <r>  -32.0049    1.0000 </r>
       <r>  -32.0010    1.0000 </r>
       <r>  -31.9994    1.0000 </r>
       <r>  -31.9746    1.0000 </r>
       <r>  -31.9742    1.0000 </r>
       <r>  -31.9720    1.0000 </r>
       <r>  -31.9717    1.0000 </r>
       <r>  -31.9233    1.0000 </r>
       <r>  -31.9106    1.0000 </r>
       <r>   -6.3830    1.0000 </r>
       <r>   -4.2772    1.0000 </r>
       <r>   -2.9475    1.0000 </r>
       <r>   -2.3165    1.0000 </r>
       <r>   -2.1391    1.0000 </r>
       <r>   -0.4218    1.0000 </r>
       <r>    0.1763    1.0000 </r>
       <r>    0.5569    1.0000 </r>
       <r>    1.1067    1.0000 </r>
       <r>    1.5928    1.0000 </r>
       <r>    1.6887    1.0000 </r>
       <r>    2.2292    1.0000 </r>
       <r>    2.2975    1.0000 </r>
       <r>    2.4892    1.0000 </r>
       <r>    3.1401    1.0000 </r>
       <r>    3.2470    1.0000 </r>
       <r>    3.3364    1.0000 </r>
       <r>    3.4787    1.0000 </r>
       <r>    3.7504    1.0000 </r>
       <r>    4.0955    1.0000 </r>
       <r>    4.1527    1.0000 </r>
       <r>    4.5762    0.0001 </r>
       <r>    4.7107    0.0000 </r>
       <r>    4.7566    0.0000 </r>
       <r>    4.7918    0.0000 </r>
       <r>    4.9469    0.0000 </r>
       <r>    5.0201    0.0000 </r>
       <r>    5.3735    0.0000 </r>
       <r>    5.6353    0.0000 </r>
       <r>    5.9818    0.0000 </r>
       <r>    6.1286    0.0000 </r>
       <r>    6.6777    0.0000 </r>
      </set>
      <set comment="kpoint 11">
       <r>  -58.6819    1.0000 </r>
       <r>  -58.6819    1.0000 </r>
       <r>  -58.5522    1.0000 </r>
       <r>  -58.5521    1.0000 </r>
       <r>  -32.0070    1.0000 </r>
       <r>  -32.0066    1.0000 </r>
       <r>  -32.0058    1.0000 </r>
       <r>  -32.0047    1.0000 </r>
       <r>  -32.0011    1.0000 </r>
       <r>  -31.9999    1.0000 </r>
       <r>  -31.9731    1.0000 </r>
       <r>  -31.9731    1.0000 </r>
       <r>  -31.9731    1.0000 </r>
       <r>  -31.9728    1.0000 </r>
       <r>  -31.9179    1.0000 </r>
       <r>  -31.9155    1.0000 </r>
       <r>   -5.6550    1.0000 </r>
       <r>   -5.1763    1.0000 </r>
       <r>   -3.3250    1.0000 </r>
       <r>   -2.7931    1.0000 </r>
       <r>   -1.4851    1.0000 </r>
       <r>   -0.2525    1.0000 </r>
       <r>    0.0060    1.0000 </r>
       <r>    0.7921    1.0000 </r>
       <r>    1.2027    1.0000 </r>
       <r>    1.4346    1.0000 </r>
       <r>    2.0047    1.0000 </r>
       <r>    2.1237    1.0000 </r>
       <r>    2.3288    1.0000 </r>
       <r>    2.6102    1.0000 </r>
       <r>    2.8937    1.0000 </r>
       <r>    3.6235    1.0000 </r>
       <r>    3.6561    1.0000 </r>
       <r>    3.6603    1.0000 </r>
       <r>    3.7657    1.0000 </r>
       <r>    3.8738    1.0000 </r>
       <r>    4.0434    1.0000 </r>
       <r>    4.2133    1.0000 </r>
       <r>    4.5301    0.2758 </r>
       <r>    4.5612    0.0026 </r>
       <r>    4.7429    0.0000 </r>
       <r>    4.8576    0.0000 </r>
       <r>    5.0702    0.0000 </r>
       <r>    5.2846    0.0000 </r>
       <r>    5.6263    0.0000 </r>
       <r>    5.7511    0.0000 </r>
       <r>    5.9794    0.0000 </r>
       <r>    6.3423    0.0000 </r>
      </set>
      <set comment="kpoint 12">
       <r>  -58.6819    1.0000 </r>
       <r>  -58.6819    1.0000 </r>
       <r>  -58.5523    1.0000 </r>
       <r>  -58.5520    1.0000 </r>
       <r>  -32.0070    1.0000 </r>
       <r>  -32.0066    1.0000 </r>
       <r>  -32.0051    1.0000 </r>
       <r>  -32.0044    1.0000 </r>
       <r>  -32.0023    1.0000 </r>
       <r>  -31.9994    1.0000 </r>
       <r>  -31.9740    1.0000 </r>
       <r>  -31.9734    1.0000 </r>
       <r>  -31.9729    1.0000 </r>
       <r>  -31.9724    1.0000 </r>
       <r>  -31.9199    1.0000 </r>
       <r>  -31.9131    1.0000 </r>
       <r>   -5.4958    1.0000 </r>
       <r>   -5.2458    1.0000 </r>
       <r>   -3.3675    1.0000 </r>
       <r>   -3.1455    1.0000 </r>
       <r>   -1.0054    1.0000 </r>
       <r>   -0.5846    1.0000 </r>
       <r>    0.1737    1.0000 </r>
       <r>    0.7449    1.0000 </r>
       <r>    1.1459    1.0000 </r>
       <r>    1.6082    1.0000 </r>
       <r>    1.9441    1.0000 </r>
       <r>    2.0873    1.0000 </r>
       <r>    2.4654    1.0000 </r>
       <r>    2.8079    1.0000 </r>
       <r>    3.0480    1.0000 </r>
       <r>    3.0498    1.0000 </r>
       <r>    3.5421    1.0000 </r>
       <r>    3.6703    1.0000 </r>
       <r>    3.7988    1.0000 </r>
       <r>    3.8644    1.0000 </r>
       <r>    3.9644    1.0000 </r>
       <r>    4.3008    1.0000 </r>
       <r>    4.5515    0.0174 </r>
       <r>    4.6152    0.0000 </r>
       <r>    4.8410    0.0000 </r>
       <r>    4.8529    0.0000 </r>
       <r>    5.1579    0.0000 </r>
       <r>    5.2245    0.0000 </r>
       <r>    5.6145    0.0000 </r>
       <r>    5.6517    0.0000 </r>
       <r>    6.0850    0.0000 </r>
       <r>    6.2620    0.0000 </r>
      </set>
      <set comment="kpoint 13">
       <r>  -58.6819    1.0000 </r>
       <r>  -58.6819    1.0000 </r>
       <r>  -58.5524    1.0000 </r>
       <r>  -58.5519    1.0000 </r>
       <r>  -32.0073    1.0000 </r>
       <r>  -32.0063    1.0000 </r>
       <r>  -32.0047    1.0000 </r>
       <r>  -32.0044    1.0000 </r>
       <r>  -32.0028    1.0000 </r>
       <r>  -31.9989    1.0000 </r>
       <r>  -31.9744    1.0000 </r>
       <r>  -31.9737    1.0000 </r>
       <r>  -31.9729    1.0000 </r>
       <r>  -31.9723    1.0000 </r>
       <r>  -31.9213    1.0000 </r>
       <r>  -31.9116    1.0000 </r>
       <r>   -5.8202    1.0000 </r>
       <r>   -4.8280    1.0000 </r>
       <r>   -3.3711    1.0000 </r>
       <r>   -3.1735    1.0000 </r>
       <r>   -1.0098    1.0000 </r>
       <r>   -0.5806    1.0000 </r>
       <r>   -0.0143    1.0000 </r>
       <r>    0.6913    1.0000 </r>
       <r>    1.1833    1.0000 </r>
       <r>    1.8448    1.0000 </r>
       <r>    2.1195    1.0000 </r>
       <r>    2.2157    1.0000 </r>
       <r>    2.6350    1.0000 </r>
       <r>    2.6440    1.0000 </r>
       <r>    2.7552    1.0000 </r>
       <r>    3.2392    1.0000 </r>
       <r>    3.3570    1.0000 </r>
       <r>    3.5813    1.0000 </r>
       <r>    3.6272    1.0000 </r>
       <r>    3.7512    1.0000 </r>
       <r>    3.8987    1.0000 </r>
       <r>    4.5186    0.5853 </r>
       <r>    4.5672    0.0006 </r>
       <r>    4.6528    0.0000 </r>
       <r>    4.7901    0.0000 </r>
       <r>    4.9296    0.0000 </r>
       <r>    5.2797    0.0000 </r>
       <r>    5.3484    0.0000 </r>
       <r>    5.5265    0.0000 </r>
       <r>    5.5874    0.0000 </r>
       <r>    6.0442    0.0000 </r>
       <r>    6.3095    0.0000 </r>
      </set>
      <set comment="kpoint 14">
       <r>  -58.6819    1.0000 </r>
       <r>  -58.6819    1.0000 </r>
       <r>  -58.5524    1.0000 </r>
       <r>  -58.5519    1.0000 </r>
       <r>  -32.0069    1.0000 </r>
       <r>  -32.0062    1.0000 </r>
       <r>  -32.0053    1.0000 </r>
       <r>  -32.0045    1.0000 </r>
       <r>  -32.0025    1.0000 </r>
       <r>  -31.9990    1.0000 </r>
       <r>  -31.9740    1.0000 </r>
       <r>  -31.9736    1.0000 </r>
       <r>  -31.9728    1.0000 </r>
       <r>  -31.9727    1.0000 </r>
       <r>  -31.9223    1.0000 </r>
       <r>  -31.9109    1.0000 </r>
       <r>   -6.0688    1.0000 </r>
       <r>   -4.5660    1.0000 </r>
       <r>   -3.3558    1.0000 </r>
       <r>   -2.8213    1.0000 </r>
       <r>   -1.4612    1.0000 </r>
       <r>   -0.4239    1.0000 </r>
       <r>   -0.0381    1.0000 </r>
       <r>    0.4045    1.0000 </r>
       <r>    1.2534    1.0000 </r>
       <r>    2.0853    1.0000 </r>
       <r>    2.2804    1.0000 </r>
       <r>    2.3840    1.0000 </r>
       <r>    2.5945    1.0000 </r>
       <r>    2.6519    1.0000 </r>
       <r>    2.8269    1.0000 </r>
       <r>    2.9004    1.0000 </r>
       <r>    3.4517    1.0000 </r>
       <r>    3.4736    1.0000 </r>
       <r>    3.5010    1.0000 </r>
       <r>    3.7570    1.0000 </r>
       <r>    3.7851    1.0000 </r>
       <r>    4.5748    0.0001 </r>
       <r>    4.6161    0.0000 </r>
       <r>    4.6762    0.0000 </r>
       <r>    4.8000    0.0000 </r>
       <r>    5.0235    0.0000 </r>
       <r>    5.1989    0.0000 </r>
       <r>    5.3109    0.0000 </r>
       <r>    5.4225    0.0000 </r>
       <r>    5.8681    0.0000 </r>
       <r>    6.1179    0.0000 </r>
       <r>    6.3958    0.0000 </r>
      </set>
      <set comment="kpoint 15">
       <r>  -58.6819    1.0000 </r>
       <r>  -58.6818    1.0000 </r>
       <r>  -58.5524    1.0000 </r>
       <r>  -58.5519    1.0000 </r>
       <r>  -32.0077    1.0000 </r>
       <r>  -32.0059    1.0000 </r>
       <r>  -32.0045    1.0000 </r>
       <r>  -32.0041    1.0000 </r>
       <r>  -32.0034    1.0000 </r>
       <r>  -31.9988    1.0000 </r>
       <r>  -31.9748    1.0000 </r>
       <r>  -31.9735    1.0000 </r>
       <r>  -31.9734    1.0000 </r>
       <r>  -31.9719    1.0000 </r>
       <r>  -31.9210    1.0000 </r>
       <r>  -31.9117    1.0000 </r>
       <r>   -5.5864    1.0000 </r>
       <r>   -4.9190    1.0000 </r>
       <r>   -3.5792    1.0000 </r>
       <r>   -3.4990    1.0000 </r>
       <r>   -0.3548    1.0000 </r>
       <r>   -0.2494    1.0000 </r>
       <r>   -0.1305    1.0000 </r>
       <r>    0.8223    1.0000 </r>
       <r>    0.9070    1.0000 </r>
       <r>    1.2177    1.0000 </r>
       <r>    1.7939    1.0000 </r>
       <r>    2.2077    1.0000 </r>
       <r>    2.4761    1.0000 </r>
       <r>    2.5152    1.0000 </r>
       <r>    3.0002    1.0000 </r>
       <r>    3.3740    1.0000 </r>
       <r>    3.5936    1.0000 </r>
       <r>    3.6899    1.0000 </r>
       <r>    3.6939    1.0000 </r>
       <r>    3.9588    1.0000 </r>
       <r>    4.0041    1.0000 </r>
       <r>    4.4610    1.0000 </r>
       <r>    4.4827    0.9971 </r>
       <r>    4.6508    0.0000 </r>
       <r>    4.8590    0.0000 </r>
       <r>    4.9323    0.0000 </r>
       <r>    5.1536    0.0000 </r>
       <r>    5.3644    0.0000 </r>
       <r>    5.5411    0.0000 </r>
       <r>    5.6985    0.0000 </r>
       <r>    6.0772    0.0000 </r>
       <r>    6.1267    0.0000 </r>
      </set>
      <set comment="kpoint 16">
       <r>  -58.6819    1.0000 </r>
       <r>  -58.6818    1.0000 </r>
       <r>  -58.5524    1.0000 </r>
       <r>  -58.5519    1.0000 </r>
       <r>  -32.0079    1.0000 </r>
       <r>  -32.0057    1.0000 </r>
       <r>  -32.0044    1.0000 </r>
       <r>  -32.0041    1.0000 </r>
       <r>  -32.0037    1.0000 </r>
       <r>  -31.9986    1.0000 </r>
       <r>  -31.9750    1.0000 </r>
       <r>  -31.9735    1.0000 </r>
       <r>  -31.9735    1.0000 </r>
       <r>  -31.9718    1.0000 </r>
       <r>  -31.9215    1.0000 </r>
       <r>  -31.9111    1.0000 </r>
       <r>   -5.7096    1.0000 </r>
       <r>   -4.7311    1.0000 </r>
       <r>   -3.6146    1.0000 </r>
       <r>   -3.4999    1.0000 </r>
       <r>   -0.5084    1.0000 </r>
       <r>   -0.1871    1.0000 </r>
       <r>    0.1031    1.0000 </r>
       <r>    0.2941    1.0000 </r>
       <r>    1.2395    1.0000 </r>
       <r>    1.4330    1.0000 </r>
       <r>    1.6759    1.0000 </r>
       <r>    2.2992    1.0000 </r>
       <r>    2.3432    1.0000 </r>
       <r>    2.5809    1.0000 </r>
       <r>    2.9770    1.0000 </r>
       <r>    3.4922    1.0000 </r>
       <r>    3.5689    1.0000 </r>
       <r>    3.6379    1.0000 </r>
       <r>    3.6382    1.0000 </r>
       <r>    3.7514    1.0000 </r>
       <r>    4.0148    1.0000 </r>
       <r>    4.4787    0.9988 </r>
       <r>    4.5702    0.0003 </r>
       <r>    4.6484    0.0000 </r>
       <r>    4.8102    0.0000 </r>
       <r>    4.9594    0.0000 </r>
       <r>    5.2229    0.0000 </r>
       <r>    5.4503    0.0000 </r>
       <r>    5.5046    0.0000 </r>
       <r>    5.6865    0.0000 </r>
       <r>    6.0838    0.0000 </r>
       <r>    6.4524    0.0000 </r>
      </set>
      <set comment="kpoint 17">
       <r>  -58.6819    1.0000 </r>
       <r>  -58.6819    1.0000 </r>
       <r>  -58.5524    1.0000 </r>
       <r>  -58.5519    1.0000 </r>
       <r>  -32.0068    1.0000 </r>
       <r>  -32.0066    1.0000 </r>
       <r>  -32.0055    1.0000 </r>
       <r>  -32.0049    1.0000 </r>
       <r>  -32.0008    1.0000 </r>
       <r>  -31.9995    1.0000 </r>
       <r>  -31.9747    1.0000 </r>
       <r>  -31.9744    1.0000 </r>
       <r>  -31.9718    1.0000 </r>
       <r>  -31.9716    1.0000 </r>
       <r>  -31.9234    1.0000 </r>
       <r>  -31.9105    1.0000 </r>
       <r>   -6.4096    1.0000 </r>
       <r>   -4.2391    1.0000 </r>
       <r>   -2.8992    1.0000 </r>
       <r>   -2.4002    1.0000 </r>
       <r>   -2.0895    1.0000 </r>
       <r>   -0.3568    1.0000 </r>
       <r>    0.1997    1.0000 </r>
       <r>    0.5731    1.0000 </r>
       <r>    1.0526    1.0000 </r>
       <r>    1.4660    1.0000 </r>
       <r>    1.6361    1.0000 </r>
       <r>    2.2218    1.0000 </r>
       <r>    2.2729    1.0000 </r>
       <r>    2.5022    1.0000 </r>
       <r>    3.1730    1.0000 </r>
       <r>    3.2207    1.0000 </r>
       <r>    3.3262    1.0000 </r>
       <r>    3.4737    1.0000 </r>
       <r>    3.7469    1.0000 </r>
       <r>    4.1988    1.0000 </r>
       <r>    4.2060    1.0000 </r>
       <r>    4.5760    0.0001 </r>
       <r>    4.7140    0.0000 </r>
       <r>    4.7692    0.0000 </r>
       <r>    4.7911    0.0000 </r>
       <r>    4.9153    0.0000 </r>
       <r>    4.9820    0.0000 </r>
       <r>    5.4683    0.0000 </r>
       <r>    5.6039    0.0000 </r>
       <r>    6.0442    0.0000 </r>
       <r>    6.1253    0.0000 </r>
       <r>    6.5754    0.0000 </r>
      </set>
      <set comment="kpoint 18">
       <r>  -58.6819    1.0000 </r>
       <r>  -58.6819    1.0000 </r>
       <r>  -58.5524    1.0000 </r>
       <r>  -58.5519    1.0000 </r>
       <r>  -32.0069    1.0000 </r>
       <r>  -32.0061    1.0000 </r>
       <r>  -32.0056    1.0000 </r>
       <r>  -32.0050    1.0000 </r>
       <r>  -32.0014    1.0000 </r>
       <r>  -31.9993    1.0000 </r>
       <r>  -31.9743    1.0000 </r>
       <r>  -31.9735    1.0000 </r>
       <r>  -31.9730    1.0000 </r>
       <r>  -31.9718    1.0000 </r>
       <r>  -31.9223    1.0000 </r>
       <r>  -31.9113    1.0000 </r>
       <r>   -6.2275    1.0000 </r>
       <r>   -4.5356    1.0000 </r>
       <r>   -2.9797    1.0000 </r>
       <r>   -2.3232    1.0000 </r>
       <r>   -2.0835    1.0000 </r>
       <r>   -0.7982    1.0000 </r>
       <r>    0.2097    1.0000 </r>
       <r>    0.7348    1.0000 </r>
       <r>    1.3069    1.0000 </r>
       <r>    1.8754    1.0000 </r>
       <r>    1.9246    1.0000 </r>
       <r>    2.2577    1.0000 </r>
       <r>    2.2582    1.0000 </r>
       <r>    2.3841    1.0000 </r>
       <r>    3.0038    1.0000 </r>
       <r>    3.3626    1.0000 </r>
       <r>    3.4552    1.0000 </r>
       <r>    3.5257    1.0000 </r>
       <r>    3.7506    1.0000 </r>
       <r>    3.7924    1.0000 </r>
       <r>    3.9998    1.0000 </r>
       <r>    4.5367    0.1443 </r>
       <r>    4.6832    0.0000 </r>
       <r>    4.7303    0.0000 </r>
       <r>    4.7308    0.0000 </r>
       <r>    4.9900    0.0000 </r>
       <r>    5.0596    0.0000 </r>
       <r>    5.2419    0.0000 </r>
       <r>    5.3575    0.0000 </r>
       <r>    5.7776    0.0000 </r>
       <r>    5.9196    0.0000 </r>
       <r>    6.0989    0.0000 </r>
      </set>
      <set comment="kpoint 19">
       <r>  -58.6819    1.0000 </r>
       <r>  -58.6819    1.0000 </r>
       <r>  -58.5523    1.0000 </r>
       <r>  -58.5520    1.0000 </r>
       <r>  -32.0070    1.0000 </r>
       <r>  -32.0064    1.0000 </r>
       <r>  -32.0052    1.0000 </r>
       <r>  -32.0050    1.0000 </r>
       <r>  -32.0015    1.0000 </r>
       <r>  -31.9995    1.0000 </r>
       <r>  -31.9738    1.0000 </r>
       <r>  -31.9737    1.0000 </r>
       <r>  -31.9729    1.0000 </r>
       <r>  -31.9720    1.0000 </r>
       <r>  -31.9203    1.0000 </r>
       <r>  -31.9131    1.0000 </r>
       <r>   -5.8956    1.0000 </r>
       <r>   -5.0162    1.0000 </r>
       <r>   -2.8759    1.0000 </r>
       <r>   -2.6006    1.0000 </r>
       <r>   -1.7581    1.0000 </r>
       <r>   -1.2933    1.0000 </r>
       <r>    0.4054    1.0000 </r>
       <r>    1.0876    1.0000 </r>
       <r>    1.3818    1.0000 </r>
       <r>    1.7872    1.0000 </r>
       <r>    2.1525    1.0000 </r>
       <r>    2.2592    1.0000 </r>
       <r>    2.3643    1.0000 </r>
       <r>    2.5849    1.0000 </r>
       <r>    2.7244    1.0000 </r>
       <r>    3.0806    1.0000 </r>
       <r>    3.5949    1.0000 </r>
       <r>    3.6343    1.0000 </r>
       <r>    3.7669    1.0000 </r>
       <r>    3.7898    1.0000 </r>
       <r>    3.9311    1.0000 </r>
       <r>    4.4249    1.0000 </r>
       <r>    4.6223    0.0000 </r>
       <r>    4.6594    0.0000 </r>
       <r>    4.6757    0.0000 </r>
       <r>    4.8563    0.0000 </r>
       <r>    5.1158    0.0000 </r>
       <r>    5.3083    0.0000 </r>
       <r>    5.4392    0.0000 </r>
       <r>    5.7082    0.0000 </r>
       <r>    5.7724    0.0000 </r>
       <r>    5.9060    0.0000 </r>
      </set>
      <set comment="kpoint 20">
       <r>  -58.6819    1.0000 </r>
       <r>  -58.6819    1.0000 </r>
       <r>  -58.5522    1.0000 </r>
       <r>  -58.5521    1.0000 </r>
       <r>  -32.0069    1.0000 </r>
       <r>  -32.0064    1.0000 </r>
       <r>  -32.0054    1.0000 </r>
       <r>  -32.0051    1.0000 </r>
       <r>  -32.0010    1.0000 </r>
       <r>  -32.0001    1.0000 </r>
       <r>  -31.9735    1.0000 </r>
       <r>  -31.9731    1.0000 </r>
       <r>  -31.9729    1.0000 </r>
       <r>  -31.9725    1.0000 </r>
       <r>  -31.9180    1.0000 </r>
[...]
       <r>  -58.5519    1.0000 </r>
       <r>  -32.0090    1.0000 </r>
       <r>  -32.0090    1.0000 </r>
       <r>  -32.0047    1.0000 </r>
       <r>  -32.0045    1.0000 </r>
       <r>  -32.0009    1.0000 </r>
       <r>  -31.9984    1.0000 </r>
       <r>  -31.9734    1.0000 </r>
       <r>  -31.9733    1.0000 </r>
       <r>  -31.9713    1.0000 </r>
       <r>  -31.9712    1.0000 </r>
       <r>  -31.9233    1.0000 </r>
       <r>  -31.9116    1.0000 </r>
       <r>   -5.8242    1.0000 </r>
       <r>   -5.1348    1.0000 </r>
       <r>   -2.6863    1.0000 </r>
       <r>   -2.5265    1.0000 </r>
       <r>   -1.8556    1.0000 </r>
       <r>   -0.3878    1.0000 </r>
       <r>   -0.0279    1.0000 </r>
       <r>   -0.0176    1.0000 </r>
       <r>    0.6168    1.0000 </r>
       <r>    1.5485    1.0000 </r>
       <r>    2.0128    1.0000 </r>
       <r>    2.0258    1.0000 </r>
       <r>    2.0791    1.0000 </r>
       <r>    2.8478    1.0000 </r>
       <r>    2.9760    1.0000 </r>
       <r>    3.3110    1.0000 </r>
       <r>    3.3775    1.0000 </r>
       <r>    3.8217    1.0000 </r>
       <r>    4.0213    1.0000 </r>
       <r>    4.1363    1.0000 </r>
       <r>    4.2805    1.0000 </r>
       <r>    4.5420    0.0755 </r>
       <r>    4.5861    0.0000 </r>
       <r>    4.8170    0.0000 </r>
       <r>    4.9738    0.0000 </r>
       <r>    5.0114    0.0000 </r>
       <r>    5.3552    0.0000 </r>
       <r>    5.3897    0.0000 </r>
       <r>    5.4733    0.0000 </r>
       <r>    5.9428    0.0000 </r>
       <r>    6.2434    0.0000 </r>
       <r>    6.5159    0.0000 </r>
      </set>
      <set comment="kpoint 116">
       <r>  -58.6819    1.0000 </r>
       <r>  -58.6818    1.0000 </r>
       <r>  -58.5524    1.0000 </r>
       <r>  -58.5519    1.0000 </r>
       <r>  -32.0092    1.0000 </r>
       <r>  -32.0091    1.0000 </r>
       <r>  -32.0046    1.0000 </r>
       <r>  -32.0044    1.0000 </r>
       <r>  -32.0009    1.0000 </r>
       <r>  -31.9983    1.0000 </r>
       <r>  -31.9735    1.0000 </r>
       <r>  -31.9734    1.0000 </r>
       <r>  -31.9711    1.0000 </r>
       <r>  -31.9710    1.0000 </r>
       <r>  -31.9240    1.0000 </r>
       <r>  -31.9110    1.0000 </r>
       <r>   -5.7833    1.0000 </r>
       <r>   -5.1744    1.0000 </r>
       <r>   -2.6814    1.0000 </r>
       <r>   -2.5216    1.0000 </r>
       <r>   -1.8480    1.0000 </r>
       <r>   -0.4540    1.0000 </r>
       <r>   -0.0659    1.0000 </r>
       <r>   -0.0424    1.0000 </r>
       <r>    0.6039    1.0000 </r>
       <r>    1.5485    1.0000 </r>
       <r>    2.0081    1.0000 </r>
       <r>    2.0163    1.0000 </r>
       <r>    2.3509    1.0000 </r>
       <r>    2.6683    1.0000 </r>
       <r>    2.9707    1.0000 </r>
       <r>    3.2746    1.0000 </r>
       <r>    3.3613    1.0000 </r>
       <r>    3.8575    1.0000 </r>
       <r>    4.0200    1.0000 </r>
       <r>    4.1447    1.0000 </r>
       <r>    4.2640    1.0000 </r>
       <r>    4.5595    0.0037 </r>
       <r>    4.5737    0.0001 </r>
       <r>    4.8309    0.0000 </r>
       <r>    5.0070    0.0000 </r>
       <r>    5.0341    0.0000 </r>
       <r>    5.3820    0.0000 </r>
       <r>    5.4385    0.0000 </r>
       <r>    5.4814    0.0000 </r>
       <r>    6.0753    0.0000 </r>
       <r>    6.3312    0.0000 </r>
       <r>    6.5903    0.0000 </r>
      </set>
     </set>
    </set>
   </array>
  </eigenvalues>
  <separator name="orbital magnetization" >
   <v name="MAGDIPOLOUT">      0.00000000      0.00000000      0.00000000</v>
  </separator>
  <dos>
   <i name="efermi">      4.52167809 </i>
   <total>
    <array>
     <dimension dim="1">gridpoints</dimension>
     <dimension dim="2">spin</dimension>
     <field>energy</field>
     <field>total</field>
     <field>integrated</field>
     <set>
      <set comment="spin 1">
       <r>   -61.9743     0.0000     0.0000 </r>
       <r>   -61.7328     0.0000     0.0000 </r>
       <r>   -61.4914     0.0000     0.0000 </r>
       <r>   -61.2499     0.0000     0.0000 </r>
       <r>   -61.0085     0.0000     0.0000 </r>
       <r>   -60.7671     0.0000     0.0000 </r>
       <r>   -60.5256     0.0000     0.0000 </r>
       <r>   -60.2842     0.0000     0.0000 </r>
       <r>   -60.0427     0.0000     0.0000 </r>
       <r>   -59.8013     0.0000     0.0000 </r>
       <r>   -59.5599     0.0000     0.0000 </r>
       <r>   -59.3184     0.0000     0.0000 </r>
       <r>   -59.0770     0.0000     0.0000 </r>
       <r>   -58.8356     0.0000     0.0000 </r>
       <r>   -58.5941    16.5922     4.0060 </r>
       <r>   -58.3527     0.0000     8.0000 </r>
       <r>   -58.1112     0.0000     8.0000 </r>
       <r>   -57.8698     0.0000     8.0000 </r>
       <r>   -57.6284     0.0000     8.0000 </r>
       <r>   -57.3869     0.0000     8.0000 </r>
       <r>   -57.1455     0.0000     8.0000 </r>
       <r>   -56.9040     0.0000     8.0000 </r>
       <r>   -56.6626     0.0000     8.0000 </r>
       <r>   -56.4212     0.0000     8.0000 </r>
       <r>   -56.1797     0.0000     8.0000 </r>
       <r>   -55.9383     0.0000     8.0000 </r>
       <r>   -55.6968     0.0000     8.0000 </r>
       <r>   -55.4554     0.0000     8.0000 </r>
       <r>   -55.2140     0.0000     8.0000 </r>
       <r>   -54.9725     0.0000     8.0000 </r>
       <r>   -54.7311     0.0000     8.0000 </r>
       <r>   -54.4897     0.0000     8.0000 </r>
       <r>   -54.2482     0.0000     8.0000 </r>
       <r>   -54.0068     0.0000     8.0000 </r>
       <r>   -53.7653     0.0000     8.0000 </r>
       <r>   -53.5239     0.0000     8.0000 </r>
       <r>   -53.2825     0.0000     8.0000 </r>
       <r>   -53.0410     0.0000     8.0000 </r>
       <r>   -52.7996     0.0000     8.0000 </r>
       <r>   -52.5581     0.0000     8.0000 </r>
       <r>   -52.3167     0.0000     8.0000 </r>
       <r>   -52.0753     0.0000     8.0000 </r>
       <r>   -51.8338     0.0000     8.0000 </r>
       <r>   -51.5924     0.0000     8.0000 </r>
       <r>   -51.3509     0.0000     8.0000 </r>
       <r>   -51.1095     0.0000     8.0000 </r>
       <r>   -50.8681     0.0000     8.0000 </r>
       <r>   -50.6266     0.0000     8.0000 </r>
       <r>   -50.3852     0.0000     8.0000 </r>
       <r>   -50.1438     0.0000     8.0000 </r>
       <r>   -49.9023     0.0000     8.0000 </r>
       <r>   -49.6609     0.0000     8.0000 </r>
       <r>   -49.4194     0.0000     8.0000 </r>
       <r>   -49.1780     0.0000     8.0000 </r>
       <r>   -48.9366     0.0000     8.0000 </r>
       <r>   -48.6951     0.0000     8.0000 </r>
       <r>   -48.4537     0.0000     8.0000 </r>
       <r>   -48.2122     0.0000     8.0000 </r>
       <r>   -47.9708     0.0000     8.0000 </r>
       <r>   -47.7294     0.0000     8.0000 </r>
       <r>   -47.4879     0.0000     8.0000 </r>
       <r>   -47.2465     0.0000     8.0000 </r>
       <r>   -47.0050     0.0000     8.0000 </r>
       <r>   -46.7636     0.0000     8.0000 </r>
       <r>   -46.5222     0.0000     8.0000 </r>
       <r>   -46.2807     0.0000     8.0000 </r>
       <r>   -46.0393     0.0000     8.0000 </r>
       <r>   -45.7979     0.0000     8.0000 </r>
       <r>   -45.5564     0.0000     8.0000 </r>
       <r>   -45.3150     0.0000     8.0000 </r>
       <r>   -45.0735     0.0000     8.0000 </r>
       <r>   -44.8321     0.0000     8.0000 </r>
       <r>   -44.5907     0.0000     8.0000 </r>
       <r>   -44.3492     0.0000     8.0000 </r>
       <r>   -44.1078     0.0000     8.0000 </r>
       <r>   -43.8663     0.0000     8.0000 </r>
       <r>   -43.6249     0.0000     8.0000 </r>
       <r>   -43.3835     0.0000     8.0000 </r>
       <r>   -43.1420     0.0000     8.0000 </r>
       <r>   -42.9006     0.0000     8.0000 </r>
       <r>   -42.6591     0.0000     8.0000 </r>
       <r>   -42.4177     0.0000     8.0000 </r>
       <r>   -42.1763     0.0000     8.0000 </r>
       <r>   -41.9348     0.0000     8.0000 </r>
       <r>   -41.6934     0.0000     8.0000 </r>
       <r>   -41.4519     0.0000     8.0000 </r>
       <r>   -41.2105     0.0000     8.0000 </r>
       <r>   -40.9691     0.0000     8.0000 </r>
       <r>   -40.7276     0.0000     8.0000 </r>
       <r>   -40.4862     0.0000     8.0000 </r>
       <r>   -40.2448     0.0000     8.0000 </r>
       <r>   -40.0033     0.0000     8.0000 </r>
       <r>   -39.7619     0.0000     8.0000 </r>
       <r>   -39.5204     0.0000     8.0000 </r>
       <r>   -39.2790     0.0000     8.0000 </r>
       <r>   -39.0376     0.0000     8.0000 </r>
       <r>   -38.7961     0.0000     8.0000 </r>
       <r>   -38.5547     0.0000     8.0000 </r>
       <r>   -38.3132     0.0000     8.0000 </r>
       <r>   -38.0718     0.0000     8.0000 </r>
       <r>   -37.8304     0.0000     8.0000 </r>
       <r>   -37.5889     0.0000     8.0000 </r>
       <r>   -37.3475     0.0000     8.0000 </r>
       <r>   -37.1060     0.0000     8.0000 </r>
       <r>   -36.8646     0.0000     8.0000 </r>
       <r>   -36.6232     0.0000     8.0000 </r>
       <r>   -36.3817     0.0000     8.0000 </r>
       <r>   -36.1403     0.0000     8.0000 </r>
       <r>   -35.8989     0.0000     8.0000 </r>
       <r>   -35.6574     0.0000     8.0000 </r>
       <r>   -35.4160     0.0000     8.0000 </r>
       <r>   -35.1745     0.0000     8.0000 </r>
       <r>   -34.9331     0.0000     8.0000 </r>
       <r>   -34.6917     0.0000     8.0000 </r>
       <r>   -34.4502     0.0000     8.0000 </r>
       <r>   -34.2088     0.0000     8.0000 </r>
       <r>   -33.9673     0.0000     8.0000 </r>
       <r>   -33.7259     0.0000     8.0000 </r>
       <r>   -33.4845     0.0000     8.0000 </r>
       <r>   -33.2430     0.0000     8.0000 </r>
       <r>   -33.0016     0.0000     8.0000 </r>
       <r>   -32.7601     0.0000     8.0000 </r>
       <r>   -32.5187     0.0000     8.0000 </r>
       <r>   -32.2773     0.0000     8.0000 </r>
       <r>   -32.0358     0.6954     8.1679 </r>
       <r>   -31.7944    16.5673    32.0000 </r>
       <r>   -31.5530     0.0000    32.0000 </r>
       <r>   -31.3115     0.0000    32.0000 </r>
       <r>   -31.0701     0.0000    32.0000 </r>
       <r>   -30.8286     0.0000    32.0000 </r>
       <r>   -30.5872     0.0000    32.0000 </r>
       <r>   -30.3458     0.0000    32.0000 </r>
       <r>   -30.1043     0.0000    32.0000 </r>
       <r>   -29.8629     0.0000    32.0000 </r>
       <r>   -29.6214     0.0000    32.0000 </r>
       <r>   -29.3800     0.0000    32.0000 </r>
       <r>   -29.1386     0.0000    32.0000 </r>
       <r>   -28.8971     0.0000    32.0000 </r>
       <r>   -28.6557     0.0000    32.0000 </r>
       <r>   -28.4142     0.0000    32.0000 </r>
       <r>   -28.1728     0.0000    32.0000 </r>
       <r>   -27.9314     0.0000    32.0000 </r>
       <r>   -27.6899     0.0000    32.0000 </r>
       <r>   -27.4485     0.0000    32.0000 </r>
       <r>   -27.2071     0.0000    32.0000 </r>
       <r>   -26.9656     0.0000    32.0000 </r>
       <r>   -26.7242     0.0000    32.0000 </r>
       <r>   -26.4827     0.0000    32.0000 </r>
       <r>   -26.2413     0.0000    32.0000 </r>
       <r>   -25.9999     0.0000    32.0000 </r>
       <r>   -25.7584     0.0000    32.0000 </r>
       <r>   -25.5170     0.0000    32.0000 </r>
       <r>   -25.2755     0.0000    32.0000 </r>
       <r>   -25.0341     0.0000    32.0000 </r>
       <r>   -24.7927     0.0000    32.0000 </r>
       <r>   -24.5512     0.0000    32.0000 </r>
       <r>   -24.3098     0.0000    32.0000 </r>
       <r>   -24.0683     0.0000    32.0000 </r>
       <r>   -23.8269     0.0000    32.0000 </r>
       <r>   -23.5855     0.0000    32.0000 </r>
       <r>   -23.3440     0.0000    32.0000 </r>
       <r>   -23.1026     0.0000    32.0000 </r>
       <r>   -22.8612     0.0000    32.0000 </r>
       <r>   -22.6197     0.0000    32.0000 </r>
       <r>   -22.3783     0.0000    32.0000 </r>
       <r>   -22.1368     0.0000    32.0000 </r>
       <r>   -21.8954     0.0000    32.0000 </r>
       <r>   -21.6540     0.0000    32.0000 </r>
       <r>   -21.4125     0.0000    32.0000 </r>
       <r>   -21.1711     0.0000    32.0000 </r>
       <r>   -20.9296     0.0000    32.0000 </r>
       <r>   -20.6882     0.0000    32.0000 </r>
       <r>   -20.4468     0.0000    32.0000 </r>
       <r>   -20.2053     0.0000    32.0000 </r>
       <r>   -19.9639     0.0000    32.0000 </r>
       <r>   -19.7224     0.0000    32.0000 </r>
       <r>   -19.4810     0.0000    32.0000 </r>
       <r>   -19.2396     0.0000    32.0000 </r>
       <r>   -18.9981     0.0000    32.0000 </r>
       <r>   -18.7567     0.0000    32.0000 </r>
       <r>   -18.5152     0.0000    32.0000 </r>
       <r>   -18.2738     0.0000    32.0000 </r>
       <r>   -18.0324     0.0000    32.0000 </r>
       <r>   -17.7909     0.0000    32.0000 </r>
       <r>   -17.5495     0.0000    32.0000 </r>
       <r>   -17.3081     0.0000    32.0000 </r>
       <r>   -17.0666     0.0000    32.0000 </r>
       <r>   -16.8252     0.0000    32.0000 </r>
       <r>   -16.5837     0.0000    32.0000 </r>
       <r>   -16.3423     0.0000    32.0000 </r>
       <r>   -16.1009     0.0000    32.0000 </r>
       <r>   -15.8594     0.0000    32.0000 </r>
       <r>   -15.6180     0.0000    32.0000 </r>
       <r>   -15.3765     0.0000    32.0000 </r>
       <r>   -15.1351     0.0000    32.0000 </r>
       <r>   -14.8937     0.0000    32.0000 </r>
       <r>   -14.6522     0.0000    32.0000 </r>
       <r>   -14.4108     0.0000    32.0000 </r>
       <r>   -14.1693     0.0000    32.0000 </r>
       <r>   -13.9279     0.0000    32.0000 </r>
       <r>   -13.6865     0.0000    32.0000 </r>
       <r>   -13.4450     0.0000    32.0000 </r>
       <r>   -13.2036     0.0000    32.0000 </r>
       <r>   -12.9622     0.0000    32.0000 </r>
       <r>   -12.7207     0.0000    32.0000 </r>
       <r>   -12.4793     0.0000    32.0000 </r>
       <r>   -12.2378     0.0000    32.0000 </r>
       <r>   -11.9964     0.0000    32.0000 </r>
       <r>   -11.7550     0.0000    32.0000 </r>
       <r>   -11.5135     0.0000    32.0000 </r>
       <r>   -11.2721     0.0000    32.0000 </r>
       <r>   -11.0306     0.0000    32.0000 </r>
       <r>   -10.7892     0.0000    32.0000 </r>
       <r>   -10.5478     0.0000    32.0000 </r>
       <r>   -10.3063     0.0000    32.0000 </r>
       <r>   -10.0649     0.0000    32.0000 </r>
       <r>    -9.8234     0.0000    32.0000 </r>
       <r>    -9.5820     0.0000    32.0000 </r>
       <r>    -9.3406     0.0000    32.0000 </r>
       <r>    -9.0991     0.0000    32.0000 </r>
       <r>    -8.8577     0.0000    32.0000 </r>
       <r>    -8.6163     0.0000    32.0000 </r>
       <r>    -8.3748     0.0000    32.0000 </r>
       <r>    -8.1334     0.0000    32.0000 </r>
       <r>    -7.8919     0.0000    32.0000 </r>
       <r>    -7.6505     0.0000    32.0000 </r>
       <r>    -7.4091     0.0000    32.0000 </r>
       <r>    -7.1676     0.0000    32.0000 </r>
       <r>    -6.9262     0.0000    32.0000 </r>
       <r>    -6.6847     0.0000    32.0000 </r>
       <r>    -6.4433     0.0295    32.0071 </r>
       <r>    -6.2019     0.6170    32.2255 </r>
       <r>    -5.9604     1.0838    32.5729 </r>
       <r>    -5.7190     1.4821    33.0772 </r>
       <r>    -5.4775     2.3227    33.8975 </r>
       <r>    -5.2361     1.7659    34.5692 </r>
       <r>    -4.9947     1.2441    35.1575 </r>
       <r>    -4.7532     1.2834    35.6262 </r>
       <r>    -4.5118     0.5448    35.8509 </r>
       <r>    -4.2704     0.1166    35.9516 </r>
       <r>    -4.0289     0.0211    36.0000 </r>
       <r>    -3.7875     0.0000    36.0000 </r>
       <r>    -3.5460     0.6294    36.1520 </r>
       <r>    -3.3046     1.2654    36.6729 </r>
       <r>    -3.0632     2.0114    37.2816 </r>
       <r>    -2.8217     1.6927    37.8781 </r>
       <r>    -2.5803     2.8806    38.8996 </r>
       <r>    -2.3388     2.2488    39.6756 </r>
       <r>    -2.0974     1.7850    40.3697 </r>
       <r>    -1.8560     1.5282    40.9710 </r>
       <r>    -1.6145     1.0974    41.3313 </r>
       <r>    -1.3731     0.7875    41.6850 </r>
       <r>    -1.1316     0.9963    42.0110 </r>
       <r>    -0.8902     1.1004    42.4442 </r>
       <r>    -0.6488     1.1599    42.8362 </r>
       <r>    -0.4073     1.8936    43.4521 </r>
       <r>    -0.1659     1.9457    44.1177 </r>
       <r>     0.0755     2.0035    44.7949 </r>
       <r>     0.3170     2.4926    45.5865 </r>
       <r>     0.5584     1.8921    46.2477 </r>
       <r>     0.7999     2.7121    47.2109 </r>
       <r>     1.0413     2.3635    48.0094 </r>
       <r>     1.2827     4.4159    49.5151 </r>
       <r>     1.5242     2.9941    50.7025 </r>
       <r>     1.7656     2.9099    51.8046 </r>
       <r>     2.0071     4.3283    53.1879 </r>
       <r>     2.2485     8.5707    55.9570 </r>
       <r>     2.4899     5.3768    58.3849 </r>
       <r>     2.7314     4.6881    59.9482 </r>
       <r>     2.9728     3.3593    61.2601 </r>
       <r>     3.2143     3.0046    62.4703 </r>
       <r>     3.4557     5.4305    64.2193 </r>
       <r>     3.6971     9.3589    67.4943 </r>
       <r>     3.9386    10.5578    71.2225 </r>
       <r>     4.1800     5.2508    73.5177 </r>
       <r>     4.4215     4.1042    75.1338 </r>
       <r>     4.6629    13.0681    78.9511 </r>
       <r>     4.9043     8.5364    82.6478 </r>
       <r>     5.1458     6.1107    85.0111 </r>
       <r>     5.3872     8.5308    87.8658 </r>
       <r>     5.6286     5.4791    90.1392 </r>
       <r>     5.8701     5.3141    92.3289 </r>
       <r>     6.1115     5.4990    94.3277 </r>
       <r>     6.3530     2.5154    95.6175 </r>
       <r>     6.5944     0.7884    95.9454 </r>
       <r>     6.8358     0.1268    95.9847 </r>
       <r>     7.0773     0.0000    95.9847 </r>
       <r>     7.3187     0.0423    96.0000 </r>
       <r>     7.5602     0.0000    96.0000 </r>
       <r>     7.8016     0.0000    96.0000 </r>
       <r>     8.0430     0.0000    96.0000 </r>
       <r>     8.2845     0.0000    96.0000 </r>
       <r>     8.5259     0.0000    96.0000 </r>
       <r>     8.7674     0.0000    96.0000 </r>
       <r>     9.0088     0.0000    96.0000 </r>
       <r>     9.2502     0.0000    96.0000 </r>
       <r>     9.4917     0.0000    96.0000 </r>
       <r>     9.7331     0.0000    96.0000 </r>
       <r>     9.9745     0.0000    96.0000 </r>
       <r>    10.2160     0.0000    96.0000 </r>
       <r>    10.4574     0.0000    96.0000 </r>
      </set>
     </set>
    </array>
   </total>
  </dos>
 </calculation>
 <structure name="finalpos" >
  <crystal>
   <varray name="basis" >
    <v>       5.73844743       0.00000000      -3.23463664 </v>
    <v>      -1.95878737       5.39378632      -3.23463664 </v>
    <v>       0.00000000       0.00000000       6.58731000 </v>
   </varray>
   <i name="volume">    203.89015060 </i>
   <varray name="rec_basis" >
    <v>       0.17426316       0.06328476       0.00000000 </v>
    <v>       0.00000000       0.18539852       0.00000000 </v>
    <v>       0.08557029       0.12211359       0.15180704 </v>
   </varray>
  </crystal>
  <varray name="positions" >
   <v>       0.50000000       0.00000000       0.00000000 </v>
   <v>       0.00000000       0.00000000       0.50000000 </v>
   <v>       0.00000000       0.50000000       0.00000000 </v>
   <v>       0.50000000       0.50000000       0.50000000 </v>
   <v>       0.25000000       0.75000000       0.50000000 </v>
   <v>       0.50000000       0.50000000       0.00000000 </v>
   <v>       0.75000000       0.25000000       0.50000000 </v>
   <v>       0.00000000       0.00000000       0.00000000 </v>
   <v>       0.25000000       0.25000000       0.00000000 </v>
   <v>       0.75000000       0.75000000       0.00000000 </v>
  </varray>
 </structure>
</modeling>
