 vasp.6.2.0 18Jan21 (build Jan 05 2022 15:41:44) complex                        
  
 executed on             LinuxIFC date 2025.05.07  19:20:53
 running on   24 total cores
 distrk:  each k-point on   12 cores,    2 groups
 distr:  one band on NCORE=   2 cores,    6 groups


--------------------------------------------------------------------------------------------------------


 INCAR:
   SYSTEM = routine with relax: pwdword
   ICHARG = 2
   NPAR = 6
   KPAR = 2
   NCORE = 2
   ADDGRID = T
   PREC = Acc
   ENCUT = 600
   METAGGA = R2SCAN
   LASPH = .TRUE.
   LMIXTAU = .FALSE.
   ALGO = A
   EDIFF = 1E-9
   NELM = 100
   NELMIN = 6
   IALGO = 38
   LREAL = F
   NSW = 0
   ISIF = -1
   ISMEAR = 0
   SIGMA = 0.02

 POTCAR:    PAW_PBE B 06Sep2000                   
 POTCAR:    PAW_PBE Mo_sv 02Feb2006               
 POTCAR:    PAW_PBE Si 05Jan2001                  
 -----------------------------------------------------------------------------
|                                                                             |
|           W    W    AA    RRRRR   N    N  II  N    N   GGGG   !!!           |
|           W    W   A  A   R    R  NN   N  II  NN   N  G    G  !!!           |
|           W    W  A    A  R    R  N N  N  II  N N  N  G       !!!           |
|           W WW W  AAAAAA  RRRRR   N  N N  II  N  N N  G  GGG   !            |
|           WW  WW  A    A  R   R   N   NN  II  N   NN  G    G                |
|           W    W  A    A  R    R  N    N  II  N    N   GGGG   !!!           |
|                                                                             |
|     For optimal performance we recommend to set                             |
|       NCORE = 2 up to number-of-cores-per-socket                            |
|     NCORE specifies how many cores store one orbital (NPAR=cpu/NCORE).      |
|     This setting can greatly improve the performance of VASP for DFT.       |
|     The default, NCORE=1 might be grossly inefficient on modern             |
|     multi-core architectures or massively parallel machines. Do your        |
|     own testing! More info at https://www.vasp.at/wiki/index.php/NCORE      |
|     Unfortunately you need to use the default for GW and RPA                |
|     calculations (for HF NCORE is supported but not extensively tested      |
|     yet).                                                                   |
|                                                                             |
 -----------------------------------------------------------------------------

 POTCAR:    PAW_PBE B 06Sep2000                   
   VRHFIN =B: s2p1                                                                                  
   LEXCH  = PE                                                                                      
   EATOM  =    71.1703 eV,    5.2309 Ry                                                             
                                                                                                    
   TITEL  = PAW_PBE B 06Sep2000                                                                     
   LULTRA =        F    use ultrasoft PP ?                                                          
   IUNSCR =        1    unscreen: 0-lin 1-nonlin 2-no                                               
   RPACOR =    1.200    partial core radius                                                         
   POMASS =   10.811; ZVAL   =    3.000    mass and valenz                                          
   RCORE  =    1.700    outmost cutoff radius                                                       
   RWIGS  =    1.710; RWIGS  =    0.905    wigner-seitz radius (au A)                               
   ENMAX  =  318.614; ENMIN  =  238.960 eV                                                          
   ICORE  =        2    local potential                                                             
   LCOR   =        T    correct aug charges                                                         
   LPAW   =        T    paw PP                                                                      
   EAUG   =  535.514                                                                                
   DEXC   =    0.000                                                                                
   RMAX   =    1.732    core radius for proj-oper                                                   
   RAUG   =    1.300    factor for augmentation sphere                                              
   RDEP   =    1.757    radius for radial grids                                                     
   RDEPT  =    1.436    core radius for aug-charge                                                  
                                                                                                    
   Atomic configuration                                                                             
    4 entries                                                                                       
     n  l   j            E        occ.                                                              
     1  0  0.50      -180.5896   2.0000                                                             
     2  0  0.50        -9.4431   2.0000                                                             
     2  1  0.50        -3.6068   1.0000                                                             
     3  2  1.50        -4.0817   0.0000                                                             
   Description                                                                                      
     l       E           TYP  RCUT    TYP  RCUT                                                     
     0     -9.4430752     23  1.500                                                                 
     0      0.8675899     23  1.500                                                                 
     1     -3.6067955     23  1.700                                                                 
     1      6.1086146     23  1.700                                                                 
     2     -4.0817478      7  1.700                                                                 
  local pseudopotential read in
  partial core-charges read in
  partial kinetic energy density read in
  atomic valenz-charges read in
  non local Contribution for L=           0  read in
    real space projection operators read in
  non local Contribution for L=           0  read in
    real space projection operators read in
  non local Contribution for L=           1  read in
    real space projection operators read in
  non local Contribution for L=           1  read in
    real space projection operators read in
    PAW grid and wavefunctions read in
 
   number of l-projection  operators is LMAX  =           4
   number of lm-projection operators is LMMAX =           8
 
 POTCAR:    PAW_PBE Mo_sv 02Feb2006               
   VRHFIN =Mo: 4p5s4d                                                                               
   LEXCH  = PE                                                                                      
   EATOM  =  1862.2866 eV,  136.8742 Ry                                                             
                                                                                                    
   TITEL  = PAW_PBE Mo_sv 02Feb2006                                                                 
   LULTRA =        F    use ultrasoft PP ?                                                          
   IUNSCR =        1    unscreen: 0-lin 1-nonlin 2-no                                               
   RPACOR =    2.200    partial core radius                                                         
   POMASS =   95.940; ZVAL   =   14.000    mass and valenz                                          
   RCORE  =    2.500    outmost cutoff radius                                                       
   RWIGS  =    2.750; RWIGS  =    1.455    wigner-seitz radius (au A)                               
   ENMAX  =  242.676; ENMIN  =  182.007 eV                                                          
   ICORE  =        3    local potential                                                             
   LCOR   =        T    correct aug charges                                                         
   LPAW   =        T    paw PP                                                                      
   EAUG   =  446.014                                                                                
   DEXC   =    0.000                                                                                
   RMAX   =    2.563    core radius for proj-oper                                                   
   RAUG   =    1.300    factor for augmentation sphere                                              
   RDEP   =    2.641    radius for radial grids                                                     
   RDEPT  =    2.031    core radius for aug-charge                                                  
                                                                                                    
   Atomic configuration                                                                             
   11 entries                                                                                       
     n  l   j            E        occ.                                                              
     1  0  0.50    -19819.0341   2.0000                                                             
     2  0  0.50     -2799.0127   2.0000                                                             
     2  1  1.50     -2502.0276   6.0000                                                             
     3  0  0.50      -476.4449   2.0000                                                             
     3  1  1.50      -379.1496   6.0000                                                             
     3  2  2.50      -220.9367  10.0000                                                             
     4  0  0.50       -64.3378   2.0000                                                             
     5  0  0.50        -4.0862   1.0000                                                             
     4  1  1.50       -38.4773   6.0000                                                             
     4  2  2.50        -3.7535   5.0000                                                             
     4  3  2.50        -1.3606   0.0000                                                             
   Description                                                                                      
     l       E           TYP  RCUT    TYP  RCUT                                                     
     0    -64.3377829     23  2.100                                                                 
     0     -4.0861640     23  2.400                                                                 
     1    -38.4772993     23  2.100                                                                 
     1     13.6058260     23  2.100                                                                 
     2     -3.7534941     23  2.400                                                                 
     2     -5.1140767     23  2.400                                                                 
     3     -4.0817478     23  2.500                                                                 
  local pseudopotential read in
  partial core-charges read in
  partial kinetic energy density read in
  atomic valenz-charges read in
  non local Contribution for L=           0  read in
    real space projection operators read in
  non local Contribution for L=           0  read in
    real space projection operators read in
  non local Contribution for L=           1  read in
    real space projection operators read in
  non local Contribution for L=           1  read in
    real space projection operators read in
  non local Contribution for L=           2  read in
    real space projection operators read in
  non local Contribution for L=           2  read in
    real space projection operators read in
    PAW grid and wavefunctions read in
 
   number of l-projection  operators is LMAX  =           6
   number of lm-projection operators is LMMAX =          18
 
 POTCAR:    PAW_PBE Si 05Jan2001                  
   VRHFIN =Si: s2p2                                                                                 
   LEXCH  = PE                                                                                      
   EATOM  =   103.0669 eV,    7.5752 Ry                                                             
                                                                                                    
   TITEL  = PAW_PBE Si 05Jan2001                                                                    
   LULTRA =        F    use ultrasoft PP ?                                                          
   IUNSCR =        1    unscreen: 0-lin 1-nonlin 2-no                                               
   RPACOR =    1.500    partial core radius                                                         
   POMASS =   28.085; ZVAL   =    4.000    mass and valenz                                          
   RCORE  =    1.900    outmost cutoff radius                                                       
   RWIGS  =    2.480; RWIGS  =    1.312    wigner-seitz radius (au A)                               
   ENMAX  =  245.345; ENMIN  =  184.009 eV                                                          
   ICORE  =        2    local potential                                                             
   LCOR   =        T    correct aug charges                                                         
   LPAW   =        T    paw PP                                                                      
   EAUG   =  322.069                                                                                
   DEXC   =    0.000                                                                                
   RMAX   =    1.950    core radius for proj-oper                                                   
   RAUG   =    1.300    factor for augmentation sphere                                              
   RDEP   =    1.993    radius for radial grids                                                     
   RDEPT  =    1.837    core radius for aug-charge                                                  
                                                                                                    
   Atomic configuration                                                                             
    6 entries                                                                                       
     n  l   j            E        occ.                                                              
     1  0  0.50     -1785.8828   2.0000                                                             
     2  0  0.50      -139.4969   2.0000                                                             
     2  1  1.50       -95.5546   6.0000                                                             
     3  0  0.50       -10.8127   2.0000                                                             
     3  1  0.50        -4.0811   2.0000                                                             
     3  2  1.50        -4.0817   0.0000                                                             
   Description                                                                                      
     l       E           TYP  RCUT    TYP  RCUT                                                     
     0    -10.8127223     23  1.900                                                                 
     0     -7.6451159     23  1.900                                                                 
     1     -4.0811372     23  1.900                                                                 
     1      2.4879257     23  1.900                                                                 
     2     -4.0817478      7  1.900                                                                 
  local pseudopotential read in
  partial core-charges read in
  partial kinetic energy density read in
  atomic valenz-charges read in
  non local Contribution for L=           0  read in
    real space projection operators read in
  non local Contribution for L=           0  read in
    real space projection operators read in
  non local Contribution for L=           1  read in
    real space projection operators read in
  non local Contribution for L=           1  read in
    real space projection operators read in
    PAW grid and wavefunctions read in
 
   number of l-projection  operators is LMAX  =           4
   number of lm-projection operators is LMMAX =           8
 
  PAW_PBE B 06Sep2000                   :
 energy of atom  1       EATOM=  -71.1703
 kinetic energy error for atom=    0.0007 (will be added to EATOM!!)
  PAW_PBE Mo_sv 02Feb2006               :
 energy of atom  2       EATOM=-1862.2866
 kinetic energy error for atom=    0.0041 (will be added to EATOM!!)
  PAW_PBE Si 05Jan2001                  :
 energy of atom  3       EATOM= -103.0669
 kinetic energy error for atom=    0.0003 (will be added to EATOM!!)
 
 
 POSCAR: EA183
  positions in direct lattice
  No initial velocities read in

 METAGGA = R2SCA    LMAXTAU =  6    LMIXTAU =  F

 exchange correlation table for  LEXCH =        8
   RHO(1)=    0.500       N(1)  =     2000
   RHO(2)=  100.500       N(2)  =     4000
 


--------------------------------------------------------------------------------------------------------


 ion  position               nearest neighbor table
   1  0.250  0.250  0.000-   6 2.26   8 2.26   7 2.26   4 2.26
   2  0.750  0.750  0.000-   6 2.26   8 2.26   4 2.26   7 2.26
   3  0.500  0.000  0.500-   9 2.27  10 2.27   7 3.20   7 3.20   8 3.20   8 3.20   4 3.20   4 3.20
                             6 3.20   6 3.20
   4  0.000  0.000  0.500-   9 2.26  10 2.26   1 2.26   2 2.26   6 3.19   6 3.19   8 3.19   8 3.19
                             5 3.20   5 3.20   3 3.20   3 3.20
   5  0.000  0.500  0.500-   9 2.27  10 2.27   4 3.20   4 3.20   7 3.20   6 3.20   6 3.20   7 3.20
                             8 3.20   8 3.20
   6  0.000  0.500  0.000-   1 2.26   2 2.26  10 2.26   9 2.26   4 3.19   4 3.19   7 3.19   7 3.19
                             5 3.20   5 3.20   3 3.20   3 3.20
   7  0.500  0.500  0.500-   9 2.26  10 2.26   2 2.26   1 2.26   8 3.19   8 3.19   6 3.19   6 3.19
                             3 3.20   3 3.20   5 3.20   5 3.20
   8  0.500  0.000  0.000-   1 2.26   2 2.26   9 2.26  10 2.26   7 3.19   7 3.19   4 3.19   4 3.19
                             3 3.20   3 3.20   5 3.20   5 3.20
   9  0.750  0.250  0.500-   4 2.26   7 2.26   6 2.26   8 2.26   5 2.27   3 2.27
  10  0.250  0.750  0.500-   4 2.26   7 2.26   8 2.26   6 2.26   5 2.27   3 2.27
 
  LATTYP: Found a body centered tetragonal cell.
 ALAT       =     6.3819405576
 C/A-ratio  =     1.4226527293
  
  Lattice vectors:
  
 A1 = (   5.5324002327,   0.0000000000,  -3.2195460372)
 A2 = (  -1.8295307356,   5.2211368132,  -3.2195460372)
 A3 = (   0.0000000000,   0.0000000000,   6.4010100000)


Analysis of symmetry for initial positions (statically):
=====================================================================
 Subroutine PRICEL returns following result:
 
  LATTYP: Found a simple tetragonal cell.
 ALAT       =     4.5127125214
 C/A-ratio  =     1.0059675981
  
  Lattice vectors:
  
 A1 = (   3.6809654841,  -2.6105684066,   0.0000000000)
 A2 = (   1.8514347485,   2.6105684066,   3.1814639628)
 A3 = (  -1.8514347485,  -2.6105684066,   3.2195460372)
 
   2 primitive cells build up your supercell.
 

 Routine SETGRP: Setting up the symmetry group for a 
 body centered tetragonal supercell.


 Subroutine GETGRP returns: Found 16 space group operations
 (whereof 16 operations were pure point group operations)
 out of a pool of 16 trial point group operations.


The static configuration has the point symmetry D_4h.


Analysis of symmetry for dynamics (positions and initial velocities):
=====================================================================
 Subroutine PRICEL returns following result:
 
  LATTYP: Found a simple tetragonal cell.
 ALAT       =     4.5127125214
 C/A-ratio  =     1.0059675981
  
  Lattice vectors:
  
 A1 = (   3.6809654841,  -2.6105684066,   0.0000000000)
 A2 = (   1.8514347485,   2.6105684066,   3.1814639628)
 A3 = (  -1.8514347485,  -2.6105684066,   3.2195460372)
 
   2 primitive cells build up your supercell.
 

 Routine SETGRP: Setting up the symmetry group for a 
 body centered tetragonal supercell.


 Subroutine GETGRP returns: Found 16 space group operations
 (whereof 16 operations were pure point group operations)
 out of a pool of 16 trial point group operations.


The dynamic configuration has the point symmetry D_4h.


 Subroutine INISYM returns: Found 16 space group operations
 (whereof 16 operations are pure point group operations),
 and found     2 'primitive' translations


----------------------------------------------------------------------------------------

                                     Primitive cell                                     

  volume of cell :      92.4479

  direct lattice vectors                    reciprocal lattice vectors
     3.680965484 -2.610568407  0.000000000     0.180753372 -0.128191651  0.000000000
     1.851434749  2.610568407  3.181463963     0.090914372  0.128191494  0.156225346
    -1.851434749 -2.610568407  3.219546037    -0.089839001 -0.126675194  0.156225346

  length of vectors
     4.512712521  4.512714369  4.539642576     0.221596212  0.221596121  0.220281659

  position of ions in fractional coordinates (direct lattice)
     0.000000000  1.000000000  0.500000000
     0.500000000  0.500000000  0.000000000
     0.000000000  0.500000000  0.500000000
     0.500000000  0.000000000  0.500000000
     0.500000000  0.500000000  0.500000000

  ion indices of the primitive-cell ions
   primitive index   ion index
                 1           1
                 2           3
                 3           4
                 4           6
                 5           9

----------------------------------------------------------------------------------------

 
 
 KPOINTS: EA                                      

Automatic generation of k-mesh.
 Grid dimensions read from file:
 generate k-points for:    7    7    8

 Generating k-lattice:

  Cartesian coordinates                     Fractional coordinates (reciprocal lattice)
     0.025821910  0.009048217  0.000000000     0.142857143  0.000000000  0.000000000
     0.000000000  0.027361310  0.000000000     0.000000000  0.142857143  0.000000000
     0.011364296  0.016023937  0.019528168     0.000000000  0.000000000  0.125000000

  Length of vectors
     0.027361310  0.027361310  0.027699515

  Shift w.r.t. Gamma in fractional coordinates (k-lattice)
     0.000000000  0.000000000  0.000000000

 -----------------------------------------------------------------------------
|                                                                             |
|           W    W    AA    RRRRR   N    N  II  N    N   GGGG   !!!           |
|           W    W   A  A   R    R  NN   N  II  NN   N  G    G  !!!           |
|           W    W  A    A  R    R  N N  N  II  N N  N  G       !!!           |
|           W WW W  AAAAAA  RRRRR   N  N N  II  N  N N  G  GGG   !            |
|           WW  WW  A    A  R   R   N   NN  II  N   NN  G    G                |
|           W    W  A    A  R    R  N    N  II  N    N   GGGG   !!!           |
|                                                                             |
|     Your reciprocal lattice and k-lattice belong to different lattice       |
|     classes:                                                                |
|                                                                             |
|        The reciprocal lattice is body-centered tetragonal,                  |
|        whereas your k-lattice is base-centered monoclinic.                  |
|                                                                             |
|     Results are often still useful ...                                      |
|                                                                             |
 -----------------------------------------------------------------------------

 WARNING: IBZKPT: internal override: KBLOWUP is changed to .FALSE.
      ... skipping the blow-up phase ...

 
 Subroutine IBZKPT returns following result:
 ===========================================
 
 Found    116 irreducible k-points:
 
 Following reciprocal coordinates:
            Coordinates               Weight
  0.000000  0.000000  0.000000      1.000000
  0.142857  0.000000  0.000000      4.000000
  0.285714 -0.000000  0.000000      4.000000
  0.428571 -0.000000  0.000000      4.000000
  0.142857  0.142857  0.000000      2.000000
  0.285714  0.142857  0.000000      4.000000
  0.428571  0.142857  0.000000      4.000000
 -0.428571  0.142857  0.000000      4.000000
 -0.285714  0.142857  0.000000      4.000000
 -0.142857  0.142857  0.000000      2.000000
  0.285714  0.285714  0.000000      2.000000
  0.428571  0.285714  0.000000      4.000000
 -0.428571  0.285714  0.000000      4.000000
 -0.285714  0.285714  0.000000      2.000000
  0.428571  0.428571  0.000000      2.000000
 -0.428571  0.428571  0.000000      2.000000
 -0.000000 -0.000000  0.125000      2.000000
  0.142857 -0.000000  0.125000      4.000000
  0.285714 -0.000000  0.125000      4.000000
  0.428571 -0.000000  0.125000      4.000000
 -0.428571  0.000000  0.125000      4.000000
 -0.285714 -0.000000  0.125000      4.000000
 -0.142857 -0.000000  0.125000      4.000000
  0.142857  0.142857  0.125000      2.000000
  0.285714  0.142857  0.125000      4.000000
  0.428571  0.142857  0.125000      4.000000
 -0.428571  0.142857  0.125000      4.000000
 -0.285714  0.142857  0.125000      4.000000
 -0.142857  0.142857  0.125000      4.000000
  0.285714  0.285714  0.125000      2.000000
  0.428571  0.285714  0.125000      4.000000
 -0.428571  0.285714  0.125000      4.000000
 -0.285714  0.285714  0.125000      4.000000
 -0.142857  0.285714  0.125000      4.000000
  0.428571  0.428571  0.125000      2.000000
 -0.428571  0.428571  0.125000      4.000000
 -0.285714  0.428571  0.125000      4.000000
 -0.142857  0.428571  0.125000      4.000000
 -0.428571 -0.428571  0.125000      2.000000
 -0.285714 -0.428571  0.125000      4.000000
 -0.142857 -0.428571  0.125000      4.000000
 -0.285714 -0.285714  0.125000      2.000000
 -0.142857 -0.285714  0.125000      4.000000
 -0.142857 -0.142857  0.125000      2.000000
 -0.000000 -0.000000  0.250000      2.000000
  0.142857  0.000000  0.250000      4.000000
  0.285714 -0.000000  0.250000      4.000000
  0.428571 -0.000000  0.250000      4.000000
 -0.428571 -0.000000  0.250000      4.000000
 -0.285714 -0.000000  0.250000      4.000000
 -0.142857 -0.000000  0.250000      4.000000
  0.142857  0.142857  0.250000      2.000000
  0.285714  0.142857  0.250000      4.000000
  0.428571  0.142857  0.250000      4.000000
 -0.428571  0.142857  0.250000      4.000000
 -0.285714  0.142857  0.250000      4.000000
 -0.142857  0.142857  0.250000      4.000000
  0.285714  0.285714  0.250000      2.000000
  0.428571  0.285714  0.250000      4.000000
 -0.428571  0.285714  0.250000      4.000000
 -0.285714  0.285714  0.250000      4.000000
 -0.142857  0.285714  0.250000      4.000000
  0.428571  0.428571  0.250000      2.000000
 -0.428571  0.428571  0.250000      4.000000
 -0.285714  0.428571  0.250000      4.000000
 -0.142857  0.428571  0.250000      4.000000
 -0.428571 -0.428571  0.250000      2.000000
 -0.285714 -0.428571  0.250000      4.000000
 -0.142857 -0.428571  0.250000      4.000000
 -0.285714 -0.285714  0.250000      2.000000
 -0.142857 -0.285714  0.250000      4.000000
 -0.142857 -0.142857  0.250000      2.000000
  0.000000 -0.000000  0.375000      2.000000
  0.142857  0.000000  0.375000      4.000000
  0.285714 -0.000000  0.375000      4.000000
  0.428571 -0.000000  0.375000      4.000000
 -0.428571 -0.000000  0.375000      4.000000
 -0.285714 -0.000000  0.375000      4.000000
 -0.142857  0.000000  0.375000      4.000000
  0.142857  0.142857  0.375000      2.000000
  0.285714  0.142857  0.375000      4.000000
  0.428571  0.142857  0.375000      4.000000
 -0.428571  0.142857  0.375000      4.000000
 -0.285714  0.142857  0.375000      4.000000
 -0.142857  0.142857  0.375000      4.000000
  0.285714  0.285714  0.375000      2.000000
  0.428571  0.285714  0.375000      4.000000
 -0.428571  0.285714  0.375000      4.000000
 -0.285714  0.285714  0.375000      4.000000
 -0.142857  0.285714  0.375000      4.000000
  0.428571  0.428571  0.375000      2.000000
 -0.428571  0.428571  0.375000      4.000000
 -0.285714  0.428571  0.375000      4.000000
 -0.142857  0.428571  0.375000      4.000000
 -0.428571 -0.428571  0.375000      2.000000
 -0.285714 -0.428571  0.375000      4.000000
 -0.142857 -0.428571  0.375000      4.000000
 -0.285714 -0.285714  0.375000      2.000000
 -0.142857 -0.285714  0.375000      4.000000
 -0.142857 -0.142857  0.375000      2.000000
 -0.000000 -0.000000  0.500000      1.000000
  0.142857 -0.000000  0.500000      4.000000
  0.285714 -0.000000  0.500000      4.000000
  0.428571 -0.000000  0.500000      4.000000
  0.142857  0.142857  0.500000      2.000000
  0.285714  0.142857  0.500000      4.000000
  0.428571  0.142857  0.500000      4.000000
 -0.428571  0.142857  0.500000      4.000000
 -0.285714  0.142857  0.500000      4.000000
 -0.142857  0.142857  0.500000      2.000000
  0.285714  0.285714  0.500000      2.000000
  0.428571  0.285714  0.500000      4.000000
 -0.428571  0.285714  0.500000      4.000000
 -0.285714  0.285714  0.500000      2.000000
  0.428571  0.428571  0.500000      2.000000
 -0.428571  0.428571  0.500000      2.000000
 
 Following cartesian coordinates:
            Coordinates               Weight
  0.000000  0.000000  0.000000      1.000000
  0.025822  0.009048  0.000000      4.000000
  0.051644  0.018096  0.000000      4.000000
  0.077466  0.027145  0.000000      4.000000
  0.025822  0.036410  0.000000      2.000000
  0.051644  0.045458  0.000000      4.000000
  0.077466  0.054506  0.000000      4.000000
 -0.077466  0.000217  0.000000      4.000000
 -0.051644  0.009265  0.000000      4.000000
 -0.025822  0.018313  0.000000      2.000000
  0.051644  0.072819  0.000000      2.000000
  0.077466  0.081867  0.000000      4.000000
 -0.077466  0.027578  0.000000      4.000000
 -0.051644  0.036626  0.000000      2.000000
  0.077466  0.109229  0.000000      2.000000
 -0.077466  0.054939  0.000000      2.000000
  0.011364  0.016024  0.019528      2.000000
  0.037186  0.025072  0.019528      4.000000
  0.063008  0.034120  0.019528      4.000000
  0.088830  0.043169  0.019528      4.000000
 -0.066101 -0.011121  0.019528      4.000000
 -0.040280 -0.002072  0.019528      4.000000
 -0.014458  0.006976  0.019528      4.000000
  0.037186  0.052433  0.019528      2.000000
  0.063008  0.061482  0.019528      4.000000
  0.088830  0.070530  0.019528      4.000000
 -0.066101  0.016241  0.019528      4.000000
 -0.040280  0.025289  0.019528      4.000000
 -0.014458  0.034337  0.019528      4.000000
  0.063008  0.088843  0.019528      2.000000
  0.088830  0.097891  0.019528      4.000000
 -0.066101  0.043602  0.019528      4.000000
 -0.040280  0.052650  0.019528      4.000000
 -0.014458  0.061698  0.019528      4.000000
  0.088830  0.125253  0.019528      2.000000
 -0.066101  0.070963  0.019528      4.000000
 -0.040280  0.080011  0.019528      4.000000
 -0.014458  0.089060  0.019528      4.000000
 -0.066101 -0.093205  0.019528      2.000000
 -0.040280 -0.084156  0.019528      4.000000
 -0.014458 -0.075108  0.019528      4.000000
 -0.040280 -0.056795  0.019528      2.000000
 -0.014458 -0.047747  0.019528      4.000000
 -0.014458 -0.020386  0.019528      2.000000
  0.022729  0.032048  0.039056      2.000000
  0.048551  0.041096  0.039056      4.000000
  0.074372  0.050144  0.039056      4.000000
  0.100194  0.059193  0.039056      4.000000
 -0.054737  0.004903  0.039056      4.000000
 -0.028915  0.013951  0.039056      4.000000
 -0.003093  0.023000  0.039056      4.000000
  0.048551  0.068457  0.039056      2.000000
  0.074372  0.077506  0.039056      4.000000
  0.100194  0.086554  0.039056      4.000000
 -0.054737  0.032265  0.039056      4.000000
 -0.028915  0.041313  0.039056      4.000000
 -0.003093  0.050361  0.039056      4.000000
  0.074372  0.104867  0.039056      2.000000
  0.100194  0.113915  0.039056      4.000000
 -0.054737  0.059626  0.039056      4.000000
 -0.028915  0.068674  0.039056      4.000000
 -0.003093  0.077722  0.039056      4.000000
  0.100194  0.141276  0.039056      2.000000
 -0.054737  0.086987  0.039056      4.000000
 -0.028915  0.096035  0.039056      4.000000
 -0.003093  0.105084  0.039056      4.000000
 -0.054737 -0.077181  0.039056      2.000000
 -0.028915 -0.068132  0.039056      4.000000
 -0.003093 -0.059084  0.039056      4.000000
 -0.028915 -0.040771  0.039056      2.000000
 -0.003093 -0.031723  0.039056      4.000000
 -0.003093 -0.004362  0.039056      2.000000
  0.034093  0.048072  0.058585      2.000000
  0.059915  0.057120  0.058585      4.000000
  0.085737  0.066168  0.058585      4.000000
  0.111559  0.075216  0.058585      4.000000
 -0.043373  0.020927  0.058585      4.000000
 -0.017551  0.029975  0.058585      4.000000
  0.008271  0.039024  0.058585      4.000000
  0.059915  0.084481  0.058585      2.000000
  0.085737  0.093530  0.058585      4.000000
  0.111559  0.102578  0.058585      4.000000
 -0.043373  0.048288  0.058585      4.000000
 -0.017551  0.057337  0.058585      4.000000
  0.008271  0.066385  0.058585      4.000000
  0.085737  0.120891  0.058585      2.000000
  0.111559  0.129939  0.058585      4.000000
 -0.043373  0.075650  0.058585      4.000000
 -0.017551  0.084698  0.058585      4.000000
  0.008271  0.093746  0.058585      4.000000
  0.111559  0.157300  0.058585      2.000000
 -0.043373  0.103011  0.058585      4.000000
 -0.017551  0.112059  0.058585      4.000000
  0.008271  0.121108  0.058585      4.000000
 -0.043373 -0.061157  0.058585      2.000000
 -0.017551 -0.052109  0.058585      4.000000
  0.008271 -0.043060  0.058585      4.000000
 -0.017551 -0.024747  0.058585      2.000000
  0.008271 -0.015699  0.058585      4.000000
  0.008271  0.011662  0.058585      2.000000
  0.045457  0.064096  0.078113      1.000000
  0.071279  0.073144  0.078113      4.000000
  0.097101  0.082192  0.078113      4.000000
  0.122923  0.091240  0.078113      4.000000
  0.071279  0.100505  0.078113      2.000000
  0.097101  0.109553  0.078113      4.000000
  0.122923  0.118602  0.078113      4.000000
 -0.032009  0.064312  0.078113      4.000000
 -0.006187  0.073361  0.078113      4.000000
  0.019635  0.082409  0.078113      2.000000
  0.097101  0.136915  0.078113      2.000000
  0.122923  0.145963  0.078113      4.000000
 -0.032009  0.091674  0.078113      4.000000
 -0.006187  0.100722  0.078113      2.000000
  0.122923  0.173324  0.078113      2.000000
 -0.032009  0.119035  0.078113      2.000000
 


--------------------------------------------------------------------------------------------------------




 Dimension of arrays:
   k-points           NKPTS =    116   k-points in BZ     NKDIM =    116   number of bands    NBANDS=     60
   number of dos      NEDOS =    301   number of ions     NIONS =     10
   non local maximal  LDIM  =      6   non local SUM 2l+1 LMDIM =     18
   total plane-waves  NPLWV = 157464
   max r-space proj   IRMAX =      1   max aug-charges    IRDMAX= 298112
   dimension x,y,z NGX =    54 NGY =   54 NGZ =   54
   dimension x,y,z NGXF=   108 NGYF=  108 NGZF=  108
   support grid    NGXF=   216 NGYF=  216 NGZF=  216
   ions per type =               2   6   2
   NGX,Y,Z   is equivalent  to a cutoff of  14.02, 14.02, 14.02 a.u.
   NGXF,Y,Z  is equivalent  to a cutoff of  28.05, 28.05, 28.05 a.u.

 SYSTEM =  routine with relax: pwdword             
 POSCAR =  EA183                                   

 Startparameter for this run:
   NWRITE =      2    write-flag & timer
   PREC   = acc       normal or accurate (medium, high low for compatibility)
   ISTART =      0    job   : 0-new  1-cont  2-samecut
   ICHARG =      2    charge: 1-file 2-atom 10-const
   ISPIN  =      1    spin polarized calculation?
   LNONCOLLINEAR =      F non collinear calculations
   LSORBIT =      F    spin-orbit coupling
   INIWAV =      1    electr: 0-lowe 1-rand  2-diag
   LASPH  =      T    aspherical Exc in radial PAW
   METAGGA=      F    non-selfconsistent MetaGGA calc.

 Electronic Relaxation 1
   ENCUT  =  600.0 eV  44.10 Ry    6.64 a.u.  12.78 12.78 12.78*2*pi/ulx,y,z
   ENINI  =  600.0     initial cutoff
   ENAUG  =  535.5 eV  augmentation charge cutoff
   NELM   =    100;   NELMIN=  6; NELMDL= -5     # of ELM steps 
   EDIFF  = 0.1E-08   stopping-criterion for ELM
   LREAL  =      F    real-space projection
   NLSPLINE    = F    spline interpolate recip. space projectors
   LCOMPAT=      F    compatible to vasp.4.4
   GGA_COMPAT  = T    GGA compatible to vasp.4.4-vasp.4.6
   LMAXPAW     = -100 max onsite density
   LMAXMIX     =    2 max onsite mixed and CHGCAR
   VOSKOWN=      0    Vosko Wilk Nusair interpolation
   ROPT   =    0.00000   0.00000   0.00000
 Ionic relaxation
   EDIFFG = 0.1E-07   stopping-criterion for IOM
   NSW    =      0    number of steps for IOM
   NBLOCK =      1;   KBLOCK =      1    inner block; outer block 
   IBRION =     -1    ionic relax: 0-MD 1-quasi-New 2-CG
   NFREE  =      0    steps in history (QN), initial steepest desc. (CG)
   ISIF   =     -1    stress and relaxation
   IWAVPR =     10    prediction:  0-non 1-charg 2-wave 3-comb
   ISYM   =      2    0-nonsym 1-usesym 2-fastsym
   LCORR  =      T    Harris-Foulkes like correction to forces

   POTIM  = 0.5000    time-step for ionic-motion
   TEIN   =    0.0    initial temperature
   TEBEG  =    0.0;   TEEND  =   0.0 temperature during run
   SMASS  =  -3.00    Nose mass-parameter (am)
   estimated Nose-frequenzy (Omega)   =  0.10E-29 period in steps = 0.13E+47 mass=  -0.936E-27a.u.
   SCALEE = 1.0000    scale energy and forces
   NPACO  =    256;   APACO  = 16.0  distance and # of slots for P.C.
   PSTRESS=    0.0 pullay stress

  Mass of Ions in am
   POMASS =  10.81 95.94 28.09
  Ionic Valenz
   ZVAL   =   3.00 14.00  4.00
  Atomic Wigner-Seitz radii
   RWIGS  =  -1.00 -1.00 -1.00
  virtual crystal weights 
   VCA    =   1.00  1.00  1.00
   NELECT =      98.0000    total number of electrons
   NUPDOWN=      -1.0000    fix difference up-down

 DOS related values:
   EMIN   =  10.00;   EMAX   =-10.00  energy-range for DOS
   EFERMI =   0.00
   ISMEAR =     0;   SIGMA  =   0.02  broadening in eV -4-tet -1-fermi 0-gaus

 Electronic relaxation 2 (details)
   IALGO  =     58    algorithm
   LDIAG  =      T    sub-space diagonalisation (order eigenvalues)
   LSUBROT=      F    optimize rotation matrix (better conditioning)
   TURBO    =      0    0=normal 1=particle mesh
   IRESTART =      0    0=no restart 2=restart with 2 vectors
   NREBOOT  =      0    no. of reboots
   NMIN     =      0    reboot dimension
   EREF     =   0.00    reference energy to select bands
   IMIX   =      4    mixing-type and parameters
     AMIX     =   0.40;   BMIX     =  1.00
     AMIX_MAG =   1.60;   BMIX_MAG =  1.00
     AMIN     =   0.10
     WC   =   100.;   INIMIX=   1;  MIXPRE=   1;  MAXMIX= -45

 Intra band minimization:
   WEIMIN = 0.0000     energy-eigenvalue tresh-hold
   EBREAK =  0.42E-11  absolut break condition
   DEPER  =   0.30     relativ break condition  

   TIME   =   0.40     timestep for ELM

  volume/ion in A,a.u.               =      18.49       124.77
  Fermi-wavevector in a.u.,A,eV,Ry     =   1.324874  2.503648 23.882173  1.755290
  Thomas-Fermi vector in A             =   2.454376
 
 Write flags
   LWAVE        =      T    write WAVECAR
   LDOWNSAMPLE  =      F    k-point downsampling of WAVECAR
   LCHARG       =      T    write CHGCAR
   LVTOT        =      F    write LOCPOT, total local potential
   LVHAR        =      F    write LOCPOT, Hartree potential only
   LELF         =      F    write electronic localiz. function (ELF)
   LORBIT       =      0    0 simple, 1 ext, 2 COOP (PROOUT), +10 PAW based schemes


 Dipole corrections
   LMONO  =      F    monopole corrections only (constant potential shift)
   LDIPOL =      F    correct potential (dipole corrections)
   IDIPOL =      0    1-x, 2-y, 3-z, 4-all directions 
   EPSILON=  1.0000000 bulk dielectric constant

 Exchange correlation treatment:
   GGA     =    --    GGA type
   LEXCH   =     8    internal setting for exchange type
   VOSKOWN=      0    Vosko Wilk Nusair interpolation
   LHFCALC =     F    Hartree Fock is set to
   LHFONE  =     F    Hartree Fock one center treatment
   AEXX    =    0.0000 exact exchange contribution

 Linear response parameters
   LEPSILON=     F    determine dielectric tensor
   LRPA    =     F    only Hartree local field effects (RPA)
   LNABLA  =     F    use nabla operator in PAW spheres
   LVEL    =     F    velocity operator in full k-point grid
   LINTERFAST=   F  fast interpolation
   KINTER  =     0    interpolate to denser k-point grid
   CSHIFT  =0.1000    complex shift for real part using Kramers Kronig
   OMEGAMAX=  -1.0    maximum frequency
   DEG_THRESHOLD= 0.2000000E-02 threshold for treating states as degnerate
   RTIME   =   -0.100 relaxation time in fs
  (WPLASMAI=    0.000 imaginary part of plasma frequency in eV, 0.658/RTIME)
   DFIELD  = 0.0000000 0.0000000 0.0000000 field for delta impulse in time
 
 Orbital magnetization related:
   ORBITALMAG=     F  switch on orbital magnetization
   LCHIMAG   =     F  perturbation theory with respect to B field
   DQ        =  0.001000  dq finite difference perturbation B field
   LLRAUG    =     F  two centre corrections for induced B field



--------------------------------------------------------------------------------------------------------


 Static calculation
 charge density and potential will be updated during run
 non-spin polarized calculation
 Conjugate gradient for all bands (Freysoldt, et al. PRB 79, 241103 (2009))
 preconditioned conjugated gradient                                        
 perform sub-space diagonalisation
    before iterative eigenvector-optimisation
 modified Broyden-mixing scheme, WC =      100.0
 initial mixing is a Kerker type mixing with AMIX =  0.4000 and BMIX =      1.0000
 Hartree-type preconditioning will be used
 using additional bands           11
 reciprocal scheme for non local part
 use partial core corrections
 no Harris-corrections to forces 
 use gradient corrections 
 use of overlap-Matrix (Vanderbilt PP)
 Gauss-broadening in eV      SIGMA  =   0.02


--------------------------------------------------------------------------------------------------------


  energy-cutoff  :      600.00
  volume of cell :      184.90
      direct lattice vectors                 reciprocal lattice vectors
     5.532400233  0.000000000 -3.219546037     0.180753372  0.063337519  0.000000000
    -1.829530736  5.221136813 -3.219546037     0.000000000  0.191529170  0.000000000
     0.000000000  0.000000000  6.401010000     0.090914372  0.128191494  0.156225346

  length of vectors
     6.401010000  6.401010000  6.401010000     0.191529170  0.191529170  0.221596121


 
 k-points in units of 2pi/SCALE and weight: EA                                      
   0.00000000  0.00000000  0.00000000       0.003
   0.02582191  0.00904822  0.00000000       0.010
   0.05164382  0.01809643  0.00000000       0.010
   0.07746573  0.02714465  0.00000000       0.010
   0.02582191  0.03640953  0.00000000       0.005
   0.05164382  0.04545774  0.00000000       0.010
   0.07746573  0.05450596  0.00000000       0.010
  -0.07746573  0.00021666  0.00000000       0.010
  -0.05164382  0.00926488  0.00000000       0.010
  -0.02582191  0.01831309  0.00000000       0.005
   0.05164382  0.07281905  0.00000000       0.005
   0.07746573  0.08186727  0.00000000       0.010
  -0.07746573  0.02757797  0.00000000       0.010
  -0.05164382  0.03662619  0.00000000       0.005
   0.07746573  0.10922858  0.00000000       0.005
  -0.07746573  0.05493928  0.00000000       0.005
   0.01136430  0.01602394  0.01952817       0.005
   0.03718621  0.02507215  0.01952817       0.010
   0.06300812  0.03412037  0.01952817       0.010
   0.08883003  0.04316859  0.01952817       0.010
  -0.06610143 -0.01112071  0.01952817       0.010
  -0.04027952 -0.00207250  0.01952817       0.010
  -0.01445761  0.00697572  0.01952817       0.010
   0.03718621  0.05243346  0.01952817       0.005
   0.06300812  0.06148168  0.01952817       0.010
   0.08883003  0.07052990  0.01952817       0.010
  -0.06610143  0.01624060  0.01952817       0.010
  -0.04027952  0.02528881  0.01952817       0.010
  -0.01445761  0.03433703  0.01952817       0.010
   0.06300812  0.08884299  0.01952817       0.005
   0.08883003  0.09789121  0.01952817       0.010
  -0.06610143  0.04360191  0.01952817       0.010
  -0.04027952  0.05265012  0.01952817       0.010
  -0.01445761  0.06169834  0.01952817       0.010
   0.08883003  0.12525252  0.01952817       0.005
  -0.06610143  0.07096322  0.01952817       0.010
  -0.04027952  0.08001143  0.01952817       0.010
  -0.01445761  0.08905965  0.01952817       0.010
  -0.06610143 -0.09320464  0.01952817       0.005
  -0.04027952 -0.08415643  0.01952817       0.010
  -0.01445761 -0.07510821  0.01952817       0.010
  -0.04027952 -0.05679512  0.01952817       0.005
  -0.01445761 -0.04774690  0.01952817       0.010
  -0.01445761 -0.02038559  0.01952817       0.005
   0.02272859  0.03204787  0.03905634       0.005
   0.04855050  0.04109609  0.03905634       0.010
   0.07437241  0.05014431  0.03905634       0.010
   0.10019432  0.05919252  0.03905634       0.010
  -0.05473714  0.00490322  0.03905634       0.010
  -0.02891523  0.01395144  0.03905634       0.010
  -0.00309332  0.02299966  0.03905634       0.010
   0.04855050  0.06845740  0.03905634       0.005
   0.07437241  0.07750562  0.03905634       0.010
   0.10019432  0.08655383  0.03905634       0.010
  -0.05473714  0.03226453  0.03905634       0.010
  -0.02891523  0.04131275  0.03905634       0.010
  -0.00309332  0.05036097  0.03905634       0.010
   0.07437241  0.10486693  0.03905634       0.005
   0.10019432  0.11391514  0.03905634       0.010
  -0.05473714  0.05962584  0.03905634       0.010
  -0.02891523  0.06867406  0.03905634       0.010
  -0.00309332  0.07772228  0.03905634       0.010
   0.10019432  0.14127645  0.03905634       0.005
  -0.05473714  0.08698715  0.03905634       0.010
  -0.02891523  0.09603537  0.03905634       0.010
  -0.00309332  0.10508359  0.03905634       0.010
  -0.05473714 -0.07718071  0.03905634       0.005
  -0.02891523 -0.06813249  0.03905634       0.010
  -0.00309332 -0.05908427  0.03905634       0.010
  -0.02891523 -0.04077118  0.03905634       0.005
  -0.00309332 -0.03172296  0.03905634       0.010
  -0.00309332 -0.00436165  0.03905634       0.005
   0.03409289  0.04807181  0.05858450       0.005
   0.05991480  0.05712003  0.05858450       0.010
   0.08573671  0.06616824  0.05858450       0.010
   0.11155862  0.07521646  0.05858450       0.010
  -0.04337284  0.02092716  0.05858450       0.010
  -0.01755093  0.02997538  0.05858450       0.010
   0.00827098  0.03902359  0.05858450       0.010
   0.05991480  0.08448134  0.05858450       0.005
   0.08573671  0.09352955  0.05858450       0.010
   0.11155862  0.10257777  0.05858450       0.010
  -0.04337284  0.04828847  0.05858450       0.010
  -0.01755093  0.05733669  0.05858450       0.010
   0.00827098  0.06638490  0.05858450       0.010
   0.08573671  0.12089086  0.05858450       0.005
   0.11155862  0.12993908  0.05858450       0.010
  -0.04337284  0.07564978  0.05858450       0.010
  -0.01755093  0.08469800  0.05858450       0.010
   0.00827098  0.09374621  0.05858450       0.010
   0.11155862  0.15730039  0.05858450       0.005
  -0.04337284  0.10301109  0.05858450       0.010
  -0.01755093  0.11205931  0.05858450       0.010
   0.00827098  0.12110752  0.05858450       0.010
  -0.04337284 -0.06115677  0.05858450       0.005
  -0.01755093 -0.05210855  0.05858450       0.010
   0.00827098 -0.04306034  0.05858450       0.010
  -0.01755093 -0.02474724  0.05858450       0.005
   0.00827098 -0.01569903  0.05858450       0.010
   0.00827098  0.01166228  0.05858450       0.005
   0.04545719  0.06409575  0.07811267       0.003
   0.07127910  0.07314396  0.07811267       0.010
   0.09710101  0.08219218  0.07811267       0.010
   0.12292292  0.09124040  0.07811267       0.010
   0.07127910  0.10050527  0.07811267       0.005
   0.09710101  0.10955349  0.07811267       0.010
   0.12292292  0.11860171  0.07811267       0.010
  -0.03200855  0.06431241  0.07811267       0.010
  -0.00618663  0.07336062  0.07811267       0.010
   0.01963528  0.08240884  0.07811267       0.005
   0.09710101  0.13691480  0.07811267       0.005
   0.12292292  0.14596302  0.07811267       0.010
  -0.03200855  0.09167372  0.07811267       0.010
  -0.00618663  0.10072193  0.07811267       0.005
   0.12292292  0.17332433  0.07811267       0.005
  -0.03200855  0.11903503  0.07811267       0.005
 
 k-points in reciprocal lattice and weights: EA                                      
   0.00000000  0.00000000  0.00000000       0.003
   0.14285714  0.00000000  0.00000000       0.010
   0.28571429 -0.00000000  0.00000000       0.010
   0.42857143 -0.00000000  0.00000000       0.010
   0.14285714  0.14285714  0.00000000       0.005
   0.28571429  0.14285714  0.00000000       0.010
   0.42857143  0.14285714  0.00000000       0.010
  -0.42857143  0.14285714  0.00000000       0.010
  -0.28571429  0.14285714  0.00000000       0.010
  -0.14285714  0.14285714  0.00000000       0.005
   0.28571429  0.28571429  0.00000000       0.005
   0.42857143  0.28571429  0.00000000       0.010
  -0.42857143  0.28571429  0.00000000       0.010
  -0.28571429  0.28571429  0.00000000       0.005
   0.42857143  0.42857143  0.00000000       0.005
  -0.42857143  0.42857143  0.00000000       0.005
  -0.00000000 -0.00000000  0.12500000       0.005
   0.14285714 -0.00000000  0.12500000       0.010
   0.28571429 -0.00000000  0.12500000       0.010
   0.42857143 -0.00000000  0.12500000       0.010
  -0.42857143  0.00000000  0.12500000       0.010
  -0.28571429 -0.00000000  0.12500000       0.010
  -0.14285714 -0.00000000  0.12500000       0.010
   0.14285714  0.14285714  0.12500000       0.005
   0.28571429  0.14285714  0.12500000       0.010
   0.42857143  0.14285714  0.12500000       0.010
  -0.42857143  0.14285714  0.12500000       0.010
  -0.28571429  0.14285714  0.12500000       0.010
  -0.14285714  0.14285714  0.12500000       0.010
   0.28571429  0.28571429  0.12500000       0.005
   0.42857143  0.28571429  0.12500000       0.010
  -0.42857143  0.28571429  0.12500000       0.010
  -0.28571429  0.28571429  0.12500000       0.010
  -0.14285714  0.28571429  0.12500000       0.010
   0.42857143  0.42857143  0.12500000       0.005
  -0.42857143  0.42857143  0.12500000       0.010
  -0.28571429  0.42857143  0.12500000       0.010
  -0.14285714  0.42857143  0.12500000       0.010
  -0.42857143 -0.42857143  0.12500000       0.005
  -0.28571429 -0.42857143  0.12500000       0.010
  -0.14285714 -0.42857143  0.12500000       0.010
  -0.28571429 -0.28571429  0.12500000       0.005
  -0.14285714 -0.28571429  0.12500000       0.010
  -0.14285714 -0.14285714  0.12500000       0.005
  -0.00000000 -0.00000000  0.25000000       0.005
   0.14285714  0.00000000  0.25000000       0.010
   0.28571429 -0.00000000  0.25000000       0.010
   0.42857143 -0.00000000  0.25000000       0.010
  -0.42857143 -0.00000000  0.25000000       0.010
  -0.28571429 -0.00000000  0.25000000       0.010
  -0.14285714 -0.00000000  0.25000000       0.010
   0.14285714  0.14285714  0.25000000       0.005
   0.28571429  0.14285714  0.25000000       0.010
   0.42857143  0.14285714  0.25000000       0.010
  -0.42857143  0.14285714  0.25000000       0.010
  -0.28571429  0.14285714  0.25000000       0.010
  -0.14285714  0.14285714  0.25000000       0.010
   0.28571429  0.28571429  0.25000000       0.005
   0.42857143  0.28571429  0.25000000       0.010
  -0.42857143  0.28571429  0.25000000       0.010
  -0.28571429  0.28571429  0.25000000       0.010
  -0.14285714  0.28571429  0.25000000       0.010
   0.42857143  0.42857143  0.25000000       0.005
  -0.42857143  0.42857143  0.25000000       0.010
  -0.28571429  0.42857143  0.25000000       0.010
  -0.14285714  0.42857143  0.25000000       0.010
  -0.42857143 -0.42857143  0.25000000       0.005
  -0.28571429 -0.42857143  0.25000000       0.010
  -0.14285714 -0.42857143  0.25000000       0.010
  -0.28571429 -0.28571429  0.25000000       0.005
  -0.14285714 -0.28571429  0.25000000       0.010
  -0.14285714 -0.14285714  0.25000000       0.005
   0.00000000 -0.00000000  0.37500000       0.005
   0.14285714  0.00000000  0.37500000       0.010
   0.28571429 -0.00000000  0.37500000       0.010
   0.42857143 -0.00000000  0.37500000       0.010
  -0.42857143 -0.00000000  0.37500000       0.010
  -0.28571429 -0.00000000  0.37500000       0.010
  -0.14285714  0.00000000  0.37500000       0.010
   0.14285714  0.14285714  0.37500000       0.005
   0.28571429  0.14285714  0.37500000       0.010
   0.42857143  0.14285714  0.37500000       0.010
  -0.42857143  0.14285714  0.37500000       0.010
  -0.28571429  0.14285714  0.37500000       0.010
  -0.14285714  0.14285714  0.37500000       0.010
   0.28571429  0.28571429  0.37500000       0.005
   0.42857143  0.28571429  0.37500000       0.010
  -0.42857143  0.28571429  0.37500000       0.010
  -0.28571429  0.28571429  0.37500000       0.010
  -0.14285714  0.28571429  0.37500000       0.010
   0.42857143  0.42857143  0.37500000       0.005
  -0.42857143  0.42857143  0.37500000       0.010
  -0.28571429  0.42857143  0.37500000       0.010
  -0.14285714  0.42857143  0.37500000       0.010
  -0.42857143 -0.42857143  0.37500000       0.005
  -0.28571429 -0.42857143  0.37500000       0.010
  -0.14285714 -0.42857143  0.37500000       0.010
  -0.28571429 -0.28571429  0.37500000       0.005
  -0.14285714 -0.28571429  0.37500000       0.010
  -0.14285714 -0.14285714  0.37500000       0.005
  -0.00000000 -0.00000000  0.50000000       0.003
   0.14285714 -0.00000000  0.50000000       0.010
   0.28571429 -0.00000000  0.50000000       0.010
   0.42857143 -0.00000000  0.50000000       0.010
   0.14285714  0.14285714  0.50000000       0.005
   0.28571429  0.14285714  0.50000000       0.010
   0.42857143  0.14285714  0.50000000       0.010
  -0.42857143  0.14285714  0.50000000       0.010
  -0.28571429  0.14285714  0.50000000       0.010
  -0.14285714  0.14285714  0.50000000       0.005
   0.28571429  0.28571429  0.50000000       0.005
   0.42857143  0.28571429  0.50000000       0.010
  -0.42857143  0.28571429  0.50000000       0.010
  -0.28571429  0.28571429  0.50000000       0.005
   0.42857143  0.42857143  0.50000000       0.005
  -0.42857143  0.42857143  0.50000000       0.005
 
 position of ions in fractional coordinates (direct lattice) 
   0.25000000  0.25000000  0.00000000
   0.75000000  0.75000000  0.00000000
   0.50000000  0.00000000  0.50000000
   0.00000000  0.00000000  0.50000000
   0.00000000  0.50000000  0.50000000
   0.00000000  0.50000000  0.00000000
   0.50000000  0.50000000  0.50000000
   0.50000000  0.00000000  0.00000000
   0.75000000  0.25000000  0.50000000
   0.25000000  0.75000000  0.50000000
 
 position of ions in cartesian coordinates  (Angst):
   0.92571737  1.30528420 -1.60977302
   2.77715212  3.91585261 -4.82931906
   2.76620012  0.00000000  1.59073198
   0.00000000  0.00000000  3.20050500
  -0.91476537  2.61056841  1.59073198
  -0.91476537  2.61056841 -1.60977302
   1.85143475  2.61056841 -0.01904104
   2.76620012  0.00000000 -1.60977302
   3.69191749  1.30528420 -0.01904104
   0.01095201  3.91585261 -0.01904104
 


--------------------------------------------------------------------------------------------------------


 k-point   1 :   0.0000 0.0000 0.0000  plane waves:    6191
 k-point   2 :   0.1429 0.0000 0.0000  plane waves:    6153
 k-point   3 :   0.2857-0.0000 0.0000  plane waves:    6172
 k-point   4 :   0.4286-0.0000 0.0000  plane waves:    6189
 k-point   5 :   0.1429 0.1429 0.0000  plane waves:    6160
 k-point   6 :   0.2857 0.1429 0.0000  plane waves:    6171
 k-point   7 :   0.4286 0.1429 0.0000  plane waves:    6176
 k-point   8 :  -0.4286 0.1429 0.0000  plane waves:    6183
 k-point   9 :  -0.2857 0.1429 0.0000  plane waves:    6173
 k-point  10 :  -0.1429 0.1429 0.0000  plane waves:    6164
 k-point  11 :   0.2857 0.2857 0.0000  plane waves:    6172
 k-point  12 :   0.4286 0.2857 0.0000  plane waves:    6171
 k-point  13 :  -0.4286 0.2857 0.0000  plane waves:    6182
 k-point  14 :  -0.2857 0.2857 0.0000  plane waves:    6178
 k-point  15 :   0.4286 0.4286 0.0000  plane waves:    6164
 k-point  16 :  -0.4286 0.4286 0.0000  plane waves:    6176
 k-point  17 :  -0.0000-0.0000 0.1250  plane waves:    6164
 k-point  18 :   0.1429-0.0000 0.1250  plane waves:    6168
 k-point  19 :   0.2857-0.0000 0.1250  plane waves:    6179
 k-point  20 :   0.4286-0.0000 0.1250  plane waves:    6173
 k-point  21 :  -0.4286 0.0000 0.1250  plane waves:    6177
 k-point  22 :  -0.2857-0.0000 0.1250  plane waves:    6160
 k-point  23 :  -0.1429-0.0000 0.1250  plane waves:    6157
 k-point  24 :   0.1429 0.1429 0.1250  plane waves:    6173
 k-point  25 :   0.2857 0.1429 0.1250  plane waves:    6172
 k-point  26 :   0.4286 0.1429 0.1250  plane waves:    6170
 k-point  27 :  -0.4286 0.1429 0.1250  plane waves:    6171
 k-point  28 :  -0.2857 0.1429 0.1250  plane waves:    6164
 k-point  29 :  -0.1429 0.1429 0.1250  plane waves:    6156
 k-point  30 :   0.2857 0.2857 0.1250  plane waves:    6166
 k-point  31 :   0.4286 0.2857 0.1250  plane waves:    6163
 k-point  32 :  -0.4286 0.2857 0.1250  plane waves:    6183
 k-point  33 :  -0.2857 0.2857 0.1250  plane waves:    6178
 k-point  34 :  -0.1429 0.2857 0.1250  plane waves:    6165
 k-point  35 :   0.4286 0.4286 0.1250  plane waves:    6166
 k-point  36 :  -0.4286 0.4286 0.1250  plane waves:    6162
 k-point  37 :  -0.2857 0.4286 0.1250  plane waves:    6166
 k-point  38 :  -0.1429 0.4286 0.1250  plane waves:    6176
 k-point  39 :  -0.4286-0.4286 0.1250  plane waves:    6153
 k-point  40 :  -0.2857-0.4286 0.1250  plane waves:    6169
 k-point  41 :  -0.1429-0.4286 0.1250  plane waves:    6179
 k-point  42 :  -0.2857-0.2857 0.1250  plane waves:    6169
 k-point  43 :  -0.1429-0.2857 0.1250  plane waves:    6171
 k-point  44 :  -0.1429-0.1429 0.1250  plane waves:    6148
 k-point  45 :  -0.0000-0.0000 0.2500  plane waves:    6166
 k-point  46 :   0.1429 0.0000 0.2500  plane waves:    6179
 k-point  47 :   0.2857-0.0000 0.2500  plane waves:    6173
 k-point  48 :   0.4286-0.0000 0.2500  plane waves:    6171
 k-point  49 :  -0.4286-0.0000 0.2500  plane waves:    6166
 k-point  50 :  -0.2857-0.0000 0.2500  plane waves:    6162
 k-point  51 :  -0.1429-0.0000 0.2500  plane waves:    6160
 k-point  52 :   0.1429 0.1429 0.2500  plane waves:    6165
 k-point  53 :   0.2857 0.1429 0.2500  plane waves:    6161
 k-point  54 :   0.4286 0.1429 0.2500  plane waves:    6168
 k-point  55 :  -0.4286 0.1429 0.2500  plane waves:    6188
 k-point  56 :  -0.2857 0.1429 0.2500  plane waves:    6167
 k-point  57 :  -0.1429 0.1429 0.2500  plane waves:    6180
 k-point  58 :   0.2857 0.2857 0.2500  plane waves:    6164
 k-point  59 :   0.4286 0.2857 0.2500  plane waves:    6161
 k-point  60 :  -0.4286 0.2857 0.2500  plane waves:    6170
 k-point  61 :  -0.2857 0.2857 0.2500  plane waves:    6174
 k-point  62 :  -0.1429 0.2857 0.2500  plane waves:    6181
 k-point  63 :   0.4286 0.4286 0.2500  plane waves:    6156
 k-point  64 :  -0.4286 0.4286 0.2500  plane waves:    6159
 k-point  65 :  -0.2857 0.4286 0.2500  plane waves:    6174
 k-point  66 :  -0.1429 0.4286 0.2500  plane waves:    6173
 k-point  67 :  -0.4286-0.4286 0.2500  plane waves:    6159
 k-point  68 :  -0.2857-0.4286 0.2500  plane waves:    6176
 k-point  69 :  -0.1429-0.4286 0.2500  plane waves:    6173
 k-point  70 :  -0.2857-0.2857 0.2500  plane waves:    6179
 k-point  71 :  -0.1429-0.2857 0.2500  plane waves:    6171
 k-point  72 :  -0.1429-0.1429 0.2500  plane waves:    6163
 k-point  73 :   0.0000-0.0000 0.3750  plane waves:    6176
 k-point  74 :   0.1429 0.0000 0.3750  plane waves:    6169
 k-point  75 :   0.2857-0.0000 0.3750  plane waves:    6177
 k-point  76 :   0.4286-0.0000 0.3750  plane waves:    6172
 k-point  77 :  -0.4286-0.0000 0.3750  plane waves:    6170
 k-point  78 :  -0.2857-0.0000 0.3750  plane waves:    6169
 k-point  79 :  -0.1429 0.0000 0.3750  plane waves:    6174
 k-point  80 :   0.1429 0.1429 0.3750  plane waves:    6155
 k-point  81 :   0.2857 0.1429 0.3750  plane waves:    6165
 k-point  82 :   0.4286 0.1429 0.3750  plane waves:    6177
 k-point  83 :  -0.4286 0.1429 0.3750  plane waves:    6176
 k-point  84 :  -0.2857 0.1429 0.3750  plane waves:    6177
 k-point  85 :  -0.1429 0.1429 0.3750  plane waves:    6161
 k-point  86 :   0.2857 0.2857 0.3750  plane waves:    6174
 k-point  87 :   0.4286 0.2857 0.3750  plane waves:    6168
 k-point  88 :  -0.4286 0.2857 0.3750  plane waves:    6176
 k-point  89 :  -0.2857 0.2857 0.3750  plane waves:    6176
 k-point  90 :  -0.1429 0.2857 0.3750  plane waves:    6167
 k-point  91 :   0.4286 0.4286 0.3750  plane waves:    6161
 k-point  92 :  -0.4286 0.4286 0.3750  plane waves:    6178
 k-point  93 :  -0.2857 0.4286 0.3750  plane waves:    6166
 k-point  94 :  -0.1429 0.4286 0.3750  plane waves:    6164
 k-point  95 :  -0.4286-0.4286 0.3750  plane waves:    6183
 k-point  96 :  -0.2857-0.4286 0.3750  plane waves:    6171
 k-point  97 :  -0.1429-0.4286 0.3750  plane waves:    6178
 k-point  98 :  -0.2857-0.2857 0.3750  plane waves:    6178
 k-point  99 :  -0.1429-0.2857 0.3750  plane waves:    6178
 k-point 100 :  -0.1429-0.1429 0.3750  plane waves:    6160
 k-point 101 :  -0.0000-0.0000 0.5000  plane waves:    6158
 k-point 102 :   0.1429-0.0000 0.5000  plane waves:    6171
 k-point 103 :   0.2857-0.0000 0.5000  plane waves:    6178
 k-point 104 :   0.4286-0.0000 0.5000  plane waves:    6177
 k-point 105 :   0.1429 0.1429 0.5000  plane waves:    6169
 k-point 106 :   0.2857 0.1429 0.5000  plane waves:    6172
 k-point 107 :   0.4286 0.1429 0.5000  plane waves:    6185
 k-point 108 :  -0.4286 0.1429 0.5000  plane waves:    6185
 k-point 109 :  -0.2857 0.1429 0.5000  plane waves:    6164
 k-point 110 :  -0.1429 0.1429 0.5000  plane waves:    6168
 k-point 111 :   0.2857 0.2857 0.5000  plane waves:    6161
 k-point 112 :   0.4286 0.2857 0.5000  plane waves:    6171
 k-point 113 :  -0.4286 0.2857 0.5000  plane waves:    6169
 k-point 114 :  -0.2857 0.2857 0.5000  plane waves:    6170
 k-point 115 :   0.4286 0.4286 0.5000  plane waves:    6182
 k-point 116 :  -0.4286 0.4286 0.5000  plane waves:    6174

 maximum and minimum number of plane-waves per node :      3123     3044

 maximum number of plane-waves:      6191
 maximum index in each direction: 
   IXMAX=   13   IYMAX=   13   IZMAX=   12
   IXMIN=  -13   IYMIN=  -13   IZMIN=  -13


 parallel 3D FFT for wavefunctions:
    minimum data exchange during FFTs selected (reduces bandwidth)
 parallel 3D FFT for charge:
    minimum data exchange during FFTs selected (reduces bandwidth)


 total amount of memory used by VASP MPI-rank0   393235. kBytes
=======================================================================

   base      :      30000. kBytes
   nonl-proj :     155642. kBytes
   fftplans  :      17764. kBytes
   grid      :      13358. kBytes
   one-center:         77. kBytes
   wavefun   :     176394. kBytes
 
     INWAV:  cpu time    0.0001: real time    0.0001
 Broyden mixing: mesh for mixing (old mesh)
   NGX = 25   NGY = 25   NGZ = 25
  (NGX  =108   NGY  =108   NGZ  =108)
  gives a total of  15625 points

 initial charge density was supplied:
 charge density of overlapping atoms calculated
 number of electron      98.0000000 magnetization 
 keeping initial charge density in first step


--------------------------------------------------------------------------------------------------------


 Maximum index for augmentation-charges        24165 (set IRDMAX)


--------------------------------------------------------------------------------------------------------


 First call to EWALD:  gamma=   0.311
 Maximum number of real-space cells 3x 3x 3
 Maximum number of reciprocal cells 3x 3x 3

    FEWALD:  cpu time    0.0075: real time    0.0076


--------------------------------------- Iteration      1(   1)  ---------------------------------------


    POTLOK:  cpu time    0.1983: real time    0.2011
    SETDIJ:  cpu time    0.6398: real time    0.6446
    TRIAL :  cpu time   28.5824: real time   28.8637
    CORREC:  cpu time    0.0018: real time    0.0019
    --------------------------------------------
      LOOP:  cpu time   29.5292: real time   29.8411

 eigenvalue-minimisations  : 15120
 total energy-change (2. order) : 0.1032886E+04  (-0.6645027E+04)
 number of electron      98.0000000 magnetization 
 augmentation part       98.0000000 magnetization 

 Free energy of the ion-electron system (eV)
  ---------------------------------------------------
  alpha Z        PSCENC =       451.84596835
  Ewald energy   TEWEN  =     -8129.76209103
  -Hartree energ DENC   =     -3085.38669421
  -exchange      EXHF   =         0.00000000
  -V(xc)+E(xc)   XCENC  =       462.40979654
  PAW double counting   =      9166.97638771    -9126.13493418
  entropy T*S    EENTRO =        -0.00046828
  eigenvalues    EBANDS =      -229.22987273
  atomic energy  EATOM  =     11522.16744521
  ---------------------------------------------------
  free energy    TOTEN  =      1032.88553738 eV

  energy without entropy =     1032.88600567  energy(sigma->0) =     1032.88577152


--------------------------------------------------------------------------------------------------------




--------------------------------------- Iteration      1(   2)  ---------------------------------------


    TRIAL :  cpu time   32.5376: real time   32.8441
    CORREC:  cpu time    0.0020: real time    0.0020
    --------------------------------------------
      LOOP:  cpu time   32.5432: real time   32.8500

 eigenvalue-minimisations  : 15384
 total energy-change (2. order) :-0.1202287E+04  (-0.1169975E+04)
 number of electron      98.0000000 magnetization 
 augmentation part       98.0000000 magnetization 

 Free energy of the ion-electron system (eV)
  ---------------------------------------------------
  alpha Z        PSCENC =       451.84596835
  Ewald energy   TEWEN  =     -8129.76209103
  -Hartree energ DENC   =     -3085.38669421
  -exchange      EXHF   =         0.00000000
  -V(xc)+E(xc)   XCENC  =       462.40979654
  PAW double counting   =      9166.97638771    -9126.13493418
  entropy T*S    EENTRO =        -0.00154499
  eigenvalues    EBANDS =     -1431.51582352
  atomic energy  EATOM  =     11522.16744521
  ---------------------------------------------------
  free energy    TOTEN  =      -169.40149012 eV

  energy without entropy =     -169.39994513  energy(sigma->0) =     -169.40071762


--------------------------------------------------------------------------------------------------------




--------------------------------------- Iteration      1(   3)  ---------------------------------------


    TRIAL :  cpu time   36.6451: real time   36.9769
    CORREC:  cpu time    0.0019: real time    0.0019
    --------------------------------------------
      LOOP:  cpu time   36.6483: real time   36.9819

 eigenvalue-minimisations  : 18408
 total energy-change (2. order) :-0.4937554E+02  (-0.4716487E+02)
 number of electron      98.0000000 magnetization 
 augmentation part       98.0000000 magnetization 

 Free energy of the ion-electron system (eV)
  ---------------------------------------------------
  alpha Z        PSCENC =       451.84596835
  Ewald energy   TEWEN  =     -8129.76209103
  -Hartree energ DENC   =     -3085.38669421
  -exchange      EXHF   =         0.00000000
  -V(xc)+E(xc)   XCENC  =       462.40979654
  PAW double counting   =      9166.97638771    -9126.13493418
  entropy T*S    EENTRO =        -0.00141247
  eigenvalues    EBANDS =     -1480.89150028
  atomic energy  EATOM  =     11522.16744521
  ---------------------------------------------------
  free energy    TOTEN  =      -218.77703436 eV

  energy without entropy =     -218.77562188  energy(sigma->0) =     -218.77632812


--------------------------------------------------------------------------------------------------------




--------------------------------------- Iteration      1(   4)  ---------------------------------------


    TRIAL :  cpu time   35.7187: real time   36.0407
    CORREC:  cpu time    0.0019: real time    0.0019
    --------------------------------------------
      LOOP:  cpu time   35.7216: real time   36.0456

 eigenvalue-minimisations  : 17556
 total energy-change (2. order) :-0.1317359E+01  (-0.1285627E+01)
 number of electron      98.0000000 magnetization 
 augmentation part       98.0000000 magnetization 

 Free energy of the ion-electron system (eV)
  ---------------------------------------------------
  alpha Z        PSCENC =       451.84596835
  Ewald energy   TEWEN  =     -8129.76209103
  -Hartree energ DENC   =     -3085.38669421
  -exchange      EXHF   =         0.00000000
  -V(xc)+E(xc)   XCENC  =       462.40979654
  PAW double counting   =      9166.97638771    -9126.13493418
  entropy T*S    EENTRO =        -0.00206403
  eigenvalues    EBANDS =     -1482.20820746
  atomic energy  EATOM  =     11522.16744521
  ---------------------------------------------------
  free energy    TOTEN  =      -220.09439310 eV

  energy without entropy =     -220.09232907  energy(sigma->0) =     -220.09336108


--------------------------------------------------------------------------------------------------------




--------------------------------------- Iteration      1(   5)  ---------------------------------------


    TRIAL :  cpu time   36.1468: real time   36.4769
    CORREC:  cpu time    0.0020: real time    0.0020
    CHARGE:  cpu time    2.2666: real time    2.2851
    --------------------------------------------
      LOOP:  cpu time   38.4170: real time   38.7668

 eigenvalue-minimisations  : 18024
 total energy-change (2. order) :-0.3775396E-01  (-0.3758774E-01)
 number of electron      98.0000000 magnetization 
 augmentation part       12.1115821 magnetization 

 Free energy of the ion-electron system (eV)
  ---------------------------------------------------
  alpha Z        PSCENC =       451.84596835
  Ewald energy   TEWEN  =     -8129.76209103
  -Hartree energ DENC   =     -3085.38669421
  -exchange      EXHF   =         0.00000000
  -V(xc)+E(xc)   XCENC  =       462.40979654
  PAW double counting   =      9166.97638771    -9126.13493418
  entropy T*S    EENTRO =        -0.00212985
  eigenvalues    EBANDS =     -1482.24589560
  atomic energy  EATOM  =     11522.16744521
  ---------------------------------------------------
  free energy    TOTEN  =      -220.13214706 eV

  energy without entropy =     -220.13001721  energy(sigma->0) =     -220.13108213


--------------------------------------------------------------------------------------------------------




--------------------------------------- Iteration      1(   6)  ---------------------------------------


    POTLOK:  cpu time    0.1974: real time    0.1987
    SETDIJ:  cpu time    0.6081: real time    0.6127
    TRIAL :  cpu time   23.8838: real time   24.1965
    CORREC:  cpu time    9.0949: real time    9.1743
    CHARGE:  cpu time    2.5765: real time    2.5975
    --------------------------------------------
      LOOP:  cpu time   36.3695: real time   36.7893

 eigenvalue-minimisations  :     0
 total energy-change (2. order) : 0.6553161E+02  (-0.1557271E+02)
 number of electron      98.0000000 magnetization 
 augmentation part       14.1034856 magnetization 

 Free energy of the ion-electron system (eV)
  ---------------------------------------------------
  alpha Z        PSCENC =       451.84596835
  Ewald energy   TEWEN  =     -8129.76209103
  -Hartree energ DENC   =     -2690.80417932
  -exchange      EXHF   =         0.00000000
  -V(xc)+E(xc)   XCENC  =       457.13166366
  PAW double counting   =     13164.84761513   -13165.60054853
  entropy T*S    EENTRO =        -0.00135570
  eigenvalues    EBANDS =     -1764.42428172
  atomic energy  EATOM  =     11522.16744521
  ---------------------------------------------------
  free energy    TOTEN  =      -154.60053808 eV

  energy without entropy =     -154.59918238  energy(sigma->0) =     -154.59986023


--------------------------------------------------------------------------------------------------------




--------------------------------------- Iteration      1(   7)  ---------------------------------------


    POTLOK:  cpu time    0.1484: real time    0.1496
    SETDIJ:  cpu time    0.6191: real time    0.6235
    TRIAL :  cpu time   26.7539: real time   26.9788
    CORREC:  cpu time    7.5970: real time    7.6598
    CHARGE:  cpu time    2.7516: real time    2.7715
    --------------------------------------------
      LOOP:  cpu time   37.8844: real time   38.1989

 eigenvalue-minimisations  :     0
 total energy-change (2. order) :-0.1527723E+02  (-0.3606585E+01)
 number of electron      98.0000001 magnetization 
 augmentation part       14.2753201 magnetization 

 Free energy of the ion-electron system (eV)
  ---------------------------------------------------
  alpha Z        PSCENC =       451.84596835
  Ewald energy   TEWEN  =     -8129.76209103
  -Hartree energ DENC   =     -2894.56912855
  -exchange      EXHF   =         0.00000000
  -V(xc)+E(xc)   XCENC  =       467.07680607
  PAW double counting   =     12716.02310921   -12702.79590903
  entropy T*S    EENTRO =        -0.00209562
  eigenvalues    EBANDS =     -1599.86261690
  atomic energy  EATOM  =     11522.16744521
  ---------------------------------------------------
  free energy    TOTEN  =      -169.87777237 eV

  energy without entropy =     -169.87567676  energy(sigma->0) =     -169.87672456


--------------------------------------------------------------------------------------------------------




--------------------------------------- Iteration      1(   8)  ---------------------------------------


    POTLOK:  cpu time    0.1448: real time    0.1458
    SETDIJ:  cpu time    0.7340: real time    0.7391
    TRIAL :  cpu time   28.6608: real time   28.8955
    CORREC:  cpu time   10.7642: real time   10.8460
    CHARGE:  cpu time    2.6177: real time    2.6416
    --------------------------------------------
      LOOP:  cpu time   42.9284: real time   43.2754

 eigenvalue-minimisations  :     0
 total energy-change (2. order) :-0.3599096E+01  (-0.1027680E+01)
 number of electron      98.0000000 magnetization 
 augmentation part       14.2876079 magnetization 

 Free energy of the ion-electron system (eV)
  ---------------------------------------------------
  alpha Z        PSCENC =       451.84596835
  Ewald energy   TEWEN  =     -8129.76209103
  -Hartree energ DENC   =     -2942.50946573
  -exchange      EXHF   =         0.00000000
  -V(xc)+E(xc)   XCENC  =       469.62988169
  PAW double counting   =     12615.72615182   -12597.71159516
  entropy T*S    EENTRO =        -0.00289474
  eigenvalues    EBANDS =     -1562.86106817
  atomic energy  EATOM  =     11522.16744521
  ---------------------------------------------------
  free energy    TOTEN  =      -173.47686862 eV

  energy without entropy =     -173.47397389  energy(sigma->0) =     -173.47542126


--------------------------------------------------------------------------------------------------------




--------------------------------------- Iteration      1(   9)  ---------------------------------------


    POTLOK:  cpu time    0.1452: real time    0.1461
    SETDIJ:  cpu time    0.7604: real time    0.7656
    TRIAL :  cpu time   28.2588: real time   28.4921
    CORREC:  cpu time   10.7661: real time   10.8502
    CHARGE:  cpu time    2.5569: real time    2.5764
    --------------------------------------------
      LOOP:  cpu time   42.4888: real time   42.8323

 eigenvalue-minimisations  :     0
 total energy-change (2. order) :-0.1030863E+01  (-0.3614797E+00)
 number of electron      98.0000000 magnetization 
 augmentation part       14.2338497 magnetization 

 Free energy of the ion-electron system (eV)
  ---------------------------------------------------
  alpha Z        PSCENC =       451.84596835
  Ewald energy   TEWEN  =     -8129.76209103
  -Hartree energ DENC   =     -2950.99316580
  -exchange      EXHF   =         0.00000000
  -V(xc)+E(xc)   XCENC  =       470.20501423
  PAW double counting   =     12663.08965157   -12642.38197388
  entropy T*S    EENTRO =        -0.00191894
  eigenvalues    EBANDS =     -1558.67568550
  atomic energy  EATOM  =     11522.16744521
  ---------------------------------------------------
  free energy    TOTEN  =      -174.50773158 eV

  energy without entropy =     -174.50581264  energy(sigma->0) =     -174.50677211


--------------------------------------------------------------------------------------------------------




--------------------------------------- Iteration      1(  10)  ---------------------------------------


    POTLOK:  cpu time    0.1443: real time    0.1452
    SETDIJ:  cpu time    1.5838: real time    1.5929
    TRIAL :  cpu time   25.1228: real time   25.3340
    CORREC:  cpu time   11.4504: real time   11.5339
    CHARGE:  cpu time    2.6209: real time    2.6403
    --------------------------------------------
      LOOP:  cpu time   41.3360: real time   41.6628

 eigenvalue-minimisations  :     0
 total energy-change (2. order) :-0.3608522E+00  (-0.1855869E+00)
 number of electron      98.0000000 magnetization 
 augmentation part       14.2026465 magnetization 

 Free energy of the ion-electron system (eV)
  ---------------------------------------------------
  alpha Z        PSCENC =       451.84596835
  Ewald energy   TEWEN  =     -8129.76209103
  -Hartree energ DENC   =     -2950.23106015
  -exchange      EXHF   =         0.00000000
  -V(xc)+E(xc)   XCENC  =       470.25981905
  PAW double counting   =     12736.34582887   -12714.46808181
  entropy T*S    EENTRO =        -0.00187777
  eigenvalues    EBANDS =     -1561.02449338
  atomic energy  EATOM  =     11522.16744521
  ---------------------------------------------------
  free energy    TOTEN  =      -174.86858381 eV

  energy without entropy =     -174.86670604  energy(sigma->0) =     -174.86764493


--------------------------------------------------------------------------------------------------------




--------------------------------------- Iteration      1(  11)  ---------------------------------------


    POTLOK:  cpu time    0.1457: real time    0.1467
    SETDIJ:  cpu time    0.7381: real time    0.7430
    TRIAL :  cpu time   27.5471: real time   27.7761
    CORREC:  cpu time   11.1743: real time   11.2541
    CHARGE:  cpu time    2.7325: real time    2.7513
    --------------------------------------------
      LOOP:  cpu time   42.3446: real time   42.6783

 eigenvalue-minimisations  :     0
[...]
     10     -29.4967      2.00000
     11     -29.4777      2.00000
     12     -29.4704      2.00000
     13     -29.4487      2.00000
     14     -29.4378      2.00000
     15     -29.4329      2.00000
     16     -29.4244      2.00000
     17     -29.3461      2.00000
     18     -29.3434      2.00000
     19     -29.3073      2.00000
     20     -29.2995      2.00000
     21     -29.2009      2.00000
     22     -29.1952      2.00000
     23     -29.1677      2.00000
     24     -29.1631      2.00000
     25      -2.5070      2.00000
     26      -2.4098      2.00000
     27      -0.4976      2.00000
     28      -0.1610      2.00000
     29       1.7838      2.00000
     30       2.0059      2.00000
     31       2.5036      2.00000
     32       2.5531      2.00000
     33       3.2024      2.00000
     34       3.4286      2.00000
     35       3.7731      2.00000
     36       3.9292      2.00000
     37       4.1352      2.00000
     38       4.3002      2.00000
     39       4.4114      2.00000
     40       4.5398      2.00000
     41       4.7832      2.00000
     42       4.9438      2.00000
     43       5.1990      2.00000
     44       5.6153      2.00000
     45       5.6707      2.00000
     46       5.9235      2.00000
     47       6.0422      2.00000
     48       6.4508      2.00000
     49       6.4986      2.00000
     50       6.9420      0.00000
     51       7.1196      0.00000
     52       7.3251      0.00000
     53       7.3745      0.00000
     54       7.5730      0.00000
     55       7.7713      0.00000
     56       7.9594      0.00000
     57       8.0187      0.00000
     58       8.5302      0.00000
     59       9.0947      0.00000
     60       9.2544      0.00000

 k-point   110 :      -0.1429    0.1429    0.5000
  band No.  band energies     occupation 
      1     -56.0485      2.00000
      2     -56.0453      2.00000
      3     -55.9401      2.00000
      4     -55.9303      2.00000
      5     -55.9283      2.00000
      6     -55.9212      2.00000
      7     -29.6265      2.00000
      8     -29.5985      2.00000
      9     -29.5066      2.00000
     10     -29.4837      2.00000
     11     -29.4764      2.00000
     12     -29.4759      2.00000
     13     -29.4691      2.00000
     14     -29.4378      2.00000
     15     -29.4364      2.00000
     16     -29.4083      2.00000
     17     -29.3734      2.00000
     18     -29.3400      2.00000
     19     -29.3327      2.00000
     20     -29.3032      2.00000
     21     -29.2052      2.00000
     22     -29.2001      2.00000
     23     -29.1594      2.00000
     24     -29.1560      2.00000
     25      -2.6726      2.00000
     26      -2.0524      2.00000
     27      -0.3954      2.00000
     28      -0.3331      2.00000
     29       1.5828      2.00000
     30       2.1409      2.00000
     31       2.2398      2.00000
     32       2.8198      2.00000
     33       3.2050      2.00000
     34       3.6335      2.00000
     35       3.9122      2.00000
     36       3.9402      2.00000
     37       3.9610      2.00000
     38       4.1614      2.00000
     39       4.3046      2.00000
     40       4.3970      2.00000
     41       4.5273      2.00000
     42       4.7161      2.00000
     43       5.2828      2.00000
     44       5.7286      2.00000
     45       5.7331      2.00000
     46       6.0416      2.00000
     47       6.1720      2.00000
     48       6.1773      2.00000
     49       6.2973      2.00000
     50       6.8258      0.00087
     51       7.2304      0.00000
     52       7.2975      0.00000
     53       7.3905      0.00000
     54       7.4042      0.00000
     55       7.4917      0.00000
     56       8.0847      0.00000
     57       8.4649      0.00000
     58       8.8720      0.00000
     59       9.3397      0.00000
     60       9.6036      0.00000

 k-point   111 :       0.2857    0.2857    0.5000
  band No.  band energies     occupation 
      1     -56.0479      2.00000
      2     -56.0464      2.00000
      3     -55.9455      2.00000
      4     -55.9303      2.00000
      5     -55.9298      2.00000
      6     -55.9138      2.00000
      7     -29.6971      2.00000
      8     -29.6044      2.00000
      9     -29.5750      2.00000
     10     -29.5239      2.00000
     11     -29.4632      2.00000
     12     -29.4625      2.00000
     13     -29.4540      2.00000
     14     -29.4322      2.00000
     15     -29.4166      2.00000
     16     -29.3855      2.00000
     17     -29.3386      2.00000
     18     -29.3248      2.00000
     19     -29.3240      2.00000
     20     -29.2800      2.00000
     21     -29.1800      2.00000
     22     -29.1781      2.00000
     23     -29.1719      2.00000
     24     -29.1713      2.00000
     25      -3.1290      2.00000
     26      -1.8121      2.00000
     27      -0.7961      2.00000
     28       0.1210      2.00000
     29       1.6513      2.00000
     30       1.8013      2.00000
     31       2.7535      2.00000
     32       2.7995      2.00000
     33       3.1985      2.00000
     34       3.3522      2.00000
     35       3.4541      2.00000
     36       3.7233      2.00000
     37       3.9774      2.00000
     38       4.1612      2.00000
     39       4.3773      2.00000
     40       5.0012      2.00000
     41       5.1018      2.00000
     42       5.2032      2.00000
     43       5.3645      2.00000
     44       5.6011      2.00000
     45       5.6536      2.00000
     46       5.8011      2.00000
     47       6.4044      2.00000
     48       6.6789      2.00000
     49       6.6888      2.00000
     50       6.7969      0.19702
     51       7.0014      0.00000
     52       7.1526      0.00000
     53       7.4462      0.00000
     54       7.7718      0.00000
     55       7.9413      0.00000
     56       7.9916      0.00000
     57       8.1059      0.00000
     58       8.5886      0.00000
     59       9.1548      0.00000
     60       9.8243      0.00000

 k-point   112 :       0.4286    0.2857    0.5000
  band No.  band energies     occupation 
      1     -56.0467      2.00000
      2     -56.0464      2.00000
      3     -55.9487      2.00000
      4     -55.9319      2.00000
      5     -55.9282      2.00000
      6     -55.9118      2.00000
      7     -29.6858      2.00000
      8     -29.6083      2.00000
      9     -29.5586      2.00000
     10     -29.5374      2.00000
     11     -29.4595      2.00000
     12     -29.4495      2.00000
     13     -29.4468      2.00000
     14     -29.4373      2.00000
     15     -29.4283      2.00000
     16     -29.4070      2.00000
     17     -29.3318      2.00000
     18     -29.3267      2.00000
     19     -29.3043      2.00000
     20     -29.2630      2.00000
     21     -29.1985      2.00000
     22     -29.1876      2.00000
     23     -29.1808      2.00000
     24     -29.1733      2.00000
     25      -3.0838      2.00000
     26      -1.8141      2.00000
     27      -0.8570      2.00000
     28       0.3886      2.00000
     29       1.3198      2.00000
     30       1.7628      2.00000
     31       2.3861      2.00000
     32       3.0259      2.00000
     33       3.3601      2.00000
     34       3.4463      2.00000
     35       3.4535      2.00000
     36       3.5536      2.00000
     37       4.0038      2.00000
     38       4.2389      2.00000
     39       4.4409      2.00000
     40       4.9953      2.00000
     41       5.2564      2.00000
     42       5.3401      2.00000
     43       5.5894      2.00000
     44       5.5936      2.00000
     45       5.7893      2.00000
     46       5.8416      2.00000
     47       6.0339      2.00000
     48       6.6556      2.00000
     49       6.8756      0.00000
     50       7.0149      0.00000
     51       7.1243      0.00000
     52       7.2052      0.00000
     53       7.2313      0.00000
     54       7.5961      0.00000
     55       7.6692      0.00000
     56       7.9869      0.00000
     57       8.0463      0.00000
     58       8.3033      0.00000
     59       9.1227      0.00000
     60       9.2365      0.00000

 k-point   113 :      -0.4286    0.2857    0.5000
  band No.  band energies     occupation 
      1     -56.0466      2.00000
      2     -56.0457      2.00000
      3     -55.9496      2.00000
      4     -55.9318      2.00000
      5     -55.9282      2.00000
      6     -55.9117      2.00000
      7     -29.6621      2.00000
      8     -29.6032      2.00000
      9     -29.5475      2.00000
     10     -29.5370      2.00000
     11     -29.4547      2.00000
     12     -29.4466      2.00000
     13     -29.4394      2.00000
     14     -29.4391      2.00000
     15     -29.4370      2.00000
     16     -29.4316      2.00000
     17     -29.3292      2.00000
     18     -29.3240      2.00000
     19     -29.3051      2.00000
     20     -29.2630      2.00000
     21     -29.2127      2.00000
     22     -29.1951      2.00000
     23     -29.1863      2.00000
     24     -29.1729      2.00000
     25      -2.9214      2.00000
     26      -1.9406      2.00000
     27      -0.8149      2.00000
     28       0.3775      2.00000
     29       1.3783      2.00000
     30       1.8159      2.00000
     31       2.0238      2.00000
     32       3.2404      2.00000
     33       3.3637      2.00000
     34       3.4222      2.00000
     35       3.4817      2.00000
     36       3.5751      2.00000
     37       4.0570      2.00000
     38       4.3500      2.00000
     39       4.4354      2.00000
     40       5.0392      2.00000
     41       5.1958      2.00000
     42       5.2813      2.00000
     43       5.4871      2.00000
     44       5.6707      2.00000
     45       5.7114      2.00000
     46       5.8194      2.00000
     47       5.9061      2.00000
     48       6.7158      1.99999
     49       6.9113      0.00000
     50       7.0856      0.00000
     51       7.1060      0.00000
     52       7.1093      0.00000
     53       7.2693      0.00000
     54       7.5597      0.00000
     55       7.6760      0.00000
     56       7.8318      0.00000
     57       7.9799      0.00000
     58       8.0984      0.00000
     59       8.5709      0.00000
     60       9.1980      0.00000

 k-point   114 :      -0.2857    0.2857    0.5000
  band No.  band energies     occupation 
      1     -56.0472      2.00000
      2     -56.0453      2.00000
      3     -55.9478      2.00000
      4     -55.9303      2.00000
      5     -55.9293      2.00000
      6     -55.9138      2.00000
      7     -29.6386      2.00000
      8     -29.6006      2.00000
      9     -29.5447      2.00000
     10     -29.5243      2.00000
     11     -29.4618      2.00000
     12     -29.4524      2.00000
     13     -29.4504      2.00000
     14     -29.4404      2.00000
     15     -29.4379      2.00000
     16     -29.4243      2.00000
     17     -29.3344      2.00000
     18     -29.3307      2.00000
     19     -29.3061      2.00000
     20     -29.2796      2.00000
     21     -29.2143      2.00000
     22     -29.1999      2.00000
     23     -29.1789      2.00000
     24     -29.1686      2.00000
     25      -2.6810      2.00000
     26      -2.1855      2.00000
     27      -0.6844      2.00000
     28       0.1033      2.00000
     29       1.8050      2.00000
     30       1.8119      2.00000
     31       1.9637      2.00000
     32       3.0396      2.00000
     33       3.3282      2.00000
     34       3.3850      2.00000
     35       3.5819      2.00000
     36       3.7529      2.00000
     37       4.1129      2.00000
     38       4.3834      2.00000
     39       4.4004      2.00000
     40       5.0131      2.00000
     41       5.0579      2.00000
     42       5.1719      2.00000
     43       5.2211      2.00000
     44       5.4900      2.00000
     45       5.7137      2.00000
     46       5.8079      2.00000
     47       5.9415      2.00000
     48       6.5993      2.00000
     49       6.6313      2.00000
     50       7.0946      0.00000
     51       7.1386      0.00000
     52       7.1591      0.00000
     53       7.3389      0.00000
     54       7.5702      0.00000
     55       7.7239      0.00000
     56       7.8942      0.00000
     57       7.9568      0.00000
     58       8.1268      0.00000
     59       8.7951      0.00000
     60       9.1728      0.00000

 k-point   115 :       0.4286    0.4286    0.5000
  band No.  band energies     occupation 
      1     -56.0460      2.00000
      2     -56.0458      2.00000
      3     -55.9517      2.00000
      4     -55.9303      2.00000
      5     -55.9302      2.00000
      6     -55.9097      2.00000
      7     -29.6737      2.00000
      8     -29.5781      2.00000
      9     -29.5711      2.00000
     10     -29.5527      2.00000
     11     -29.4476      2.00000
     12     -29.4449      2.00000
     13     -29.4440      2.00000
     14     -29.4380      2.00000
     15     -29.4348      2.00000
     16     -29.4228      2.00000
     17     -29.3224      2.00000
     18     -29.3103      2.00000
     19     -29.3079      2.00000
     20     -29.2498      2.00000
     21     -29.2211      2.00000
     22     -29.1967      2.00000
     23     -29.1941      2.00000
     24     -29.1759      2.00000
     25      -3.1067      2.00000
     26      -1.5783      2.00000
     27      -0.9496      2.00000
     28       0.7172      2.00000
     29       1.1235      2.00000
     30       1.3221      2.00000
     31       2.1478      2.00000
     32       3.1803      2.00000
     33       3.3165      2.00000
     34       3.3546      2.00000
     35       3.4744      2.00000
     36       3.8384      2.00000
     37       3.9814      2.00000
     38       4.3106      2.00000
     39       4.5760      2.00000
     40       4.9619      2.00000
     41       5.0526      2.00000
     42       5.4499      2.00000
     43       5.5326      2.00000
     44       5.8015      2.00000
     45       5.8349      2.00000
     46       5.9255      2.00000
     47       6.2567      2.00000
     48       6.8009      0.11667
     49       6.8840      0.00000
     50       7.0139      0.00000
     51       7.1146      0.00000
     52       7.3066      0.00000
     53       7.3978      0.00000
     54       7.5022      0.00000
     55       7.5721      0.00000
     56       7.7503      0.00000
     57       7.8777      0.00000
     58       8.1578      0.00000
     59       8.2376      0.00000
     60       9.5115      0.00000

 k-point   116 :      -0.4286    0.4286    0.5000
  band No.  band energies     occupation 
      1     -56.0460      2.00000
      2     -56.0453      2.00000
      3     -55.9521      2.00000
      4     -55.9303      2.00000
      5     -55.9302      2.00000
      6     -55.9097      2.00000
      7     -29.6633      2.00000
      8     -29.5746      2.00000
      9     -29.5672      2.00000
     10     -29.5527      2.00000
     11     -29.4428      2.00000
     12     -29.4421      2.00000
     13     -29.4413      2.00000
     14     -29.4409      2.00000
     15     -29.4379      2.00000
     16     -29.4331      2.00000
     17     -29.3222      2.00000
     18     -29.3113      2.00000
     19     -29.3080      2.00000
     20     -29.2498      2.00000
     21     -29.2272      2.00000
     22     -29.1997      2.00000
     23     -29.1969      2.00000
     24     -29.1760      2.00000
     25      -3.0466      2.00000
     26      -1.6239      2.00000
     27      -0.9332      2.00000
     28       0.7205      2.00000
     29       1.1436      2.00000
     30       1.3306      2.00000
     31       2.0131      2.00000
     32       3.2560      2.00000
     33       3.3284      2.00000
     34       3.3666      2.00000
     35       3.4815      2.00000
     36       3.8503      2.00000
     37       4.0047      2.00000
     38       4.3606      2.00000
     39       4.5819      2.00000
     40       4.9363      2.00000
     41       5.0450      2.00000
     42       5.4000      2.00000
     43       5.4898      2.00000
     44       5.7411      2.00000
     45       5.8599      2.00000
     46       5.9321      2.00000
     47       6.2440      2.00000
     48       6.8013      0.10958
     49       6.9633      0.00000
     50       7.0125      0.00000
     51       7.0976      0.00000
     52       7.3590      0.00000
     53       7.3660      0.00000
     54       7.4697      0.00000
     55       7.5829      0.00000
     56       7.6002      0.00000
     57       7.8294      0.00000
     58       8.1606      0.00000
     59       8.1671      0.00000
     60       9.5060      0.00000


--------------------------------------------------------------------------------------------------------


 soft charge-density along one line, spin component           1
         0         1         2         3         4         5         6         7         8         9
 total charge-density along one line
 
 pseudopotential strength for first ion, spin component:           1
  6.095   9.247   0.000  -0.000   0.000   0.000  -0.000   0.000
  9.247  14.022   0.000  -0.000   0.000   0.000  -0.000   0.000
  0.000   0.000  -2.043  -0.003   0.002  -3.428  -0.006   0.003
 -0.000  -0.000  -0.003  -2.042  -0.002  -0.006  -3.425  -0.004
  0.000   0.000   0.002  -0.002  -2.044   0.003  -0.004  -3.430
  0.000   0.000  -3.428  -0.006   0.003  -5.539  -0.013   0.007
 -0.000  -0.000  -0.006  -3.425  -0.004  -0.013  -5.534  -0.009
  0.000   0.000   0.003  -0.004  -3.430   0.007  -0.009  -5.544
 total augmentation occupancy for first ion, spin component:           1
  3.085  -0.619   0.000   0.000   0.000  -0.000   0.000   0.000
 -0.619   0.134  -0.000  -0.000  -0.000   0.000   0.000   0.000
 -0.000  -0.000   1.901   0.445  -0.256  -0.449  -0.113   0.065
  0.000   0.000   0.445   1.713   0.315  -0.113  -0.401  -0.080
 -0.000   0.000  -0.256   0.315   2.080   0.065  -0.080  -0.494
  0.000  -0.000  -0.449  -0.113   0.065   0.109   0.030  -0.017
  0.000   0.000  -0.113  -0.401  -0.080   0.030   0.096   0.021
  0.000   0.000   0.065  -0.080  -0.494  -0.017   0.021   0.121


------------------------ aborting loop because EDIFF is reached ----------------------------------------




--------------------------------------------------------------------------------------------------------



  FREE ENERGIE OF THE ION-ELECTRON SYSTEM (eV)
  ---------------------------------------------------
  free  energy   TOTEN  =      -175.21317472 eV

  energy  without entropy=     -175.21097284  energy(sigma->0) =     -175.21207378
 


--------------------------------------------------------------------------------------------------------


    POTLOK:  cpu time    0.8497: real time    0.8565


--------------------------------------------------------------------------------------------------------


 writing wavefunctions
     LOOP+:  cpu time 1927.1780: real time 1943.1879
    4ORBIT:  cpu time    0.0000: real time    0.0000

 total amount of memory used by VASP MPI-rank0   393235. kBytes
=======================================================================

   base      :      30000. kBytes
   nonl-proj :     155642. kBytes
   fftplans  :      17764. kBytes
   grid      :      13358. kBytes
   one-center:         77. kBytes
   wavefun   :     176394. kBytes
 
  
  
 General timing and accounting informations for this job:
 ========================================================
  
                  Total CPU time used (sec):     1936.381
                            User time (sec):     1915.371
                          System time (sec):       21.010
                         Elapsed time (sec):     1960.599
  
                   Maximum memory used (kb):      631548.
                   Average memory used (kb):          N/A
  
                          Minor page faults:      2627094
                          Major page faults:           51
                 Voluntary context switches:        13220
