<?xml version="1.0" encoding="ISO-8859-1"?>
<modeling>
 <generator>
  <i name="program" type="string">vasp </i>
  <i name="version" type="string">6.2.0  </i>
  <i name="subversion" type="string">18Jan21 (build Jan 05 2022 15:41:44) complex                          parallel </i>
  <i name="platform" type="string">LinuxIFC </i>
  <i name="date" type="string">2025 05 07 </i>
  <i name="time" type="string">14:21:04 </i>
 </generator>
 <incar>
  <i type="string" name="SYSTEM">routine with relax: pwdword</i>
  <i type="string" name="PREC">Acc</i>
  <i type="int" name="IALGO">    38</i>
  <i type="string" name="ALGO">A</i>
  <i type="logical" name="ADDGRID"> T  </i>
  <i type="int" name="ICHARG">     2</i>
  <i type="int" name="NELM">   100</i>
  <i type="int" name="NELMIN">     6</i>
  <i name="EDIFF">      0.00000000</i>
  <i type="int" name="NSW">     0</i>
  <i type="int" name="ISIF">    -1</i>
  <i name="SYMPREC">      0.00010000</i>
  <i name="ENCUT">    600.00000000</i>
  <i type="logical" name="LREAL"> F  </i>
  <i type="int" name="ISMEAR">     0</i>
  <i name="SIGMA">      0.02000000</i>
  <i type="logical" name="LASPH"> T  </i>
  <i type="string" name="METAGGA">R2SCAN</i>
  <i type="logical" name="LMIXTAU"> F  </i>
 </incar>
 <primitive_cell>
  <structure name="primitive_cell" >
   <crystal>
    <varray name="basis" >
     <v>       5.45177993       0.00000000      -2.80171402 </v>
     <v>      -2.03144321       5.05916424      -2.80171402 </v>
     <v>       0.00000000       0.00000000       6.12956000 </v>
    </varray>
    <i name="volume">    169.06215301 </i>
    <varray name="rec_basis" >
     <v>       0.18342633       0.07365252       0.00000000 </v>
     <v>       0.00000000       0.19766111       0.00000000 </v>
     <v>       0.08384095       0.12401268       0.16314385 </v>
    </varray>
   </crystal>
   <varray name="positions" >
    <v>       0.24211000       0.74211000       0.98422000 </v>
    <v>       0.75789000       0.25789000       0.01578000 </v>
    <v>       0.74211000       0.75789000       0.50000000 </v>
    <v>       0.25789000       0.24211000       0.50000000 </v>
    <v>       0.50000000       0.00000000       0.50000000 </v>
    <v>       0.25000000       0.75000000       0.50000000 </v>
    <v>       0.75000000       0.25000000       0.50000000 </v>
    <v>       0.00000000       0.50000000       0.50000000 </v>
    <v>       0.25000000       0.25000000       1.00000000 </v>
    <v>       0.75000000       0.75000000       1.00000000 </v>
   </varray>
  </structure>
  <varray name="primitive_index" >
   <v type="int" >        1 </v>
   <v type="int" >        2 </v>
   <v type="int" >        3 </v>
   <v type="int" >        4 </v>
   <v type="int" >        5 </v>
   <v type="int" >        6 </v>
   <v type="int" >        7 </v>
   <v type="int" >        8 </v>
   <v type="int" >        9 </v>
   <v type="int" >       10 </v>
  </varray>
 </primitive_cell>
 <kpoints>
  <generation param="Gamma">
   <v type="int" name="divisions">       7        7        8 </v>
   <v name="usershift">      0.00000000       0.00000000       0.00000000 </v>
   <v name="genvec1">      0.14285714      -0.00000000       0.00000000 </v>
   <v name="genvec2">      0.00000000       0.14285714       0.00000000 </v>
   <v name="genvec3">      0.00000000      -0.00000000       0.12500000 </v>
   <v name="shift">      0.00000000       0.00000000       0.00000000 </v>
  </generation>
  <varray name="kpointlist" >
   <v>       0.00000000       0.00000000       0.00000000 </v>
   <v>       0.14285714       0.00000000       0.00000000 </v>
   <v>       0.28571429       0.00000000       0.00000000 </v>
   <v>       0.42857143       0.00000000       0.00000000 </v>
   <v>       0.14285714       0.14285714       0.00000000 </v>
   <v>       0.28571429       0.14285714       0.00000000 </v>
   <v>       0.42857143       0.14285714       0.00000000 </v>
   <v>      -0.42857143       0.14285714       0.00000000 </v>
   <v>      -0.28571429       0.14285714       0.00000000 </v>
   <v>      -0.14285714       0.14285714       0.00000000 </v>
   <v>       0.28571429       0.28571429       0.00000000 </v>
   <v>       0.42857143       0.28571429       0.00000000 </v>
   <v>      -0.42857143       0.28571429       0.00000000 </v>
   <v>      -0.28571429       0.28571429       0.00000000 </v>
   <v>       0.42857143       0.42857143       0.00000000 </v>
   <v>      -0.42857143       0.42857143       0.00000000 </v>
   <v>       0.00000000       0.00000000       0.12500000 </v>
   <v>       0.14285714       0.00000000       0.12500000 </v>
   <v>       0.28571429      -0.00000000       0.12500000 </v>
   <v>       0.42857143       0.00000000       0.12500000 </v>
   <v>      -0.42857143       0.00000000       0.12500000 </v>
   <v>      -0.28571429       0.00000000       0.12500000 </v>
   <v>      -0.14285714      -0.00000000       0.12500000 </v>
   <v>       0.14285714       0.14285714       0.12500000 </v>
   <v>       0.28571429       0.14285714       0.12500000 </v>
   <v>       0.42857143       0.14285714       0.12500000 </v>
   <v>      -0.42857143       0.14285714       0.12500000 </v>
   <v>      -0.28571429       0.14285714       0.12500000 </v>
   <v>      -0.14285714       0.14285714       0.12500000 </v>
   <v>       0.28571429       0.28571429       0.12500000 </v>
   <v>       0.42857143       0.28571429       0.12500000 </v>
   <v>      -0.42857143       0.28571429       0.12500000 </v>
   <v>      -0.28571429       0.28571429       0.12500000 </v>
   <v>      -0.14285714       0.28571429       0.12500000 </v>
   <v>       0.42857143       0.42857143       0.12500000 </v>
   <v>      -0.42857143       0.42857143       0.12500000 </v>
   <v>      -0.28571429       0.42857143       0.12500000 </v>
   <v>      -0.14285714       0.42857143       0.12500000 </v>
   <v>      -0.42857143      -0.42857143       0.12500000 </v>
   <v>      -0.28571429      -0.42857143       0.12500000 </v>
   <v>      -0.14285714      -0.42857143       0.12500000 </v>
   <v>      -0.28571429      -0.28571429       0.12500000 </v>
   <v>      -0.14285714      -0.28571429       0.12500000 </v>
   <v>      -0.14285714      -0.14285714       0.12500000 </v>
   <v>       0.00000000       0.00000000       0.25000000 </v>
   <v>       0.14285714       0.00000000       0.25000000 </v>
   <v>       0.28571429       0.00000000       0.25000000 </v>
   <v>       0.42857143       0.00000000       0.25000000 </v>
   <v>      -0.42857143      -0.00000000       0.25000000 </v>
   <v>      -0.28571429      -0.00000000       0.25000000 </v>
   <v>      -0.14285714       0.00000000       0.25000000 </v>
   <v>       0.14285714       0.14285714       0.25000000 </v>
   <v>       0.28571429       0.14285714       0.25000000 </v>
   <v>       0.42857143       0.14285714       0.25000000 </v>
   <v>      -0.42857143       0.14285714       0.25000000 </v>
   <v>      -0.28571429       0.14285714       0.25000000 </v>
   <v>      -0.14285714       0.14285714       0.25000000 </v>
   <v>       0.28571429       0.28571429       0.25000000 </v>
   <v>       0.42857143       0.28571429       0.25000000 </v>
   <v>      -0.42857143       0.28571429       0.25000000 </v>
   <v>      -0.28571429       0.28571429       0.25000000 </v>
   <v>      -0.14285714       0.28571429       0.25000000 </v>
   <v>       0.42857143       0.42857143       0.25000000 </v>
   <v>      -0.42857143       0.42857143       0.25000000 </v>
   <v>      -0.28571429       0.42857143       0.25000000 </v>
   <v>      -0.14285714       0.42857143       0.25000000 </v>
   <v>      -0.42857143      -0.42857143       0.25000000 </v>
   <v>      -0.28571429      -0.42857143       0.25000000 </v>
   <v>      -0.14285714      -0.42857143       0.25000000 </v>
   <v>      -0.28571429      -0.28571429       0.25000000 </v>
   <v>      -0.14285714      -0.28571429       0.25000000 </v>
   <v>      -0.14285714      -0.14285714       0.25000000 </v>
   <v>       0.00000000      -0.00000000       0.37500000 </v>
   <v>       0.14285714      -0.00000000       0.37500000 </v>
   <v>       0.28571429      -0.00000000       0.37500000 </v>
   <v>       0.42857143      -0.00000000       0.37500000 </v>
   <v>      -0.42857143      -0.00000000       0.37500000 </v>
   <v>      -0.28571429      -0.00000000       0.37500000 </v>
   <v>      -0.14285714      -0.00000000       0.37500000 </v>
   <v>       0.14285714       0.14285714       0.37500000 </v>
   <v>       0.28571429       0.14285714       0.37500000 </v>
   <v>       0.42857143       0.14285714       0.37500000 </v>
   <v>      -0.42857143       0.14285714       0.37500000 </v>
   <v>      -0.28571429       0.14285714       0.37500000 </v>
   <v>      -0.14285714       0.14285714       0.37500000 </v>
   <v>       0.28571429       0.28571429       0.37500000 </v>
   <v>       0.42857143       0.28571429       0.37500000 </v>
   <v>      -0.42857143       0.28571429       0.37500000 </v>
   <v>      -0.28571429       0.28571429       0.37500000 </v>
   <v>      -0.14285714       0.28571429       0.37500000 </v>
   <v>       0.42857143       0.42857143       0.37500000 </v>
   <v>      -0.42857143       0.42857143       0.37500000 </v>
   <v>      -0.28571429       0.42857143       0.37500000 </v>
   <v>      -0.14285714       0.42857143       0.37500000 </v>
   <v>      -0.42857143      -0.42857143       0.37500000 </v>
   <v>      -0.28571429      -0.42857143       0.37500000 </v>
   <v>      -0.14285714      -0.42857143       0.37500000 </v>
   <v>      -0.28571429      -0.28571429       0.37500000 </v>
   <v>      -0.14285714      -0.28571429       0.37500000 </v>
   <v>      -0.14285714      -0.14285714       0.37500000 </v>
   <v>       0.00000000       0.00000000       0.50000000 </v>
   <v>       0.14285714       0.00000000       0.50000000 </v>
   <v>       0.28571429      -0.00000000       0.50000000 </v>
   <v>       0.42857143       0.00000000       0.50000000 </v>
   <v>       0.14285714       0.14285714       0.50000000 </v>
   <v>       0.28571429       0.14285714       0.50000000 </v>
   <v>       0.42857143       0.14285714       0.50000000 </v>
   <v>      -0.42857143       0.14285714       0.50000000 </v>
   <v>      -0.28571429       0.14285714       0.50000000 </v>
   <v>      -0.14285714       0.14285714       0.50000000 </v>
   <v>       0.28571429       0.28571429       0.50000000 </v>
   <v>       0.42857143       0.28571429       0.50000000 </v>
   <v>      -0.42857143       0.28571429       0.50000000 </v>
   <v>      -0.28571429       0.28571429       0.50000000 </v>
   <v>       0.42857143       0.42857143       0.50000000 </v>
   <v>      -0.42857143       0.42857143       0.50000000 </v>
  </varray>
  <varray name="weights" >
   <v>       0.00255102 </v>
   <v>       0.01020408 </v>
   <v>       0.01020408 </v>
   <v>       0.01020408 </v>
   <v>       0.00510204 </v>
   <v>       0.01020408 </v>
   <v>       0.01020408 </v>
   <v>       0.01020408 </v>
   <v>       0.01020408 </v>
   <v>       0.00510204 </v>
   <v>       0.00510204 </v>
   <v>       0.01020408 </v>
   <v>       0.01020408 </v>
   <v>       0.00510204 </v>
   <v>       0.00510204 </v>
   <v>       0.00510204 </v>
   <v>       0.00510204 </v>
   <v>       0.01020408 </v>
   <v>       0.01020408 </v>
   <v>       0.01020408 </v>
   <v>       0.01020408 </v>
   <v>       0.01020408 </v>
   <v>       0.01020408 </v>
   <v>       0.00510204 </v>
   <v>       0.01020408 </v>
   <v>       0.01020408 </v>
   <v>       0.01020408 </v>
   <v>       0.01020408 </v>
   <v>       0.01020408 </v>
   <v>       0.00510204 </v>
   <v>       0.01020408 </v>
   <v>       0.01020408 </v>
   <v>       0.01020408 </v>
   <v>       0.01020408 </v>
   <v>       0.00510204 </v>
   <v>       0.01020408 </v>
   <v>       0.01020408 </v>
   <v>       0.01020408 </v>
   <v>       0.00510204 </v>
   <v>       0.01020408 </v>
   <v>       0.01020408 </v>
   <v>       0.00510204 </v>
   <v>       0.01020408 </v>
   <v>       0.00510204 </v>
   <v>       0.00510204 </v>
   <v>       0.01020408 </v>
   <v>       0.01020408 </v>
   <v>       0.01020408 </v>
   <v>       0.01020408 </v>
   <v>       0.01020408 </v>
   <v>       0.01020408 </v>
   <v>       0.00510204 </v>
   <v>       0.01020408 </v>
   <v>       0.01020408 </v>
   <v>       0.01020408 </v>
   <v>       0.01020408 </v>
   <v>       0.01020408 </v>
   <v>       0.00510204 </v>
   <v>       0.01020408 </v>
   <v>       0.01020408 </v>
   <v>       0.01020408 </v>
   <v>       0.01020408 </v>
   <v>       0.00510204 </v>
   <v>       0.01020408 </v>
   <v>       0.01020408 </v>
   <v>       0.01020408 </v>
   <v>       0.00510204 </v>
   <v>       0.01020408 </v>
   <v>       0.01020408 </v>
   <v>       0.00510204 </v>
   <v>       0.01020408 </v>
   <v>       0.00510204 </v>
   <v>       0.00510204 </v>
   <v>       0.01020408 </v>
   <v>       0.01020408 </v>
   <v>       0.01020408 </v>
   <v>       0.01020408 </v>
   <v>       0.01020408 </v>
   <v>       0.01020408 </v>
   <v>       0.00510204 </v>
   <v>       0.01020408 </v>
   <v>       0.01020408 </v>
   <v>       0.01020408 </v>
   <v>       0.01020408 </v>
   <v>       0.01020408 </v>
   <v>       0.00510204 </v>
   <v>       0.01020408 </v>
   <v>       0.01020408 </v>
   <v>       0.01020408 </v>
   <v>       0.01020408 </v>
   <v>       0.00510204 </v>
   <v>       0.01020408 </v>
   <v>       0.01020408 </v>
   <v>       0.01020408 </v>
   <v>       0.00510204 </v>
   <v>       0.01020408 </v>
   <v>       0.01020408 </v>
   <v>       0.00510204 </v>
   <v>       0.01020408 </v>
   <v>       0.00510204 </v>
   <v>       0.00255102 </v>
   <v>       0.01020408 </v>
   <v>       0.01020408 </v>
   <v>       0.01020408 </v>
   <v>       0.00510204 </v>
   <v>       0.01020408 </v>
   <v>       0.01020408 </v>
   <v>       0.01020408 </v>
   <v>       0.01020408 </v>
   <v>       0.00510204 </v>
   <v>       0.00510204 </v>
   <v>       0.01020408 </v>
   <v>       0.01020408 </v>
   <v>       0.00510204 </v>
   <v>       0.00510204 </v>
   <v>       0.00510204 </v>
  </varray>
 </kpoints>
 <parameters>
  <separator name="general" >
   <i type="string" name="SYSTEM">routine with relax: pwdword</i>
   <i type="logical" name="LCOMPAT"> F  </i>
  </separator>
  <separator name="electronic" >
   <i type="string" name="PREC">acc</i>
   <i name="ENMAX">    600.00000000</i>
   <i name="ENAUG">    535.51400000</i>
   <i name="EDIFF">      0.00000000</i>
   <i type="int" name="IALGO">    58</i>
   <i type="int" name="IWAVPR">    10</i>
   <i type="int" name="NBANDS">    48</i>
   <i type="int" name="NBANDSLOW">    -1</i>
   <i type="int" name="NBANDSHIGH">    -1</i>
   <i name="NELECT">     76.00000000</i>
   <i type="int" name="TURBO">     0</i>
   <i type="int" name="IRESTART">     0</i>
   <i type="int" name="NREBOOT">     0</i>
   <i type="int" name="NMIN">     0</i>
   <i name="EREF">      0.00000000</i>
   <separator name="electronic smearing" >
    <i type="int" name="ISMEAR">     0</i>
    <i name="SIGMA">      0.02000000</i>
    <i name="KSPACING">      0.50000000</i>
    <i type="logical" name="KGAMMA"> T  </i>
    <i type="logical" name="KBLOWUP"> F  </i>
   </separator>
   <separator name="electronic projectors" >
    <i type="logical" name="LREAL"> F  </i>
    <v name="ROPT">      0.00000000      0.00000000      0.00000000</v>
    <i type="int" name="LMAXPAW">  -100</i>
    <i type="int" name="LMAXMIX">     2</i>
    <i type="logical" name="NLSPLINE"> F  </i>
   </separator>
   <separator name="electronic startup" >
    <i type="int" name="ISTART">     0</i>
    <i type="int" name="ICHARG">     2</i>
    <i type="int" name="INIWAV">     1</i>
   </separator>
   <separator name="electronic spin" >
    <i type="int" name="ISPIN">     1</i>
    <i type="logical" name="LNONCOLLINEAR"> F  </i>
    <v name="MAGMOM">      1.00000000      1.00000000      1.00000000      1.00000000      1.00000000      1.00000000      1.00000000      1.00000000      1.00000000      1.00000000</v>
    <i name="NUPDOWN">     -1.00000000</i>
    <i type="logical" name="LSORBIT"> F  </i>
    <v name="SAXIS">      0.00000000      0.00000000      1.00000000</v>
    <i type="logical" name="LSPIRAL"> F  </i>
    <v name="QSPIRAL">      0.00000000      0.00000000      0.00000000</v>
    <i type="logical" name="LZEROZ"> F  </i>
   </separator>
   <separator name="electronic exchange-correlation" >
    <i type="logical" name="LASPH"> T  </i>
    <i type="logical" name="LMETAGGA"> F  </i>
   </separator>
   <separator name="electronic convergence" >
    <i type="int" name="NELM">   100</i>
    <i type="int" name="NELMDL">    -5</i>
    <i type="int" name="NELMIN">     6</i>
    <i name="ENINI">    600.00000000</i>
    <separator name="electronic convergence detail" >
     <i type="logical" name="LDIAG"> T  </i>
     <i type="logical" name="LSUBROT"> F  </i>
     <i name="WEIMIN">      0.00000000</i>
     <i name="EBREAK">      0.00000000</i>
     <i name="DEPER">      0.30000000</i>
     <i type="int" name="NRMM">     4</i>
     <i name="TIME">      0.40000000</i>
    </separator>
   </separator>
   <separator name="electronic mixer" >
    <i name="AMIX">      0.40000000</i>
    <i name="BMIX">      1.00000000</i>
    <i name="AMIN">      0.10000000</i>
    <i name="AMIX_MAG">      1.60000000</i>
    <i name="BMIX_MAG">      1.00000000</i>
    <separator name="electronic mixer details" >
     <i type="int" name="IMIX">     4</i>
     <i type="logical" name="MIXFIRST"> F  </i>
     <i type="int" name="MAXMIX">   -45</i>
     <i name="WC">    100.00000000</i>
     <i type="int" name="INIMIX">     1</i>
     <i type="int" name="MIXPRE">     1</i>
     <i type="int" name="MREMOVE">     5</i>
    </separator>
   </separator>
   <separator name="electronic dipolcorrection" >
    <i type="logical" name="LDIPOL"> F  </i>
    <i type="logical" name="LMONO"> F  </i>
    <i type="int" name="IDIPOL">     0</i>
    <i name="EPSILON">      1.00000000</i>
    <v name="DIPOL">   -100.00000000   -100.00000000   -100.00000000</v>
    <i name="EFIELD">      0.00000000</i>
   </separator>
  </separator>
  <separator name="grids" >
   <i type="int" name="NGX">    50</i>
   <i type="int" name="NGY">    50</i>
   <i type="int" name="NGZ">    50</i>
   <i type="int" name="NGXF">   100</i>
   <i type="int" name="NGYF">   100</i>
   <i type="int" name="NGZF">   100</i>
   <i type="logical" name="ADDGRID"> T  </i>
  </separator>
  <separator name="ionic" >
   <i type="int" name="NSW">     0</i>
   <i type="int" name="IBRION">    -1</i>
   <i type="int" name="MDALGO">     0</i>
   <i type="int" name="ISIF">    -1</i>
   <i name="PSTRESS">      0.00000000</i>
   <i name="EDIFFG">      0.00000001</i>
   <i type="int" name="NFREE">     0</i>
   <i name="POTIM">      0.50000000</i>
   <i name="SMASS">     -3.00000000</i>
   <i name="SCALEE">      1.00000000</i>
  </separator>
  <separator name="ionic md" >
   <i name="TEBEG">      0.00010000</i>
   <i name="TEEND">      0.00010000</i>
   <i type="int" name="NBLOCK">     1</i>
   <i type="int" name="KBLOCK">     1</i>
   <i type="int" name="NPACO">   256</i>
   <i name="APACO">     16.00000000</i>
  </separator>
  <separator name="symmetry" >
   <i type="int" name="ISYM">     2</i>
   <i name="SYMPREC">      0.00010000</i>
  </separator>
  <separator name="dos" >
   <i type="int" name="LORBIT">     0</i>
   <v name="RWIGS">     -1.00000000     -1.00000000     -1.00000000</v>
   <i type="int" name="NEDOS">   301</i>
   <i name="EMIN">     10.00000000</i>
   <i name="EMAX">    -10.00000000</i>
   <i name="EFERMI">      0.00000000</i>
  </separator>
  <separator name="writing" >
   <i type="int" name="NWRITE">     2</i>
   <i type="logical" name="LWAVE"> T  </i>
   <i type="logical" name="LDOWNSAMPLE"> F  </i>
   <i type="logical" name="LCHARG"> T  </i>
   <i type="logical" name="LPARD"> F  </i>
   <i type="logical" name="LVTOT"> F  </i>
   <i type="logical" name="LVHAR"> F  </i>
   <i type="logical" name="LELF"> F  </i>
   <i type="logical" name="LOPTICS"> F  </i>
   <v name="STM">      0.00000000      0.00000000      0.00000000      0.00000000      0.00000000      0.00000000      0.00000000</v>
  </separator>
  <separator name="performance" >
   <i type="int" name="NPAR">     6</i>
   <i type="int" name="NSIM">     4</i>
   <i type="int" name="NBLK">    -1</i>
   <i type="logical" name="LPLANE"> T  </i>
   <i type="logical" name="LSCALAPACK"> T  </i>
   <i type="logical" name="LSCAAWARE"> F  </i>
   <i type="logical" name="LSCALU"> F  </i>
   <i type="logical" name="LASYNC"> F  </i>
   <i type="logical" name="LORBITALREAL"> F  </i>
  </separator>
  <separator name="miscellaneous" >
   <i type="int" name="IDIOT">     3</i>
   <i type="int" name="PHON_NSTRUCT">    -1</i>
   <i type="logical" name="LMUSIC"> F  </i>
   <v name="POMASS">     10.81100000     95.94000000     28.08500000</v>
   <v name="DARWINR">      0.00000000      0.00000000      0.00000000</v>
   <v name="DARWINV">      1.00000000      1.00000000      1.00000000</v>
   <i type="logical" name="LCORR"> T  </i>
  </separator>
  <i type="logical" name="GGA_COMPAT"> T  </i>
  <i type="logical" name="LBERRY"> F  </i>
  <i type="int" name="ICORELEVEL">     0</i>
  <i type="logical" name="LDAU"> F  </i>
  <i type="int" name="I_CONSTRAINED_M">     0</i>
  <separator name="electronic exchange-correlation" >
   <i type="string" name="GGA">--</i>
   <i type="int" name="VOSKOWN">     0</i>
   <i type="logical" name="LHFCALC"> F  </i>
   <i type="string" name="PRECFOCK"></i>
   <i type="logical" name="LSYMGRAD"> F  </i>
   <i type="logical" name="LHFONE"> F  </i>
   <i type="logical" name="LRHFCALC"> F  </i>
   <i type="logical" name="LTHOMAS"> F  </i>
   <i type="logical" name="LMODELHF"> F  </i>
   <i type="logical" name="LFOCKACE"> F  </i>
   <i name="ENCUT4O">     -1.00000000</i>
   <i type="int" name="EXXOEP">     0</i>
   <i type="int" name="FOURORBIT">     0</i>
   <i name="AEXX">      0.00000000</i>
   <i name="HFALPHA">      0.00000000</i>
   <i name="MCALPHA">      0.00000000</i>
   <i name="ALDAX">      1.00000000</i>
   <i name="AGGAX">      1.00000000</i>
   <i name="ALDAC">      1.00000000</i>
   <i name="AGGAC">      1.00000000</i>
   <i type="int" name="NKREDX">     1</i>
   <i type="int" name="NKREDY">     1</i>
   <i type="int" name="NKREDZ">     1</i>
   <i type="logical" name="SHIFTRED"> F  </i>
   <i type="logical" name="ODDONLY"> F  </i>
   <i type="logical" name="EVENONLY"> F  </i>
   <i type="int" name="LMAXFOCK">     0</i>
   <i type="int" name="NMAXFOCKAE">     0</i>
   <i type="logical" name="LFOCKAEDFT"> F  </i>
   <i name="HFSCREEN">      0.00000000</i>
   <i name="HFSCREENC">      0.00000000</i>
   <i type="int" name="NBANDSGWLOW">     0</i>
  </separator>
  <separator name="vdW DFT" >
   <i type="logical" name="LUSE_VDW"> F  </i>
   <i name="Zab_VDW">     -0.84910000</i>
   <i name="PARAM1">      0.12340000</i>
   <i name="PARAM2">      1.00000000</i>
   <i name="PARAM3">      0.00000000</i>
  </separator>
  <separator name="model GW" >
   <i type="int" name="MODEL_GW">     0</i>
   <i name="MODEL_EPS0">     10.14372918</i>
   <i name="MODEL_ALPHA">      1.00000000</i>
  </separator>
  <separator name="linear response parameters" >
   <i type="logical" name="LEPSILON"> F  </i>
   <i type="logical" name="LRPA"> F  </i>
   <i type="logical" name="LNABLA"> F  </i>
   <i type="logical" name="LVEL"> F  </i>
   <i type="int" name="KINTER">     0</i>
   <i name="CSHIFT">      0.10000000</i>
   <i name="OMEGAMAX">     -1.00000000</i>
   <i name="DEG_THRESHOLD">      0.00200000</i>
   <i name="RTIME">     -0.10000000</i>
   <i name="WPLASMAI">      0.00000000</i>
   <v name="DFIELD">      0.00000000      0.00000000      0.00000000</v>
   <v name="WPLASMA">      0.00000000      0.00000000      0.00000000      0.00000000      0.00000000      0.00000000      0.00000000      0.00000000      0.00000000</v>
  </separator>
  <separator name="orbital magnetization" >
   <i type="logical" name="NUCIND"> F  </i>
   <v name="MAGPOS">      0.00000000      0.00000000      0.00000000</v>
   <i type="logical" name="LNICSALL"> T  </i>
   <i type="logical" name="ORBITALMAG"> F  </i>
   <i type="logical" name="LMAGBLOCH"> F  </i>
   <i type="logical" name="LCHIMAG"> F  </i>
   <i type="logical" name="LGAUGE"> T  </i>
   <i type="int" name="MAGATOM">     0</i>
   <v name="MAGDIPOL">      0.00000000      0.00000000      0.00000000</v>
   <v name="AVECCONST">      0.00000000      0.00000000      0.00000000</v>
  </separator>
  <separator name="response functions" >
   <i type="logical" name="LFINITE_TEMPERATURE"> F  </i>
   <i type="logical" name="LADDER"> F  </i>
   <i type="logical" name="LRPAFORCE"> F  </i>
   <i type="logical" name="LFXC"> F  </i>
   <i type="logical" name="LHARTREE"> T  </i>
   <i type="int" name="IBSE">     0</i>
   <v type="int" name="KPOINT">    -1     0     0     0</v>
   <i type="logical" name="LTCTC"> F  </i>
   <i type="logical" name="LTCTE"> F  </i>
   <i type="logical" name="LTETE"> F  </i>
   <i type="logical" name="LTRIPLET"> F  </i>
   <i type="logical" name="LFXCEPS"> F  </i>
   <i type="logical" name="LFXHEG"> F  </i>
   <i type="int" name="NATURALO">     2</i>
   <i type="logical" name="LHOLEGF"> F  </i>
   <i type="logical" name="L2ORDER"> F  </i>
   <i type="logical" name="LDMP1"> F  </i>
   <i type="logical" name="LMP2LT"> F  </i>
   <i type="logical" name="LSMP2LT"> F  </i>
   <i type="logical" name="LGWLF"> F  </i>
   <i name="ENCUTGW">     -2.00000000</i>
   <i name="ENCUTGWSOFT">     -2.00000000</i>
   <i name="ENCUTLF">     -1.00000000</i>
   <i type="logical" name="LESF_SPLINES"> F  </i>
   <i type="int" name="LMAXMP2">    -1</i>
   <i name="SCISSOR">      0.00000000</i>
   <i type="int" name="NOMEGA">     0</i>
   <i type="int" name="NOMEGAR">     0</i>
   <i type="int" name="NBANDSGW">    -1</i>
   <i type="int" name="NBANDSO">    -1</i>
   <i type="int" name="NBANDSV">    -1</i>
   <i type="int" name="NELM">   100</i>
   <i type="int" name="NELMHF">     1</i>
   <i type="int" name="DIM">     3</i>
   <i type="int" name="IESPILON">     4</i>
   <i type="int" name="ANTIRES">     0</i>
   <i name="OMEGAMAX">    -30.00000000</i>
   <i name="OMEGAMIN">    -30.00000000</i>
   <i name="OMEGATL">   -200.00000000</i>
   <i type="int" name="OMEGAGRID">     0</i>
   <i name="CSHIFT">     -0.10000000</i>
   <i type="logical" name="LSELFENERGY"> F  </i>
   <i type="logical" name="LSPECTRAL"> F  </i>
   <i type="logical" name="LSPECTRALGW"> F  </i>
   <i type="logical" name="LSINGLES"> F  </i>
   <i type="logical" name="LFERMIGW"> F  </i>
   <i type="logical" name="ODDONLYGW"> F  </i>
   <i type="logical" name="EVENONLYGW"> F  </i>
   <i type="int" name="NKREDLFX">     1</i>
   <i type="int" name="NKREDLFY">     1</i>
   <i type="int" name="NKREDLFZ">     1</i>
   <i type="int" name="MAXMEM">  2800</i>
   <i type="int" name="TELESCOPE">     0</i>
   <i type="int" name="NTAUPAR">    -1</i>
   <i type="int" name="NOMEGAPAR">    -1</i>
   <i name="DAMP_NEWTON">      0.80000001</i>
   <i name="LAMBDA">      1.00000000</i>
  </separator>
  <separator name="External order field" >
   <i name="OFIELD_KAPPA">      0.00000000</i>
   <v name="OFIELD_K">      0.00000000      0.00000000      0.00000000</v>
   <i name="OFIELD_Q6_NEAR">      0.00000000</i>
   <i name="OFIELD_Q6_FAR">      0.00000000</i>
   <i name="OFIELD_A">      0.00000000</i>
  </separator>
 </parameters>
 <atominfo>
  <atoms>      10 </atoms>
  <types>       3 </types>
  <array name="atoms" >
   <dimension dim="1">ion</dimension>
   <field type="string">element</field>
   <field type="int">atomtype</field>
   <set>
    <rc><c>B </c><c>   1</c></rc>
    <rc><c>B </c><c>   1</c></rc>
    <rc><c>B </c><c>   1</c></rc>
    <rc><c>B </c><c>   1</c></rc>
    <rc><c>Mo</c><c>   2</c></rc>
    <rc><c>Mo</c><c>   2</c></rc>
    <rc><c>Mo</c><c>   2</c></rc>
    <rc><c>Mo</c><c>   2</c></rc>
    <rc><c>Si</c><c>   3</c></rc>
    <rc><c>Si</c><c>   3</c></rc>
   </set>
  </array>
  <array name="atomtypes" >
   <dimension dim="1">type</dimension>
   <field type="int">atomspertype</field>
   <field type="string">element</field>
   <field>mass</field>
   <field>valence</field>
   <field type="string">pseudopotential</field>
   <set>
    <rc><c>   4</c><c>B </c><c>     10.81100000</c><c>      3.00000000</c><c>  PAW_PBE B 06Sep2000                   </c></rc>
    <rc><c>   4</c><c>Mo</c><c>     95.94000000</c><c>     14.00000000</c><c>  PAW_PBE Mo_sv 02Feb2006               </c></rc>
    <rc><c>   2</c><c>Si</c><c>     28.08500000</c><c>      4.00000000</c><c>  PAW_PBE Si 05Jan2001                  </c></rc>
   </set>
  </array>
 </atominfo>
 <structure name="initialpos" >
  <crystal>
   <varray name="basis" >
    <v>       5.45177993       0.00000000      -2.80171402 </v>
    <v>      -2.03144321       5.05916424      -2.80171402 </v>
    <v>       0.00000000       0.00000000       6.12956000 </v>
   </varray>
   <i name="volume">    169.06215301 </i>
   <varray name="rec_basis" >
    <v>       0.18342633       0.07365252       0.00000000 </v>
    <v>       0.00000000       0.19766111       0.00000000 </v>
    <v>       0.08384095       0.12401268       0.16314385 </v>
   </varray>
  </crystal>
  <varray name="positions" >
   <v>       0.24211000       0.74211000       0.98422000 </v>
   <v>       0.75789000       0.25789000       0.01578000 </v>
   <v>       0.74211000       0.75789000       0.50000000 </v>
   <v>       0.25789000       0.24211000       0.50000000 </v>
   <v>       0.50000000       0.00000000       0.50000000 </v>
   <v>       0.25000000       0.75000000       0.50000000 </v>
   <v>       0.75000000       0.25000000       0.50000000 </v>
   <v>       0.00000000       0.50000000       0.50000000 </v>
   <v>       0.25000000       0.25000000       0.00000000 </v>
   <v>       0.75000000       0.75000000       0.00000000 </v>
  </varray>
 </structure>
 <calculation>
  <scstep>
   <time name="total">   16.91   17.65</time>
   <energy>
    <i name="alphaZ">    285.49818234 </i>
    <i name="ewald">  -4903.78226797 </i>
    <i name="hartreedc">  -2765.25657115 </i>
    <i name="XCdc">    325.03003587 </i>
    <i name="pawpsdc">   6278.15209018 </i>
    <i name="pawaedc">  -6244.81064237 </i>
    <i name="eentropy">     -0.00049733 </i>
    <i name="bandstr">   -245.30526053 </i>
    <i name="atom">   7939.94160518 </i>
    <i name="e_fr_energy">    669.46667422 </i>
    <i name="e_wo_entrp">    669.46717155 </i>
    <i name="e_0_energy">    669.46692288 </i>
   </energy>
  </scstep>
  <scstep>
   <time name="total">   17.63   17.81</time>
   <energy>
    <i name="e_fr_energy">   -124.57709151 </i>
    <i name="e_wo_entrp">   -124.57548844 </i>
    <i name="e_0_energy">   -124.57628998 </i>
   </energy>
  </scstep>
  <scstep>
   <time name="total">   19.48   19.69</time>
   <energy>
    <i name="e_fr_energy">   -157.50458647 </i>
    <i name="e_wo_entrp">   -157.50265484 </i>
    <i name="e_0_energy">   -157.50362066 </i>
   </energy>
  </scstep>
  <scstep>
   <time name="total">   18.62   18.82</time>
   <energy>
    <i name="e_fr_energy">   -158.14391881 </i>
    <i name="e_wo_entrp">   -158.14178629 </i>
    <i name="e_0_energy">   -158.14285255 </i>
   </energy>
  </scstep>
  <scstep>
   <time name="total">   21.04   21.26</time>
   <energy>
    <i name="e_fr_energy">   -158.16074672 </i>
    <i name="e_wo_entrp">   -158.15863320 </i>
    <i name="e_0_energy">   -158.15968996 </i>
   </energy>
  </scstep>
  <scstep>
   <time name="total">   20.22   20.43</time>
   <energy>
    <i name="e_fr_energy">   -119.05400232 </i>
    <i name="e_wo_entrp">   -119.05199862 </i>
    <i name="e_0_energy">   -119.05300047 </i>
   </energy>
  </scstep>
  <scstep>
   <time name="total">   20.40   20.60</time>
   <energy>
    <i name="e_fr_energy">   -126.12879507 </i>
    <i name="e_wo_entrp">   -126.12720578 </i>
    <i name="e_0_energy">   -126.12800042 </i>
   </energy>
  </scstep>
  <scstep>
   <time name="total">   20.23   20.43</time>
   <energy>
    <i name="e_fr_energy">   -127.64156175 </i>
    <i name="e_wo_entrp">   -127.64018575 </i>
    <i name="e_0_energy">   -127.64087375 </i>
   </energy>
  </scstep>
  <scstep>
   <time name="total">   20.08   20.26</time>
   <energy>
    <i name="e_fr_energy">   -128.02162438 </i>
    <i name="e_wo_entrp">   -128.02012048 </i>
    <i name="e_0_energy">   -128.02087243 </i>
   </energy>
  </scstep>
  <scstep>
   <time name="total">   19.16   19.34</time>
   <energy>
    <i name="e_fr_energy">   -128.18721142 </i>
    <i name="e_wo_entrp">   -128.18554010 </i>
    <i name="e_0_energy">   -128.18637576 </i>
   </energy>
  </scstep>
  <scstep>
   <time name="total">   19.63   19.82</time>
   <energy>
    <i name="e_fr_energy">   -128.24082105 </i>
    <i name="e_wo_entrp">   -128.23920418 </i>
    <i name="e_0_energy">   -128.24001261 </i>
   </energy>
  </scstep>
  <scstep>
   <time name="total">   19.51   19.69</time>
   <energy>
    <i name="e_fr_energy">   -128.26250518 </i>
    <i name="e_wo_entrp">   -128.26101905 </i>
    <i name="e_0_energy">   -128.26176211 </i>
   </energy>
  </scstep>
  <scstep>
   <time name="total">   20.38   20.57</time>
   <energy>
    <i name="e_fr_energy">   -128.27135054 </i>
    <i name="e_wo_entrp">   -128.26996777 </i>
    <i name="e_0_energy">   -128.27065915 </i>
   </energy>
  </scstep>
  <scstep>
   <time name="total">   19.30   19.47</time>
   <energy>
    <i name="e_fr_energy">   -128.27569969 </i>
    <i name="e_wo_entrp">   -128.27436344 </i>
    <i name="e_0_energy">   -128.27503156 </i>
   </energy>
  </scstep>
  <scstep>
   <time name="total">   20.15   20.33</time>
   <energy>
    <i name="e_fr_energy">   -128.27768932 </i>
    <i name="e_wo_entrp">   -128.27637688 </i>
    <i name="e_0_energy">   -128.27703310 </i>
   </energy>
  </scstep>
  <scstep>
   <time name="total">   19.52   19.71</time>
   <energy>
    <i name="e_fr_energy">   -128.27858065 </i>
    <i name="e_wo_entrp">   -128.27727956 </i>
    <i name="e_0_energy">   -128.27793011 </i>
   </energy>
  </scstep>
  <scstep>
   <time name="total">   19.69   19.88</time>
   <energy>
    <i name="e_fr_energy">   -128.27890617 </i>
    <i name="e_wo_entrp">   -128.27760676 </i>
    <i name="e_0_energy">   -128.27825647 </i>
   </energy>
  </scstep>
  <scstep>
   <time name="total">   19.29   19.47</time>
   <energy>
    <i name="e_fr_energy">   -128.27902300 </i>
    <i name="e_wo_entrp">   -128.27772530 </i>
    <i name="e_0_energy">   -128.27837415 </i>
   </energy>
  </scstep>
  <scstep>
   <time name="total">   19.83   20.01</time>
   <energy>
    <i name="e_fr_energy">   -128.27906925 </i>
    <i name="e_wo_entrp">   -128.27776899 </i>
    <i name="e_0_energy">   -128.27841912 </i>
   </energy>
  </scstep>
  <scstep>
   <time name="total">   19.59   19.77</time>
   <energy>
    <i name="e_fr_energy">   -128.27909094 </i>
    <i name="e_wo_entrp">   -128.27778920 </i>
    <i name="e_0_energy">   -128.27844007 </i>
   </energy>
  </scstep>
  <scstep>
   <time name="total">   19.80   19.98</time>
   <energy>
    <i name="e_fr_energy">   -128.27909958 </i>
    <i name="e_wo_entrp">   -128.27779540 </i>
    <i name="e_0_energy">   -128.27844749 </i>
   </energy>
  </scstep>
  <scstep>
   <time name="total">   19.57   19.75</time>
   <energy>
    <i name="e_fr_energy">   -128.27910347 </i>
    <i name="e_wo_entrp">   -128.27779818 </i>
    <i name="e_0_energy">   -128.27845082 </i>
   </energy>
  </scstep>
  <scstep>
   <time name="total">   19.61   19.79</time>
   <energy>
    <i name="e_fr_energy">   -128.27910486 </i>
    <i name="e_wo_entrp">   -128.27779859 </i>
    <i name="e_0_energy">   -128.27845172 </i>
   </energy>
  </scstep>
  <scstep>
   <time name="total">   19.30   19.48</time>
   <energy>
    <i name="e_fr_energy">   -128.27910539 </i>
    <i name="e_wo_entrp">   -128.27779902 </i>
    <i name="e_0_energy">   -128.27845221 </i>
   </energy>
  </scstep>
  <scstep>
   <time name="total">   19.79   19.97</time>
   <energy>
    <i name="e_fr_energy">   -128.27910552 </i>
    <i name="e_wo_entrp">   -128.27779914 </i>
    <i name="e_0_energy">   -128.27845233 </i>
   </energy>
  </scstep>
  <scstep>
   <time name="total">   20.18   20.36</time>
   <energy>
    <i name="e_fr_energy">   -128.27910562 </i>
    <i name="e_wo_entrp">   -128.27779916 </i>
    <i name="e_0_energy">   -128.27845239 </i>
   </energy>
  </scstep>
  <scstep>
   <time name="total">   19.35   19.54</time>
   <energy>
    <i name="e_fr_energy">   -128.27910569 </i>
    <i name="e_wo_entrp">   -128.27779930 </i>
    <i name="e_0_energy">   -128.27845250 </i>
   </energy>
  </scstep>
  <scstep>
   <time name="total">   19.97   20.16</time>
   <energy>
    <i name="e_fr_energy">   -128.27910572 </i>
    <i name="e_wo_entrp">   -128.27779939 </i>
    <i name="e_0_energy">   -128.27845255 </i>
   </energy>
  </scstep>
  <scstep>
   <time name="total">   19.14   19.32</time>
   <energy>
    <i name="e_fr_energy">   -128.27910573 </i>
    <i name="e_wo_entrp">   -128.27779943 </i>
    <i name="e_0_energy">   -128.27845258 </i>
   </energy>
  </scstep>
  <scstep>
   <time name="total">   19.82   20.01</time>
   <energy>
    <i name="e_fr_energy">   -128.27910573 </i>
    <i name="e_wo_entrp">   -128.27779942 </i>
    <i name="e_0_energy">   -128.27845257 </i>
   </energy>
  </scstep>
  <scstep>
   <time name="total">   19.38   19.56</time>
   <energy>
    <i name="e_fr_energy">   -128.27910573 </i>
    <i name="e_wo_entrp">   -128.27779943 </i>
    <i name="e_0_energy">   -128.27845258 </i>
   </energy>
  </scstep>
  <scstep>
   <time name="total">   23.06   23.34</time>
   <energy>
    <i name="alphaZ">    285.49818234 </i>
    <i name="ewald">  -4903.78226797 </i>
    <i name="hartreedc">  -2743.65766447 </i>
    <i name="XCdc">    333.47122165 </i>
    <i name="pawpsdc">   9572.47049632 </i>
    <i name="pawaedc">  -9548.43691007 </i>
    <i name="eentropy">     -0.00130628 </i>
    <i name="bandstr">  -1063.78246241 </i>
    <i name="atom">   7939.94160518 </i>
    <i name="e_fr_energy">   -128.27910573 </i>
    <i name="e_wo_entrp">   -128.27779945 </i>
    <i name="e_0_energy">   -128.27845259 </i>
   </energy>
  </scstep>
  <structure>
   <crystal>
    <varray name="basis" >
     <v>       5.45177993       0.00000000      -2.80171402 </v>
     <v>      -2.03144321       5.05916424      -2.80171402 </v>
     <v>       0.00000000       0.00000000       6.12956000 </v>
    </varray>
    <i name="volume">    169.06215301 </i>
    <varray name="rec_basis" >
     <v>       0.18342633       0.07365252       0.00000000 </v>
     <v>       0.00000000       0.19766111       0.00000000 </v>
     <v>       0.08384095       0.12401268       0.16314385 </v>
    </varray>
   </crystal>
   <varray name="positions" >
    <v>       0.24211000       0.74211000       0.98422000 </v>
    <v>       0.75789000       0.25789000       0.01578000 </v>
    <v>       0.74211000       0.75789000       0.50000000 </v>
    <v>       0.25789000       0.24211000       0.50000000 </v>
    <v>       0.50000000       0.00000000       0.50000000 </v>
    <v>       0.25000000       0.75000000       0.50000000 </v>
    <v>       0.75000000       0.25000000       0.50000000 </v>
    <v>       0.00000000       0.50000000       0.50000000 </v>
    <v>       0.25000000       0.25000000       0.00000000 </v>
    <v>       0.75000000       0.75000000       0.00000000 </v>
   </varray>
  </structure>
  <varray name="forces" >
   <v>       0.00000000       0.00000000       0.00000000 </v>
   <v>       0.00000000       0.00000000       0.00000000 </v>
   <v>       0.00000000       0.00000000       0.00000000 </v>
   <v>       0.00000000       0.00000000       0.00000000 </v>
   <v>       0.00000000       0.00000000       0.00000000 </v>
   <v>       0.00000000       0.00000000       0.00000000 </v>
   <v>       0.00000000       0.00000000       0.00000000 </v>
   <v>       0.00000000       0.00000000       0.00000000 </v>
   <v>       0.00000000       0.00000000       0.00000000 </v>
   <v>       0.00000000       0.00000000       0.00000000 </v>
  </varray>
  <varray name="stress" >
   <v>       0.00000000       0.00000000       0.00000000 </v>
   <v>       0.00000000       0.00000000       0.00000000 </v>
   <v>       0.00000000       0.00000000       0.00000000 </v>
  </varray>
  <energy>
   <i name="e_fr_energy">   -128.27910573 </i>
   <i name="e_wo_entrp">   -128.27779945 </i>
   <i name="e_0_energy">   -128.27845259 </i>
  </energy>
  <time name="totalsc">  632.52  639.21</time>
  <eigenvalues>
   <array>
    <dimension dim="1">band</dimension>
    <dimension dim="2">kpoint</dimension>
    <dimension dim="3">spin</dimension>
    <field>eigene</field>
    <field>occ</field>
    <set>
     <set comment="spin 1">
      <set comment="kpoint 1">
       <r>  -57.4741    1.0000 </r>
       <r>  -56.8718    1.0000 </r>
       <r>  -56.3191    1.0000 </r>
       <r>  -55.5645    1.0000 </r>
       <r>  -34.2317    1.0000 </r>
       <r>  -30.9533    1.0000 </r>
       <r>  -30.5296    1.0000 </r>
       <r>  -30.4212    1.0000 </r>
       <r>  -30.4211    1.0000 </r>
       <r>  -30.0406    1.0000 </r>
       <r>  -30.0405    1.0000 </r>
       <r>  -29.5491    1.0000 </r>
       <r>  -29.5489    1.0000 </r>
       <r>  -29.1036    1.0000 </r>
       <r>  -29.1034    1.0000 </r>
       <r>  -26.5129    1.0000 </r>
       <r>   -3.8660    1.0000 </r>
       <r>   -0.6367    1.0000 </r>
       <r>   -0.3967    1.0000 </r>
       <r>    0.4674    1.0000 </r>
       <r>    0.4676    1.0000 </r>
       <r>    0.8092    1.0000 </r>
       <r>    1.1583    1.0000 </r>
       <r>    1.1585    1.0000 </r>
       <r>    1.8060    1.0000 </r>
       <r>    2.0298    1.0000 </r>
       <r>    2.2435    1.0000 </r>
       <r>    2.2437    1.0000 </r>
       <r>    2.5348    1.0000 </r>
       <r>    3.1273    1.0000 </r>
       <r>    4.0292    1.0000 </r>
       <r>    4.0293    1.0000 </r>
       <r>    4.4687    1.0000 </r>
       <r>    4.6796    1.0000 </r>
       <r>    6.0139    1.0000 </r>
       <r>    6.1144    1.0000 </r>
       <r>    6.1145    1.0000 </r>
       <r>    6.4048    0.4284 </r>
       <r>    6.6491    0.0000 </r>
       <r>    6.9592    0.0000 </r>
       <r>    6.9960    0.0000 </r>
       <r>    6.9961    0.0000 </r>
       <r>    7.8811    0.0000 </r>
       <r>    7.9654    0.0000 </r>
       <r>    8.2931    0.0000 </r>
       <r>    8.3220    0.0000 </r>
       <r>    8.3237    0.0000 </r>
       <r>    8.3595    0.0000 </r>
      </set>
      <set comment="kpoint 2">
       <r>  -57.4555    1.0000 </r>
       <r>  -56.9337    1.0000 </r>
       <r>  -56.2499    1.0000 </r>
       <r>  -55.5907    1.0000 </r>
       <r>  -34.1488    1.0000 </r>
       <r>  -31.5834    1.0000 </r>
       <r>  -30.4087    1.0000 </r>
       <r>  -30.4085    1.0000 </r>
       <r>  -30.0738    1.0000 </r>
       <r>  -30.0736    1.0000 </r>
       <r>  -29.8659    1.0000 </r>
       <r>  -29.5132    1.0000 </r>
       <r>  -29.5130    1.0000 </r>
       <r>  -29.1189    1.0000 </r>
       <r>  -29.1187    1.0000 </r>
       <r>  -26.6356    1.0000 </r>
       <r>   -3.7469    1.0000 </r>
       <r>   -0.8010    1.0000 </r>
       <r>   -0.3827    1.0000 </r>
       <r>    0.1963    1.0000 </r>
       <r>    0.3990    1.0000 </r>
       <r>    0.9508    1.0000 </r>
       <r>    1.1816    1.0000 </r>
       <r>    1.2097    1.0000 </r>
       <r>    1.7810    1.0000 </r>
       <r>    1.9809    1.0000 </r>
       <r>    2.2088    1.0000 </r>
       <r>    2.3667    1.0000 </r>
       <r>    2.7213    1.0000 </r>
       <r>    3.1547    1.0000 </r>
       <r>    3.6872    1.0000 </r>
       <r>    4.0629    1.0000 </r>
       <r>    4.7667    1.0000 </r>
       <r>    5.1201    1.0000 </r>
       <r>    5.4169    1.0000 </r>
       <r>    5.8507    1.0000 </r>
       <r>    6.3511    0.9999 </r>
       <r>    6.4366    0.0077 </r>
       <r>    6.5094    0.0000 </r>
       <r>    6.7892    0.0000 </r>
       <r>    7.2847    0.0000 </r>
       <r>    7.5246    0.0000 </r>
       <r>    7.6990    0.0000 </r>
       <r>    7.9839    0.0000 </r>
       <r>    7.9905    0.0000 </r>
       <r>    8.0343    0.0000 </r>
       <r>    8.2192    0.0000 </r>
       <r>    8.6786    0.0000 </r>
      </set>
      <set comment="kpoint 3">
       <r>  -57.4008    1.0000 </r>
       <r>  -57.0619    1.0000 </r>
       <r>  -56.1008    1.0000 </r>
       <r>  -55.6669    1.0000 </r>
       <r>  -33.9036    1.0000 </r>
       <r>  -32.3198    1.0000 </r>
       <r>  -30.3717    1.0000 </r>
       <r>  -30.3715    1.0000 </r>
       <r>  -30.1493    1.0000 </r>
       <r>  -30.1491    1.0000 </r>
       <r>  -29.4305    1.0000 </r>
       <r>  -29.4303    1.0000 </r>
       <r>  -29.1631    1.0000 </r>
       <r>  -29.1630    1.0000 </r>
       <r>  -29.0337    1.0000 </r>
       <r>  -26.9904    1.0000 </r>
       <r>   -3.3964    1.0000 </r>
       <r>   -1.3588    1.0000 </r>
       <r>   -0.3353    1.0000 </r>
       <r>   -0.0072    1.0000 </r>
       <r>    0.2241    1.0000 </r>
       <r>    0.8191    1.0000 </r>
       <r>    1.3543    1.0000 </r>
       <r>    1.3746    1.0000 </r>
       <r>    1.8028    1.0000 </r>
       <r>    1.8122    1.0000 </r>
       <r>    2.0838    1.0000 </r>
       <r>    3.0866    1.0000 </r>
       <r>    3.1844    1.0000 </r>
       <r>    3.2714    1.0000 </r>
       <r>    3.3457    1.0000 </r>
       <r>    4.0802    1.0000 </r>
       <r>    4.6409    1.0000 </r>
       <r>    4.9849    1.0000 </r>
       <r>    5.5582    1.0000 </r>
       <r>    5.6497    1.0000 </r>
       <r>    5.9483    1.0000 </r>
       <r>    6.0517    1.0000 </r>
       <r>    6.6067    0.0000 </r>
       <r>    6.9094    0.0000 </r>
       <r>    7.1034    0.0000 </r>
       <r>    7.5766    0.0000 </r>
       <r>    7.6811    0.0000 </r>
       <r>    7.6928    0.0000 </r>
       <r>    8.1760    0.0000 </r>
       <r>    8.4274    0.0000 </r>
       <r>    8.9126    0.0000 </r>
       <r>    9.2148    0.0000 </r>
      </set>
      <set comment="kpoint 4">
       <r>  -57.3126    1.0000 </r>
       <r>  -57.1962    1.0000 </r>
       <r>  -55.9363    1.0000 </r>
       <r>  -55.7859    1.0000 </r>
       <r>  -33.5057    1.0000 </r>
       <r>  -32.9708    1.0000 </r>
       <r>  -30.3135    1.0000 </r>
       <r>  -30.3134    1.0000 </r>
       <r>  -30.2333    1.0000 </r>
       <r>  -30.2331    1.0000 </r>
       <r>  -29.3400    1.0000 </r>
       <r>  -29.3398    1.0000 </r>
       <r>  -29.2278    1.0000 </r>
       <r>  -29.2276    1.0000 </r>
       <r>  -28.2405    1.0000 </r>
       <r>  -27.5416    1.0000 </r>
       <r>   -2.8381    1.0000 </r>
       <r>   -2.1221    1.0000 </r>
       <r>   -0.2081    1.0000 </r>
       <r>    0.0016    1.0000 </r>
       <r>    0.0805    1.0000 </r>
       <r>    0.3736    1.0000 </r>
       <r>    1.5383    1.0000 </r>
       <r>    1.5461    1.0000 </r>
       <r>    1.6995    1.0000 </r>
       <r>    1.8653    1.0000 </r>
       <r>    2.5509    1.0000 </r>
       <r>    3.1841    1.0000 </r>
       <r>    3.3267    1.0000 </r>
       <r>    3.4026    1.0000 </r>
       <r>    3.5973    1.0000 </r>
       <r>    3.8988    1.0000 </r>
       <r>    4.5213    1.0000 </r>
       <r>    5.0035    1.0000 </r>
       <r>    5.1527    1.0000 </r>
       <r>    5.5122    1.0000 </r>
       <r>    5.7161    1.0000 </r>
       <r>    5.7860    1.0000 </r>
       <r>    6.3493    0.9999 </r>
       <r>    6.4211    0.0916 </r>
       <r>    7.3691    0.0000 </r>
       <r>    7.5647    0.0000 </r>
       <r>    8.0313    0.0000 </r>
       <r>    8.0570    0.0000 </r>
       <r>    8.8399    0.0000 </r>
       <r>    8.8987    0.0000 </r>
       <r>    9.0032    0.0000 </r>
       <r>    9.1461    0.0000 </r>
      </set>
      <set comment="kpoint 5">
       <r>  -57.4008    1.0000 </r>
       <r>  -57.0619    1.0000 </r>
       <r>  -56.1008    1.0000 </r>
       <r>  -55.6669    1.0000 </r>
       <r>  -33.9037    1.0000 </r>
       <r>  -32.3198    1.0000 </r>
       <r>  -30.3718    1.0000 </r>
       <r>  -30.3707    1.0000 </r>
       <r>  -30.1499    1.0000 </r>
       <r>  -30.1492    1.0000 </r>
       <r>  -29.4305    1.0000 </r>
       <r>  -29.4304    1.0000 </r>
       <r>  -29.1632    1.0000 </r>
       <r>  -29.1629    1.0000 </r>
       <r>  -29.0336    1.0000 </r>
       <r>  -26.9904    1.0000 </r>
       <r>   -3.5489    1.0000 </r>
       <r>   -1.0949    1.0000 </r>
       <r>   -0.3698    1.0000 </r>
       <r>   -0.0586    1.0000 </r>
       <r>    0.3870    1.0000 </r>
       <r>    0.9634    1.0000 </r>
       <r>    1.4187    1.0000 </r>
       <r>    1.4708    1.0000 </r>
       <r>    1.8047    1.0000 </r>
       <r>    1.9533    1.0000 </r>
       <r>    1.9578    1.0000 </r>
       <r>    2.6376    1.0000 </r>
       <r>    2.7878    1.0000 </r>
       <r>    3.2766    1.0000 </r>
       <r>    3.6013    1.0000 </r>
       <r>    3.7831    1.0000 </r>
       <r>    4.9062    1.0000 </r>
       <r>    5.2248    1.0000 </r>
       <r>    5.5724    1.0000 </r>
       <r>    5.6289    1.0000 </r>
       <r>    5.6561    1.0000 </r>
       <r>    5.9932    1.0000 </r>
       <r>    6.6332    0.0000 </r>
       <r>    6.8099    0.0000 </r>
       <r>    7.4183    0.0000 </r>
       <r>    7.4583    0.0000 </r>
       <r>    7.5846    0.0000 </r>
       <r>    8.1195    0.0000 </r>
       <r>    8.3468    0.0000 </r>
       <r>    8.5152    0.0000 </r>
       <r>    8.7622    0.0000 </r>
       <r>    8.9062    0.0000 </r>
      </set>
      <set comment="kpoint 6">
       <r>  -57.3126    1.0000 </r>
       <r>  -57.1962    1.0000 </r>
       <r>  -55.9363    1.0000 </r>
       <r>  -55.7859    1.0000 </r>
       <r>  -33.5059    1.0000 </r>
       <r>  -32.9706    1.0000 </r>
       <r>  -30.3137    1.0000 </r>
       <r>  -30.3120    1.0000 </r>
       <r>  -30.2345    1.0000 </r>
       <r>  -30.2331    1.0000 </r>
       <r>  -29.3400    1.0000 </r>
       <r>  -29.3398    1.0000 </r>
       <r>  -29.2279    1.0000 </r>
       <r>  -29.2274    1.0000 </r>
       <r>  -28.2404    1.0000 </r>
       <r>  -27.5417    1.0000 </r>
       <r>   -3.1253    1.0000 </r>
       <r>   -1.6207    1.0000 </r>
       <r>   -0.5168    1.0000 </r>
       <r>   -0.2723    1.0000 </r>
       <r>    0.4384    1.0000 </r>
       <r>    0.5547    1.0000 </r>
       <r>    1.6140    1.0000 </r>
       <r>    1.6964    1.0000 </r>
       <r>    1.7971    1.0000 </r>
       <r>    1.8919    1.0000 </r>
       <r>    2.5280    1.0000 </r>
       <r>    2.6861    1.0000 </r>
       <r>    3.2774    1.0000 </r>
       <r>    3.3735    1.0000 </r>
       <r>    3.5077    1.0000 </r>
       <r>    3.7647    1.0000 </r>
       <r>    4.2486    1.0000 </r>
       <r>    5.0403    1.0000 </r>
       <r>    5.4295    1.0000 </r>
       <r>    5.4786    1.0000 </r>
       <r>    5.6312    1.0000 </r>
       <r>    6.0036    1.0000 </r>
       <r>    6.5759    0.0000 </r>
       <r>    6.7450    0.0000 </r>
       <r>    7.0729    0.0000 </r>
       <r>    7.5279    0.0000 </r>
       <r>    8.1168    0.0000 </r>
       <r>    8.2150    0.0000 </r>
       <r>    8.4518    0.0000 </r>
       <r>    8.7331    0.0000 </r>
       <r>    9.3187    0.0000 </r>
       <r>    9.3863    0.0000 </r>
      </set>
      <set comment="kpoint 7">
       <r>  -57.3126    1.0000 </r>
       <r>  -57.1962    1.0000 </r>
       <r>  -55.9362    1.0000 </r>
       <r>  -55.7860    1.0000 </r>
       <r>  -33.5055    1.0000 </r>
       <r>  -32.9709    1.0000 </r>
       <r>  -30.3151    1.0000 </r>
       <r>  -30.3133    1.0000 </r>
       <r>  -30.2335    1.0000 </r>
       <r>  -30.2314    1.0000 </r>
       <r>  -29.3401    1.0000 </r>
       <r>  -29.3395    1.0000 </r>
       <r>  -29.2279    1.0000 </r>
       <r>  -29.2277    1.0000 </r>
       <r>  -28.2406    1.0000 </r>
       <r>  -27.5416    1.0000 </r>
       <r>   -2.5051    1.0000 </r>
       <r>   -2.3151    1.0000 </r>
       <r>   -0.5775    1.0000 </r>
       <r>   -0.3544    1.0000 </r>
       <r>    0.2784    1.0000 </r>
       <r>    0.5054    1.0000 </r>
       <r>    1.3896    1.0000 </r>
       <r>    1.5377    1.0000 </r>
       <r>    2.0226    1.0000 </r>
       <r>    2.1262    1.0000 </r>
       <r>    2.4331    1.0000 </r>
       <r>    3.1269    1.0000 </r>
       <r>    3.3141    1.0000 </r>
       <r>    3.4287    1.0000 </r>
       <r>    3.5159    1.0000 </r>
       <r>    3.9001    1.0000 </r>
       <r>    4.6749    1.0000 </r>
       <r>    4.7972    1.0000 </r>
       <r>    5.2288    1.0000 </r>
       <r>    5.5042    1.0000 </r>
       <r>    5.7483    1.0000 </r>
       <r>    5.9336    1.0000 </r>
       <r>    6.1070    1.0000 </r>
       <r>    6.3949    0.6996 </r>
       <r>    7.4361    0.0000 </r>
       <r>    7.5258    0.0000 </r>
       <r>    7.9959    0.0000 </r>
       <r>    8.2075    0.0000 </r>
       <r>    8.9277    0.0000 </r>
       <r>    9.0032    0.0000 </r>
       <r>    9.0546    0.0000 </r>
       <r>    9.4598    0.0000 </r>
      </set>
      <set comment="kpoint 8">
       <r>  -57.4008    1.0000 </r>
       <r>  -57.0619    1.0000 </r>
       <r>  -56.1008    1.0000 </r>
       <r>  -55.6669    1.0000 </r>
       <r>  -33.9034    1.0000 </r>
       <r>  -32.3200    1.0000 </r>
       <r>  -30.3734    1.0000 </r>
       <r>  -30.3715    1.0000 </r>
       <r>  -30.1495    1.0000 </r>
       <r>  -30.1474    1.0000 </r>
       <r>  -29.4307    1.0000 </r>
       <r>  -29.4298    1.0000 </r>
       <r>  -29.1632    1.0000 </r>
       <r>  -29.1630    1.0000 </r>
       <r>  -29.0338    1.0000 </r>
       <r>  -26.9903    1.0000 </r>
       <r>   -2.9586    1.0000 </r>
       <r>   -1.7514    1.0000 </r>
       <r>   -0.5549    1.0000 </r>
       <r>   -0.4026    1.0000 </r>
       <r>    0.2138    1.0000 </r>
       <r>    0.6737    1.0000 </r>
       <r>    1.1948    1.0000 </r>
       <r>    1.3513    1.0000 </r>
       <r>    1.7685    1.0000 </r>
       <r>    2.1253    1.0000 </r>
       <r>    2.2925    1.0000 </r>
       <r>    3.2703    1.0000 </r>
       <r>    3.3335    1.0000 </r>
       <r>    3.5258    1.0000 </r>
       <r>    3.6147    1.0000 </r>
       <r>    3.8700    1.0000 </r>
       <r>    4.6532    1.0000 </r>
       <r>    5.3211    1.0000 </r>
       <r>    5.3850    1.0000 </r>
       <r>    5.5039    1.0000 </r>
       <r>    5.6903    1.0000 </r>
       <r>    6.2962    1.0000 </r>
       <r>    6.3544    0.9996 </r>
       <r>    6.6993    0.0000 </r>
       <r>    7.0843    0.0000 </r>
       <r>    7.4856    0.0000 </r>
       <r>    7.7904    0.0000 </r>
       <r>    8.0705    0.0000 </r>
       <r>    8.2215    0.0000 </r>
       <r>    8.4261    0.0000 </r>
       <r>    8.5640    0.0000 </r>
       <r>    9.4815    0.0000 </r>
      </set>
      <set comment="kpoint 9">
       <r>  -57.4555    1.0000 </r>
       <r>  -56.9337    1.0000 </r>
       <r>  -56.2498    1.0000 </r>
       <r>  -55.5907    1.0000 </r>
       <r>  -34.1487    1.0000 </r>
       <r>  -31.5835    1.0000 </r>
       <r>  -30.4101    1.0000 </r>
       <r>  -30.4085    1.0000 </r>
       <r>  -30.0739    1.0000 </r>
       <r>  -30.0723    1.0000 </r>
       <r>  -29.8660    1.0000 </r>
       <r>  -29.5134    1.0000 </r>
       <r>  -29.5125    1.0000 </r>
       <r>  -29.1188    1.0000 </r>
       <r>  -29.1188    1.0000 </r>
       <r>  -26.6355    1.0000 </r>
       <r>   -3.4391    1.0000 </r>
       <r>   -1.0341    1.0000 </r>
       <r>   -0.5203    1.0000 </r>
       <r>   -0.2752    1.0000 </r>
       <r>    0.2175    1.0000 </r>
       <r>    0.8418    1.0000 </r>
       <r>    0.9819    1.0000 </r>
       <r>    1.2169    1.0000 </r>
       <r>    1.6021    1.0000 </r>
       <r>    2.1612    1.0000 </r>
       <r>    2.3850    1.0000 </r>
       <r>    2.9327    1.0000 </r>
       <r>    3.0471    1.0000 </r>
       <r>    3.2909    1.0000 </r>
       <r>    3.6186    1.0000 </r>
       <r>    3.9222    1.0000 </r>
       <r>    4.9875    1.0000 </r>
       <r>    5.3398    1.0000 </r>
       <r>    5.5852    1.0000 </r>
       <r>    5.6447    1.0000 </r>
       <r>    6.3089    1.0000 </r>
       <r>    6.4208    0.0954 </r>
       <r>    6.6168    0.0000 </r>
       <r>    6.9789    0.0000 </r>
       <r>    7.0330    0.0000 </r>
       <r>    7.1499    0.0000 </r>
       <r>    7.3838    0.0000 </r>
       <r>    7.7144    0.0000 </r>
       <r>    8.0422    0.0000 </r>
       <r>    8.2123    0.0000 </r>
       <r>    8.5530    0.0000 </r>
       <r>    9.3059    0.0000 </r>
      </set>
      <set comment="kpoint 10">
       <r>  -57.4741    1.0000 </r>
       <r>  -56.8718    1.0000 </r>
       <r>  -56.3191    1.0000 </r>
       <r>  -55.5645    1.0000 </r>
       <r>  -34.2316    1.0000 </r>
       <r>  -30.9533    1.0000 </r>
       <r>  -30.5297    1.0000 </r>
       <r>  -30.4220    1.0000 </r>
       <r>  -30.4211    1.0000 </r>
       <r>  -30.0407    1.0000 </r>
       <r>  -30.0398    1.0000 </r>
       <r>  -29.5492    1.0000 </r>
       <r>  -29.5486    1.0000 </r>
       <r>  -29.1035    1.0000 </r>
       <r>  -29.1035    1.0000 </r>
       <r>  -26.5129    1.0000 </r>
       <r>   -3.7088    1.0000 </r>
       <r>   -0.7280    1.0000 </r>
       <r>   -0.4379    1.0000 </r>
       <r>    0.1004    1.0000 </r>
       <r>    0.2413    1.0000 </r>
       <r>    0.7841    1.0000 </r>
       <r>    1.0234    1.0000 </r>
       <r>    1.1667    1.0000 </r>
       <r>    1.8197    1.0000 </r>
       <r>    2.1985    1.0000 </r>
       <r>    2.2329    1.0000 </r>
       <r>    2.4969    1.0000 </r>
       <r>    2.7784    1.0000 </r>
       <r>    3.3281    1.0000 </r>
       <r>    3.4655    1.0000 </r>
       <r>    4.0980    1.0000 </r>
       <r>    4.9583    1.0000 </r>
       <r>    5.1378    1.0000 </r>
       <r>    5.5734    1.0000 </r>
       <r>    6.1037    1.0000 </r>
       <r>    6.3198    1.0000 </r>
       <r>    6.3316    1.0000 </r>
       <r>    6.3445    1.0000 </r>
       <r>    6.6469    0.0000 </r>
       <r>    7.4081    0.0000 </r>
       <r>    7.5462    0.0000 </r>
       <r>    7.6185    0.0000 </r>
       <r>    7.6982    0.0000 </r>
       <r>    7.8713    0.0000 </r>
       <r>    8.3767    0.0000 </r>
       <r>    8.4247    0.0000 </r>
       <r>    8.9658    0.0000 </r>
      </set>
      <set comment="kpoint 11">
       <r>  -57.3126    1.0000 </r>
       <r>  -57.1962    1.0000 </r>
       <r>  -55.9362    1.0000 </r>
       <r>  -55.7860    1.0000 </r>
       <r>  -33.5055    1.0000 </r>
       <r>  -32.9710    1.0000 </r>
       <r>  -30.3159    1.0000 </r>
       <r>  -30.3132    1.0000 </r>
       <r>  -30.2336    1.0000 </r>
       <r>  -30.2307    1.0000 </r>
       <r>  -29.3402    1.0000 </r>
       <r>  -29.3393    1.0000 </r>
       <r>  -29.2279    1.0000 </r>
       <r>  -29.2276    1.0000 </r>
       <r>  -28.2406    1.0000 </r>
       <r>  -27.5415    1.0000 </r>
       <r>   -2.6421    1.0000 </r>
       <r>   -1.8553    1.0000 </r>
       <r>   -1.0961    1.0000 </r>
       <r>   -0.4800    1.0000 </r>
       <r>    0.3097    1.0000 </r>
       <r>    0.6518    1.0000 </r>
       <r>    1.5461    1.0000 </r>
       <r>    1.5922    1.0000 </r>
       <r>    2.1117    1.0000 </r>
       <r>    2.2269    1.0000 </r>
       <r>    2.4164    1.0000 </r>
       <r>    2.9391    1.0000 </r>
       <r>    3.0341    1.0000 </r>
       <r>    3.5057    1.0000 </r>
       <r>    3.6965    1.0000 </r>
       <r>    3.8854    1.0000 </r>
       <r>    4.3378    1.0000 </r>
       <r>    4.7529    1.0000 </r>
       <r>    5.1453    1.0000 </r>
       <r>    5.7533    1.0000 </r>
       <r>    5.7979    1.0000 </r>
       <r>    5.9397    1.0000 </r>
       <r>    6.2369    1.0000 </r>
       <r>    6.9481    0.0000 </r>
       <r>    6.9621    0.0000 </r>
       <r>    7.0394    0.0000 </r>
       <r>    8.4079    0.0000 </r>
       <r>    8.4842    0.0000 </r>
       <r>    8.6545    0.0000 </r>
       <r>    9.2156    0.0000 </r>
       <r>    9.4036    0.0000 </r>
       <r>    9.5684    0.0000 </r>
      </set>
      <set comment="kpoint 12">
       <r>  -57.4008    1.0000 </r>
       <r>  -57.0620    1.0000 </r>
       <r>  -56.1008    1.0000 </r>
       <r>  -55.6669    1.0000 </r>
       <r>  -33.9033    1.0000 </r>
       <r>  -32.3201    1.0000 </r>
       <r>  -30.3750    1.0000 </r>
       <r>  -30.3713    1.0000 </r>
       <r>  -30.1497    1.0000 </r>
       <r>  -30.1461    1.0000 </r>
       <r>  -29.4309    1.0000 </r>
       <r>  -29.4294    1.0000 </r>
       <r>  -29.1633    1.0000 </r>
       <r>  -29.1629    1.0000 </r>
       <r>  -29.0339    1.0000 </r>
       <r>  -26.9903    1.0000 </r>
       <r>   -2.3274    1.0000 </r>
       <r>   -1.9892    1.0000 </r>
       <r>   -1.2492    1.0000 </r>
       <r>   -0.6752    1.0000 </r>
       <r>    0.1535    1.0000 </r>
       <r>    0.6774    1.0000 </r>
       <r>    1.3644    1.0000 </r>
       <r>    1.4067    1.0000 </r>
       <r>    1.7455    1.0000 </r>
       <r>    2.5315    1.0000 </r>
       <r>    2.5961    1.0000 </r>
       <r>    2.8452    1.0000 </r>
       <r>    3.1682    1.0000 </r>
       <r>    3.5540    1.0000 </r>
       <r>    3.6071    1.0000 </r>
       <r>    4.1355    1.0000 </r>
       <r>    4.8951    1.0000 </r>
       <r>    5.1381    1.0000 </r>
       <r>    5.4291    1.0000 </r>
       <r>    5.6150    1.0000 </r>
       <r>    5.8026    1.0000 </r>
       <r>    5.9339    1.0000 </r>
       <r>    6.2298    1.0000 </r>
       <r>    6.6415    0.0000 </r>
       <r>    6.9006    0.0000 </r>
       <r>    7.3898    0.0000 </r>
       <r>    7.6995    0.0000 </r>
       <r>    8.4303    0.0000 </r>
       <r>    8.5488    0.0000 </r>
       <r>    8.9019    0.0000 </r>
       <r>    8.9698    0.0000 </r>
       <r>    9.5319    0.0000 </r>
      </set>
      <set comment="kpoint 13">
       <r>  -57.4555    1.0000 </r>
       <r>  -56.9337    1.0000 </r>
       <r>  -56.2498    1.0000 </r>
       <r>  -55.5908    1.0000 </r>
       <r>  -34.1485    1.0000 </r>
       <r>  -31.5836    1.0000 </r>
       <r>  -30.4120    1.0000 </r>
       <r>  -30.4082    1.0000 </r>
       <r>  -30.0741    1.0000 </r>
       <r>  -30.0707    1.0000 </r>
       <r>  -29.8661    1.0000 </r>
       <r>  -29.5136    1.0000 </r>
       <r>  -29.5120    1.0000 </r>
       <r>  -29.1190    1.0000 </r>
       <r>  -29.1187    1.0000 </r>
       <r>  -26.6355    1.0000 </r>
       <r>   -2.8642    1.0000 </r>
       <r>   -1.2779    1.0000 </r>
       <r>   -1.0674    1.0000 </r>
       <r>   -0.7300    1.0000 </r>
       <r>    0.0109    1.0000 </r>
       <r>    0.6828    1.0000 </r>
       <r>    0.9676    1.0000 </r>
       <r>    1.2355    1.0000 </r>
       <r>    1.7285    1.0000 </r>
       <r>    2.1951    1.0000 </r>
       <r>    2.7887    1.0000 </r>
       <r>    2.9019    1.0000 </r>
       <r>    3.3264    1.0000 </r>
       <r>    3.5850    1.0000 </r>
       <r>    3.7695    1.0000 </r>
       <r>    3.9141    1.0000 </r>
       <r>    5.0724    1.0000 </r>
       <r>    5.2577    1.0000 </r>
       <r>    5.4494    1.0000 </r>
       <r>    5.9680    1.0000 </r>
       <r>    6.1008    1.0000 </r>
       <r>    6.4324    0.0166 </r>
       <r>    6.5790    0.0000 </r>
       <r>    6.8520    0.0000 </r>
       <r>    7.0367    0.0000 </r>
       <r>    7.0703    0.0000 </r>
       <r>    7.2153    0.0000 </r>
       <r>    7.8976    0.0000 </r>
       <r>    8.0215    0.0000 </r>
       <r>    8.5326    0.0000 </r>
       <r>    8.7004    0.0000 </r>
       <r>    9.0114    0.0000 </r>
      </set>
      <set comment="kpoint 14">
       <r>  -57.4740    1.0000 </r>
       <r>  -56.8719    1.0000 </r>
       <r>  -56.3191    1.0000 </r>
       <r>  -55.5645    1.0000 </r>
       <r>  -34.2314    1.0000 </r>
       <r>  -30.9534    1.0000 </r>
       <r>  -30.5299    1.0000 </r>
       <r>  -30.4239    1.0000 </r>
       <r>  -30.4209    1.0000 </r>
       <r>  -30.0409    1.0000 </r>
       <r>  -30.0382    1.0000 </r>
       <r>  -29.5494    1.0000 </r>
       <r>  -29.5480    1.0000 </r>
       <r>  -29.1036    1.0000 </r>
       <r>  -29.1034    1.0000 </r>
       <r>  -26.5128    1.0000 </r>
       <r>   -3.2549    1.0000 </r>
       <r>   -0.9025    1.0000 </r>
       <r>   -0.7869    1.0000 </r>
       <r>   -0.4795    1.0000 </r>
       <r>   -0.0765    1.0000 </r>
       <r>    0.7638    1.0000 </r>
       <r>    0.7805    1.0000 </r>
       <r>    1.1826    1.0000 </r>
       <r>    1.7161    1.0000 </r>
       <r>    2.0873    1.0000 </r>
       <r>    2.8516    1.0000 </r>
       <r>    2.9315    1.0000 </r>
       <r>    3.1337    1.0000 </r>
       <r>    3.1431    1.0000 </r>
       <r>    3.9122    1.0000 </r>
       <r>    3.9332    1.0000 </r>
       <r>    5.1299    1.0000 </r>
       <r>    5.6380    1.0000 </r>
       <r>    5.6554    1.0000 </r>
       <r>    5.9039    1.0000 </r>
       <r>    6.0697    1.0000 </r>
       <r>    6.1702    1.0000 </r>
       <r>    6.2714    1.0000 </r>
       <r>    6.9468    0.0000 </r>
       <r>    7.1487    0.0000 </r>
       <r>    7.2923    0.0000 </r>
       <r>    7.3869    0.0000 </r>
       <r>    7.8928    0.0000 </r>
       <r>    8.2776    0.0000 </r>
       <r>    8.3126    0.0000 </r>
       <r>    8.5364    0.0000 </r>
       <r>    8.9930    0.0000 </r>
      </set>
      <set comment="kpoint 15">
       <r>  -57.4555    1.0000 </r>
       <r>  -56.9338    1.0000 </r>
       <r>  -56.2498    1.0000 </r>
       <r>  -55.5908    1.0000 </r>
       <r>  -34.1484    1.0000 </r>
       <r>  -31.5837    1.0000 </r>
       <r>  -30.4129    1.0000 </r>
       <r>  -30.4081    1.0000 </r>
       <r>  -30.0742    1.0000 </r>
       <r>  -30.0700    1.0000 </r>
       <r>  -29.8662    1.0000 </r>
       <r>  -29.5138    1.0000 </r>
       <r>  -29.5117    1.0000 </r>
       <r>  -29.1190    1.0000 </r>
       <r>  -29.1186    1.0000 </r>
       <r>  -26.6355    1.0000 </r>
       <r>   -2.2974    1.0000 </r>
       <r>   -1.7076    1.0000 </r>
       <r>   -1.3741    1.0000 </r>
       <r>   -0.8708    1.0000 </r>
       <r>   -0.0683    1.0000 </r>
       <r>    0.5977    1.0000 </r>
       <r>    1.0139    1.0000 </r>
       <r>    1.2432    1.0000 </r>
       <r>    2.1335    1.0000 </r>
       <r>    2.1905    1.0000 </r>
       <r>    2.5684    1.0000 </r>
       <r>    2.8586    1.0000 </r>
       <r>    3.1880    1.0000 </r>
       <r>    3.7707    1.0000 </r>
       <r>    3.9615    1.0000 </r>
       <r>    4.2004    1.0000 </r>
       <r>    4.9133    1.0000 </r>
       <r>    5.3924    1.0000 </r>
       <r>    5.4425    1.0000 </r>
       <r>    5.7988    1.0000 </r>
       <r>    6.0984    1.0000 </r>
       <r>    6.2657    1.0000 </r>
       <r>    6.7445    0.0000 </r>
       <r>    6.7542    0.0000 </r>
       <r>    6.7963    0.0000 </r>
       <r>    7.1389    0.0000 </r>
       <r>    7.3157    0.0000 </r>
       <r>    7.5955    0.0000 </r>
       <r>    8.5516    0.0000 </r>
       <r>    8.7435    0.0000 </r>
       <r>    8.8345    0.0000 </r>
       <r>    9.4766    0.0000 </r>
      </set>
      <set comment="kpoint 16">
       <r>  -57.4740    1.0000 </r>
       <r>  -56.8719    1.0000 </r>
       <r>  -56.3191    1.0000 </r>
       <r>  -55.5646    1.0000 </r>
       <r>  -34.2312    1.0000 </r>
       <r>  -30.9535    1.0000 </r>
       <r>  -30.5301    1.0000 </r>
       <r>  -30.4255    1.0000 </r>
       <r>  -30.4207    1.0000 </r>
       <r>  -30.0411    1.0000 </r>
       <r>  -30.0369    1.0000 </r>
       <r>  -29.5497    1.0000 </r>
       <r>  -29.5475    1.0000 </r>
       <r>  -29.1037    1.0000 </r>
       <r>  -29.1033    1.0000 </r>
       <r>  -26.5128    1.0000 </r>
       <r>   -2.5845    1.0000 </r>
       <r>   -1.5369    1.0000 </r>
       <r>   -1.0211    1.0000 </r>
       <r>   -0.8256    1.0000 </r>
       <r>   -0.2565    1.0000 </r>
       <r>    0.5860    1.0000 </r>
       <r>    0.8299    1.0000 </r>
       <r>    1.1941    1.0000 </r>
       <r>    1.9895    1.0000 </r>
       <r>    2.1892    1.0000 </r>
       <r>    2.6502    1.0000 </r>
       <r>    2.8521    1.0000 </r>
       <r>    3.1043    1.0000 </r>
       <r>    3.9829    1.0000 </r>
       <r>    4.1308    1.0000 </r>
       <r>    4.2662    1.0000 </r>
       <r>    4.8630    1.0000 </r>
       <r>    4.9540    1.0000 </r>
       <r>    5.8802    1.0000 </r>
       <r>    5.9557    1.0000 </r>
       <r>    6.1654    1.0000 </r>
       <r>    6.2954    1.0000 </r>
       <r>    6.5283    0.0000 </r>
       <r>    6.5521    0.0000 </r>
       <r>    7.1720    0.0000 </r>
       <r>    7.3186    0.0000 </r>
       <r>    7.5351    0.0000 </r>
       <r>    7.9494    0.0000 </r>
       <r>    8.1365    0.0000 </r>
       <r>    8.2397    0.0000 </r>
       <r>    8.7859    0.0000 </r>
       <r>    8.8585    0.0000 </r>
      </set>
      <set comment="kpoint 17">
       <r>  -57.4741    1.0000 </r>
       <r>  -56.8718    1.0000 </r>
       <r>  -56.3191    1.0000 </r>
       <r>  -55.5645    1.0000 </r>
       <r>  -34.2316    1.0000 </r>
       <r>  -30.9533    1.0000 </r>
       <r>  -30.5297    1.0000 </r>
       <r>  -30.4219    1.0000 </r>
       <r>  -30.4210    1.0000 </r>
       <r>  -30.0406    1.0000 </r>
       <r>  -30.0401    1.0000 </r>
       <r>  -29.5490    1.0000 </r>
       <r>  -29.5488    1.0000 </r>
       <r>  -29.1036    1.0000 </r>
       <r>  -29.1034    1.0000 </r>
       <r>  -26.5129    1.0000 </r>
       <r>   -3.7454    1.0000 </r>
       <r>   -0.7086    1.0000 </r>
       <r>   -0.4236    1.0000 </r>
       <r>    0.1710    1.0000 </r>
       <r>    0.2840    1.0000 </r>
       <r>    0.7892    1.0000 </r>
       <r>    1.0520    1.0000 </r>
       <r>    1.1651    1.0000 </r>
       <r>    1.8578    1.0000 </r>
       <r>    2.1436    1.0000 </r>
       <r>    2.2086    1.0000 </r>
       <r>    2.4399    1.0000 </r>
       <r>    2.7495    1.0000 </r>
       <r>    3.2689    1.0000 </r>
       <r>    3.5460    1.0000 </r>
       <r>    4.0895    1.0000 </r>
       <r>    4.8962    1.0000 </r>
       <r>    5.0337    1.0000 </r>
       <r>    5.6452    1.0000 </r>
       <r>    6.1063    1.0000 </r>
       <r>    6.2696    1.0000 </r>
       <r>    6.3400    1.0000 </r>
       <r>    6.4253    0.0520 </r>
       <r>    6.6541    0.0000 </r>
       <r>    7.4657    0.0000 </r>
       <r>    7.5362    0.0000 </r>
       <r>    7.5433    0.0000 </r>
       <r>    7.7354    0.0000 </r>
       <r>    7.8993    0.0000 </r>
       <r>    8.3644    0.0000 </r>
       <r>    8.4137    0.0000 </r>
       <r>    8.9830    0.0000 </r>
      </set>
      <set comment="kpoint 18">
       <r>  -57.4555    1.0000 </r>
       <r>  -56.9337    1.0000 </r>
       <r>  -56.2498    1.0000 </r>
       <r>  -55.5907    1.0000 </r>
       <r>  -34.1487    1.0000 </r>
       <r>  -31.5835    1.0000 </r>
       <r>  -30.4100    1.0000 </r>
       <r>  -30.4083    1.0000 </r>
       <r>  -30.0738    1.0000 </r>
       <r>  -30.0727    1.0000 </r>
       <r>  -29.8660    1.0000 </r>
       <r>  -29.5132    1.0000 </r>
       <r>  -29.5128    1.0000 </r>
       <r>  -29.1190    1.0000 </r>
       <r>  -29.1186    1.0000 </r>
       <r>  -26.6355    1.0000 </r>
       <r>   -3.4936    1.0000 </r>
       <r>   -1.0003    1.0000 </r>
       <r>   -0.4836    1.0000 </r>
       <r>   -0.2115    1.0000 </r>
       <r>    0.2474    1.0000 </r>
       <r>    0.8582    1.0000 </r>
       <r>    1.0055    1.0000 </r>
       <r>    1.2146    1.0000 </r>
       <r>    1.6164    1.0000 </r>
       <r>    2.1449    1.0000 </r>
       <r>    2.3321    1.0000 </r>
       <r>    2.8668    1.0000 </r>
       <r>    3.0030    1.0000 </r>
       <r>    3.3370    1.0000 </r>
       <r>    3.5519    1.0000 </r>
       <r>    3.9402    1.0000 </r>
       <r>    5.0161    1.0000 </r>
       <r>    5.2596    1.0000 </r>
       <r>    5.5470    1.0000 </r>
       <r>    5.6810    1.0000 </r>
       <r>    6.3336    1.0000 </r>
       <r>    6.4342    0.0120 </r>
       <r>    6.6328    0.0000 </r>
       <r>    6.9359    0.0000 </r>
       <r>    7.0541    0.0000 </r>
       <r>    7.1737    0.0000 </r>
       <r>    7.4300    0.0000 </r>
       <r>    7.7419    0.0000 </r>
       <r>    7.9935    0.0000 </r>
       <r>    8.1803    0.0000 </r>
       <r>    8.5875    0.0000 </r>
       <r>    9.2163    0.0000 </r>
      </set>
      <set comment="kpoint 19">
       <r>  -57.4008    1.0000 </r>
       <r>  -57.0619    1.0000 </r>
       <r>  -56.1008    1.0000 </r>
       <r>  -55.6669    1.0000 </r>
       <r>  -33.9034    1.0000 </r>
       <r>  -32.3200    1.0000 </r>
       <r>  -30.3733    1.0000 </r>
       <r>  -30.3713    1.0000 </r>
       <r>  -30.1493    1.0000 </r>
       <r>  -30.1478    1.0000 </r>
       <r>  -29.4305    1.0000 </r>
       <r>  -29.4301    1.0000 </r>
       <r>  -29.1633    1.0000 </r>
       <r>  -29.1628    1.0000 </r>
       <r>  -29.0338    1.0000 </r>
       <r>  -26.9903    1.0000 </r>
       <r>   -3.0271    1.0000 </r>
       <r>   -1.7079    1.0000 </r>
       <r>   -0.5001    1.0000 </r>
       <r>   -0.3437    1.0000 </r>
       <r>    0.2189    1.0000 </r>
       <r>    0.6730    1.0000 </r>
       <r>    1.2041    1.0000 </r>
       <r>    1.3496    1.0000 </r>
       <r>    1.7722    1.0000 </r>
       <r>    2.0673    1.0000 </r>
       <r>    2.2574    1.0000 </r>
       <r>    3.2625    1.0000 </r>
       <r>    3.3403    1.0000 </r>
       <r>    3.5174    1.0000 </r>
       <r>    3.6375    1.0000 </r>
       <r>    3.8498    1.0000 </r>
       <r>    4.5893    1.0000 </r>
       <r>    5.2818    1.0000 </r>
       <r>    5.4109    1.0000 </r>
       <r>    5.5795    1.0000 </r>
       <r>    5.6855    1.0000 </r>
       <r>    6.3182    1.0000 </r>
       <r>    6.3459    1.0000 </r>
       <r>    6.7391    0.0000 </r>
       <r>    7.0882    0.0000 </r>
       <r>    7.4591    0.0000 </r>
       <r>    7.7924    0.0000 </r>
       <r>    8.0069    0.0000 </r>
       <r>    8.1893    0.0000 </r>
       <r>    8.4927    0.0000 </r>
       <r>    8.5354    0.0000 </r>
       <r>    9.3907    0.0000 </r>
      </set>
      <set comment="kpoint 20">
       <r>  -57.3126    1.0000 </r>
       <r>  -57.1962    1.0000 </r>
       <r>  -55.9362    1.0000 </r>
       <r>  -55.7860    1.0000 </r>
       <r>  -33.5056    1.0000 </r>
       <r>  -32.9709    1.0000 </r>
       <r>  -30.3151    1.0000 </r>
       <r>  -30.3132    1.0000 </r>
       <r>  -30.2333    1.0000 </r>
       <r>  -30.2318    1.0000 </r>
       <r>  -29.3399    1.0000 </r>
       <r>  -29.3397    1.0000 </r>
       <r>  -29.2280    1.0000 </r>
       <r>  -29.2275    1.0000 </r>
       <r>  -28.2405    1.0000 </r>
       <r>  -27.5416    1.0000 </r>
       <r>   -2.4694    1.0000 </r>
       <r>   -2.3892    1.0000 </r>
       <r>   -0.4935    1.0000 </r>
       <r>   -0.3222    1.0000 </r>
       <r>    0.2661    1.0000 </r>
       <r>    0.4698    1.0000 </r>
       <r>    1.3863    1.0000 </r>
       <r>    1.5363    1.0000 </r>
       <r>    1.9784    1.0000 </r>
       <r>    2.0781    1.0000 </r>
       <r>    2.4616    1.0000 </r>
       <r>    3.1604    1.0000 </r>
       <r>    3.3594    1.0000 </r>
       <r>    3.4132    1.0000 </r>
       <r>    3.5172    1.0000 </r>
       <r>    3.8875    1.0000 </r>
       <r>    4.7247    1.0000 </r>
       <r>    4.7979    1.0000 </r>
       <r>    5.2624    1.0000 </r>
       <r>    5.4399    1.0000 </r>
       <r>    5.6906    1.0000 </r>
       <r>    5.9573    1.0000 </r>
       <r>    6.1454    1.0000 </r>
       <r>    6.3380    1.0000 </r>
       <r>    7.4826    0.0000 </r>
       <r>    7.5671    0.0000 </r>
       <r>    7.9581    0.0000 </r>
       <r>    8.1656    0.0000 </r>
       <r>    8.9240    0.0000 </r>
       <r>    8.9482    0.0000 </r>
       <r>    9.0503    0.0000 </r>
       <r>    9.4021    0.0000 </r>
      </set>
      <set comment="kpoint 21">
       <r>  -57.3126    1.0000 </r>
       <r>  -57.1962    1.0000 </r>
       <r>  -55.9363    1.0000 </r>
       <r>  -55.7859    1.0000 </r>
       <r>  -33.5059    1.0000 </r>
       <r>  -32.9706    1.0000 </r>
       <r>  -30.3135    1.0000 </r>
       <r>  -30.3122    1.0000 </r>
       <r>  -30.2345    1.0000 </r>
       <r>  -30.2330    1.0000 </r>
       <r>  -29.3402    1.0000 </r>
       <r>  -29.3397    1.0000 </r>
       <r>  -29.2277    1.0000 </r>
       <r>  -29.2276    1.0000 </r>
       <r>  -28.2404    1.0000 </r>
       <r>  -27.5417    1.0000 </r>
       <r>   -3.1047    1.0000 </r>
       <r>   -1.6779    1.0000 </r>
       <r>   -0.4627    1.0000 </r>
       <r>   -0.2523    1.0000 </r>
       <r>    0.4016    1.0000 </r>
       <r>    0.5409    1.0000 </r>
       <r>    1.5932    1.0000 </r>
       <r>    1.6874    1.0000 </r>
       <r>    1.7842    1.0000 </r>
       <r>    1.8760    1.0000 </r>
       <r>    2.5337    1.0000 </r>
       <r>    2.7727    1.0000 </r>
       <r>    3.2385    1.0000 </r>
       <r>    3.3753    1.0000 </r>
       <r>    3.5116    1.0000 </r>
       <r>    3.8153    1.0000 </r>
       <r>    4.2671    1.0000 </r>
       <r>    5.0441    1.0000 </r>
       <r>    5.4115    1.0000 </r>
       <r>    5.4578    1.0000 </r>
       <r>    5.6249    1.0000 </r>
       <r>    6.0246    1.0000 </r>
       <r>    6.5245    0.0000 </r>
       <r>    6.6898    0.0000 </r>
       <r>    7.1277    0.0000 </r>
       <r>    7.5641    0.0000 </r>
       <r>    8.0667    0.0000 </r>
       <r>    8.1815    0.0000 </r>
       <r>    8.4884    0.0000 </r>
       <r>    8.7716    0.0000 </r>
       <r>    9.2863    0.0000 </r>
       <r>    9.3952    0.0000 </r>
      </set>
      <set comment="kpoint 22">
       <r>  -57.4008    1.0000 </r>
       <r>  -57.0619    1.0000 </r>
       <r>  -56.1008    1.0000 </r>
       <r>  -55.6669    1.0000 </r>
       <r>  -33.9037    1.0000 </r>
       <r>  -32.3198    1.0000 </r>
       <r>  -30.3716    1.0000 </r>
       <r>  -30.3709    1.0000 </r>
       <r>  -30.1500    1.0000 </r>
       <r>  -30.1490    1.0000 </r>
       <r>  -29.4307    1.0000 </r>
       <r>  -29.4302    1.0000 </r>
       <r>  -29.1630    1.0000 </r>
       <r>  -29.1630    1.0000 </r>
       <r>  -29.0336    1.0000 </r>
       <r>  -26.9904    1.0000 </r>
       <r>   -3.5465    1.0000 </r>
       <r>   -1.1004    1.0000 </r>
       <r>   -0.3685    1.0000 </r>
       <r>   -0.0554    1.0000 </r>
       <r>    0.3825    1.0000 </r>
       <r>    0.9611    1.0000 </r>
       <r>    1.4172    1.0000 </r>
       <r>    1.4689    1.0000 </r>
       <r>    1.8052    1.0000 </r>
       <r>    1.9284    1.0000 </r>
       <r>    1.9793    1.0000 </r>
       <r>    2.6501    1.0000 </r>
       <r>    2.7932    1.0000 </r>
       <r>    3.2770    1.0000 </r>
       <r>    3.5777    1.0000 </r>
       <r>    3.8087    1.0000 </r>
       <r>    4.9009    1.0000 </r>
       <r>    5.2092    1.0000 </r>
       <r>    5.5880    1.0000 </r>
       <r>    5.6280    1.0000 </r>
       <r>    5.6561    1.0000 </r>
       <r>    5.9948    1.0000 </r>
       <r>    6.6340    0.0000 </r>
       <r>    6.8108    0.0000 </r>
       <r>    7.4080    0.0000 </r>
       <r>    7.4646    0.0000 </r>
       <r>    7.5860    0.0000 </r>
       <r>    8.1204    0.0000 </r>
       <r>    8.3266    0.0000 </r>
       <r>    8.5085    0.0000 </r>
[...]
       <r>  -55.5908    1.0000 </r>
       <r>  -34.1480    1.0000 </r>
       <r>  -31.5840    1.0000 </r>
       <r>  -30.4123    1.0000 </r>
       <r>  -30.4122    1.0000 </r>
       <r>  -30.0707    1.0000 </r>
       <r>  -30.0703    1.0000 </r>
       <r>  -29.8665    1.0000 </r>
       <r>  -29.5125    1.0000 </r>
       <r>  -29.5122    1.0000 </r>
       <r>  -29.1188    1.0000 </r>
       <r>  -29.1187    1.0000 </r>
       <r>  -26.6354    1.0000 </r>
       <r>   -2.4117    1.0000 </r>
       <r>   -1.7411    1.0000 </r>
       <r>   -1.3097    1.0000 </r>
       <r>   -0.2866    1.0000 </r>
       <r>    0.0159    1.0000 </r>
       <r>    0.1436    1.0000 </r>
       <r>    0.7256    1.0000 </r>
       <r>    0.7467    1.0000 </r>
       <r>    0.8392    1.0000 </r>
       <r>    2.5929    1.0000 </r>
       <r>    2.7759    1.0000 </r>
       <r>    3.4829    1.0000 </r>
       <r>    3.5597    1.0000 </r>
       <r>    4.0327    1.0000 </r>
       <r>    4.5380    1.0000 </r>
       <r>    4.6675    1.0000 </r>
       <r>    4.6802    1.0000 </r>
       <r>    5.5112    1.0000 </r>
       <r>    5.9877    1.0000 </r>
       <r>    6.1617    1.0000 </r>
       <r>    6.5819    0.0000 </r>
       <r>    6.7172    0.0000 </r>
       <r>    7.0633    0.0000 </r>
       <r>    7.2471    0.0000 </r>
       <r>    7.4222    0.0000 </r>
       <r>    7.4486    0.0000 </r>
       <r>    7.6170    0.0000 </r>
       <r>    7.7303    0.0000 </r>
       <r>    7.8796    0.0000 </r>
       <r>    7.9281    0.0000 </r>
       <r>    8.2661    0.0000 </r>
       <r>    8.9722    0.0000 </r>
      </set>
      <set comment="kpoint 116">
       <r>  -57.4740    1.0000 </r>
       <r>  -56.8720    1.0000 </r>
       <r>  -56.3190    1.0000 </r>
       <r>  -55.5646    1.0000 </r>
       <r>  -34.2308    1.0000 </r>
       <r>  -30.9537    1.0000 </r>
       <r>  -30.5306    1.0000 </r>
       <r>  -30.4253    1.0000 </r>
       <r>  -30.4249    1.0000 </r>
       <r>  -30.0372    1.0000 </r>
       <r>  -30.0372    1.0000 </r>
       <r>  -29.5482    1.0000 </r>
       <r>  -29.5481    1.0000 </r>
       <r>  -29.1035    1.0000 </r>
       <r>  -29.1033    1.0000 </r>
       <r>  -26.5127    1.0000 </r>
       <r>   -2.0367    1.0000 </r>
       <r>   -1.7768    1.0000 </r>
       <r>   -1.7474    1.0000 </r>
       <r>   -0.3108    1.0000 </r>
       <r>   -0.0019    1.0000 </r>
       <r>    0.1715    1.0000 </r>
       <r>    0.6546    1.0000 </r>
       <r>    0.6825    1.0000 </r>
       <r>    0.6875    1.0000 </r>
       <r>    2.5418    1.0000 </r>
       <r>    2.7487    1.0000 </r>
       <r>    3.8367    1.0000 </r>
       <r>    3.8658    1.0000 </r>
       <r>    3.8947    1.0000 </r>
       <r>    4.4870    1.0000 </r>
       <r>    4.6765    1.0000 </r>
       <r>    4.8453    1.0000 </r>
       <r>    5.6936    1.0000 </r>
       <r>    5.8917    1.0000 </r>
       <r>    6.2029    1.0000 </r>
       <r>    6.7560    0.0000 </r>
       <r>    6.8565    0.0000 </r>
       <r>    7.2194    0.0000 </r>
       <r>    7.4879    0.0000 </r>
       <r>    7.5149    0.0000 </r>
       <r>    7.5433    0.0000 </r>
       <r>    7.6154    0.0000 </r>
       <r>    7.6477    0.0000 </r>
       <r>    7.7728    0.0000 </r>
       <r>    7.7903    0.0000 </r>
       <r>    8.1045    0.0000 </r>
       <r>    9.0168    0.0000 </r>
      </set>
     </set>
    </set>
   </array>
  </eigenvalues>
  <separator name="orbital magnetization" >
   <v name="MAGDIPOLOUT">      0.00000000      0.00000000      0.00000000</v>
  </separator>
  <dos>
   <i name="efermi">      6.40230479 </i>
   <total>
    <array>
     <dimension dim="1">gridpoints</dimension>
     <dimension dim="2">spin</dimension>
     <field>energy</field>
     <field>total</field>
     <field>integrated</field>
     <set>
      <set comment="spin 1">
       <r>   -60.8342     0.0000     0.0000 </r>
       <r>   -60.5878     0.0000     0.0000 </r>
       <r>   -60.3414     0.0000     0.0000 </r>
       <r>   -60.0950     0.0000     0.0000 </r>
       <r>   -59.8486     0.0000     0.0000 </r>
       <r>   -59.6022     0.0000     0.0000 </r>
       <r>   -59.3558     0.0000     0.0000 </r>
       <r>   -59.1093     0.0000     0.0000 </r>
       <r>   -58.8629     0.0000     0.0000 </r>
       <r>   -58.6165     0.0000     0.0000 </r>
       <r>   -58.3701     0.0000     0.0000 </r>
       <r>   -58.1237     0.0000     0.0000 </r>
       <r>   -57.8773     0.0000     0.0000 </r>
       <r>   -57.6309     0.0000     0.0000 </r>
       <r>   -57.3845     5.5098     1.3577 </r>
       <r>   -57.1380     2.3189     2.5714 </r>
       <r>   -56.8916     2.4102     3.7368 </r>
       <r>   -56.6452     0.0000     4.0000 </r>
       <r>   -56.3988     0.0000     4.0000 </r>
       <r>   -56.1524     2.3193     4.8572 </r>
       <r>   -55.9060     2.2815     5.9908 </r>
       <r>   -55.6596     3.9395     6.9707 </r>
       <r>   -55.4132     1.1595     8.0000 </r>
       <r>   -55.1667     0.0000     8.0000 </r>
       <r>   -54.9203     0.0000     8.0000 </r>
       <r>   -54.6739     0.0000     8.0000 </r>
       <r>   -54.4275     0.0000     8.0000 </r>
       <r>   -54.1811     0.0000     8.0000 </r>
       <r>   -53.9347     0.0000     8.0000 </r>
       <r>   -53.6883     0.0000     8.0000 </r>
       <r>   -53.4419     0.0000     8.0000 </r>
       <r>   -53.1954     0.0000     8.0000 </r>
       <r>   -52.9490     0.0000     8.0000 </r>
       <r>   -52.7026     0.0000     8.0000 </r>
       <r>   -52.4562     0.0000     8.0000 </r>
       <r>   -52.2098     0.0000     8.0000 </r>
       <r>   -51.9634     0.0000     8.0000 </r>
       <r>   -51.7170     0.0000     8.0000 </r>
       <r>   -51.4706     0.0000     8.0000 </r>
       <r>   -51.2241     0.0000     8.0000 </r>
       <r>   -50.9777     0.0000     8.0000 </r>
       <r>   -50.7313     0.0000     8.0000 </r>
       <r>   -50.4849     0.0000     8.0000 </r>
       <r>   -50.2385     0.0000     8.0000 </r>
       <r>   -49.9921     0.0000     8.0000 </r>
       <r>   -49.7457     0.0000     8.0000 </r>
       <r>   -49.4993     0.0000     8.0000 </r>
       <r>   -49.2528     0.0000     8.0000 </r>
       <r>   -49.0064     0.0000     8.0000 </r>
       <r>   -48.7600     0.0000     8.0000 </r>
       <r>   -48.5136     0.0000     8.0000 </r>
       <r>   -48.2672     0.0000     8.0000 </r>
       <r>   -48.0208     0.0000     8.0000 </r>
       <r>   -47.7744     0.0000     8.0000 </r>
       <r>   -47.5280     0.0000     8.0000 </r>
       <r>   -47.2815     0.0000     8.0000 </r>
       <r>   -47.0351     0.0000     8.0000 </r>
       <r>   -46.7887     0.0000     8.0000 </r>
       <r>   -46.5423     0.0000     8.0000 </r>
       <r>   -46.2959     0.0000     8.0000 </r>
       <r>   -46.0495     0.0000     8.0000 </r>
       <r>   -45.8031     0.0000     8.0000 </r>
       <r>   -45.5567     0.0000     8.0000 </r>
       <r>   -45.3102     0.0000     8.0000 </r>
       <r>   -45.0638     0.0000     8.0000 </r>
       <r>   -44.8174     0.0000     8.0000 </r>
       <r>   -44.5710     0.0000     8.0000 </r>
       <r>   -44.3246     0.0000     8.0000 </r>
       <r>   -44.0782     0.0000     8.0000 </r>
       <r>   -43.8318     0.0000     8.0000 </r>
       <r>   -43.5854     0.0000     8.0000 </r>
       <r>   -43.3389     0.0000     8.0000 </r>
       <r>   -43.0925     0.0000     8.0000 </r>
       <r>   -42.8461     0.0000     8.0000 </r>
       <r>   -42.5997     0.0000     8.0000 </r>
       <r>   -42.3533     0.0000     8.0000 </r>
       <r>   -42.1069     0.0000     8.0000 </r>
       <r>   -41.8605     0.0000     8.0000 </r>
       <r>   -41.6140     0.0000     8.0000 </r>
       <r>   -41.3676     0.0000     8.0000 </r>
       <r>   -41.1212     0.0000     8.0000 </r>
       <r>   -40.8748     0.0000     8.0000 </r>
       <r>   -40.6284     0.0000     8.0000 </r>
       <r>   -40.3820     0.0000     8.0000 </r>
       <r>   -40.1356     0.0000     8.0000 </r>
       <r>   -39.8892     0.0000     8.0000 </r>
       <r>   -39.6427     0.0000     8.0000 </r>
       <r>   -39.3963     0.0000     8.0000 </r>
       <r>   -39.1499     0.0000     8.0000 </r>
       <r>   -38.9035     0.0000     8.0000 </r>
       <r>   -38.6571     0.0000     8.0000 </r>
       <r>   -38.4107     0.0000     8.0000 </r>
       <r>   -38.1643     0.0000     8.0000 </r>
       <r>   -37.9179     0.0000     8.0000 </r>
       <r>   -37.6714     0.0000     8.0000 </r>
       <r>   -37.4250     0.0000     8.0000 </r>
       <r>   -37.1786     0.0000     8.0000 </r>
       <r>   -36.9322     0.0000     8.0000 </r>
       <r>   -36.6858     0.0000     8.0000 </r>
       <r>   -36.4394     0.0000     8.0000 </r>
       <r>   -36.1930     0.0000     8.0000 </r>
       <r>   -35.9466     0.0000     8.0000 </r>
       <r>   -35.7001     0.0000     8.0000 </r>
       <r>   -35.4537     0.0000     8.0000 </r>
       <r>   -35.2073     0.0000     8.0000 </r>
       <r>   -34.9609     0.0000     8.0000 </r>
       <r>   -34.7145     0.0000     8.0000 </r>
       <r>   -34.4681     0.0000     8.0000 </r>
       <r>   -34.2217     0.8697     8.2143 </r>
       <r>   -33.9753     0.0000     8.8571 </r>
       <r>   -33.7288     0.0000     9.4286 </r>
       <r>   -33.4824     2.2021     9.9712 </r>
       <r>   -33.2360     0.0000    10.0000 </r>
       <r>   -32.9896     0.2144    10.0528 </r>
       <r>   -32.7432     0.0000    10.5714 </r>
       <r>   -32.4968     0.0000    10.5714 </r>
       <r>   -32.2504     2.3190    11.1429 </r>
       <r>   -32.0040     0.0000    11.1429 </r>
       <r>   -31.7575     0.0000    11.1429 </r>
       <r>   -31.5111     2.3190    11.7143 </r>
       <r>   -31.2647     0.0000    11.7143 </r>
       <r>   -31.0183     0.0000    11.7143 </r>
       <r>   -30.7719     0.0000    12.0000 </r>
       <r>   -30.5255     0.7284    12.1795 </r>
       <r>   -30.2791    16.2022    16.2781 </r>
       <r>   -30.0327    10.8150    20.0935 </r>
       <r>   -29.7862     2.3190    20.8571 </r>
       <r>   -29.5398     1.8241    21.3066 </r>
       <r>   -29.2934     9.2736    24.8566 </r>
       <r>   -29.0470    12.0033    28.9578 </r>
       <r>   -28.8006     0.0000    29.4286 </r>
       <r>   -28.5542     0.0000    29.4286 </r>
       <r>   -28.3078     0.0000    29.4286 </r>
       <r>   -28.0614     0.0000    30.0000 </r>
       <r>   -27.8149     0.0000    30.0000 </r>
       <r>   -27.5685     0.0659    30.0162 </r>
       <r>   -27.3221     0.0000    30.5714 </r>
       <r>   -27.0757     0.0000    30.5714 </r>
       <r>   -26.8293     0.0000    31.1429 </r>
       <r>   -26.5829     2.3188    31.7142 </r>
       <r>   -26.3365     0.0000    32.0000 </r>
       <r>   -26.0901     0.0000    32.0000 </r>
       <r>   -25.8436     0.0000    32.0000 </r>
       <r>   -25.5972     0.0000    32.0000 </r>
       <r>   -25.3508     0.0000    32.0000 </r>
       <r>   -25.1044     0.0000    32.0000 </r>
       <r>   -24.8580     0.0000    32.0000 </r>
       <r>   -24.6116     0.0000    32.0000 </r>
       <r>   -24.3652     0.0000    32.0000 </r>
       <r>   -24.1188     0.0000    32.0000 </r>
       <r>   -23.8723     0.0000    32.0000 </r>
       <r>   -23.6259     0.0000    32.0000 </r>
       <r>   -23.3795     0.0000    32.0000 </r>
       <r>   -23.1331     0.0000    32.0000 </r>
       <r>   -22.8867     0.0000    32.0000 </r>
       <r>   -22.6403     0.0000    32.0000 </r>
       <r>   -22.3939     0.0000    32.0000 </r>
       <r>   -22.1475     0.0000    32.0000 </r>
       <r>   -21.9010     0.0000    32.0000 </r>
       <r>   -21.6546     0.0000    32.0000 </r>
       <r>   -21.4082     0.0000    32.0000 </r>
       <r>   -21.1618     0.0000    32.0000 </r>
       <r>   -20.9154     0.0000    32.0000 </r>
       <r>   -20.6690     0.0000    32.0000 </r>
       <r>   -20.4226     0.0000    32.0000 </r>
       <r>   -20.1761     0.0000    32.0000 </r>
       <r>   -19.9297     0.0000    32.0000 </r>
       <r>   -19.6833     0.0000    32.0000 </r>
       <r>   -19.4369     0.0000    32.0000 </r>
       <r>   -19.1905     0.0000    32.0000 </r>
       <r>   -18.9441     0.0000    32.0000 </r>
       <r>   -18.6977     0.0000    32.0000 </r>
       <r>   -18.4513     0.0000    32.0000 </r>
       <r>   -18.2048     0.0000    32.0000 </r>
       <r>   -17.9584     0.0000    32.0000 </r>
       <r>   -17.7120     0.0000    32.0000 </r>
       <r>   -17.4656     0.0000    32.0000 </r>
       <r>   -17.2192     0.0000    32.0000 </r>
       <r>   -16.9728     0.0000    32.0000 </r>
       <r>   -16.7264     0.0000    32.0000 </r>
       <r>   -16.4800     0.0000    32.0000 </r>
       <r>   -16.2335     0.0000    32.0000 </r>
       <r>   -15.9871     0.0000    32.0000 </r>
       <r>   -15.7407     0.0000    32.0000 </r>
       <r>   -15.4943     0.0000    32.0000 </r>
       <r>   -15.2479     0.0000    32.0000 </r>
       <r>   -15.0015     0.0000    32.0000 </r>
       <r>   -14.7551     0.0000    32.0000 </r>
       <r>   -14.5087     0.0000    32.0000 </r>
       <r>   -14.2622     0.0000    32.0000 </r>
       <r>   -14.0158     0.0000    32.0000 </r>
       <r>   -13.7694     0.0000    32.0000 </r>
       <r>   -13.5230     0.0000    32.0000 </r>
       <r>   -13.2766     0.0000    32.0000 </r>
       <r>   -13.0302     0.0000    32.0000 </r>
       <r>   -12.7838     0.0000    32.0000 </r>
       <r>   -12.5374     0.0000    32.0000 </r>
       <r>   -12.2909     0.0000    32.0000 </r>
       <r>   -12.0445     0.0000    32.0000 </r>
       <r>   -11.7981     0.0000    32.0000 </r>
       <r>   -11.5517     0.0000    32.0000 </r>
       <r>   -11.3053     0.0000    32.0000 </r>
       <r>   -11.0589     0.0000    32.0000 </r>
       <r>   -10.8125     0.0000    32.0000 </r>
       <r>   -10.5661     0.0000    32.0000 </r>
       <r>   -10.3196     0.0000    32.0000 </r>
       <r>   -10.0732     0.0000    32.0000 </r>
       <r>    -9.8268     0.0000    32.0000 </r>
       <r>    -9.5804     0.0000    32.0000 </r>
       <r>    -9.3340     0.0000    32.0000 </r>
       <r>    -9.0876     0.0000    32.0000 </r>
       <r>    -8.8412     0.0000    32.0000 </r>
       <r>    -8.5948     0.0000    32.0000 </r>
       <r>    -8.3483     0.0000    32.0000 </r>
       <r>    -8.1019     0.0000    32.0000 </r>
       <r>    -7.8555     0.0000    32.0000 </r>
       <r>    -7.6091     0.0000    32.0000 </r>
       <r>    -7.3627     0.0000    32.0000 </r>
       <r>    -7.1163     0.0000    32.0000 </r>
       <r>    -6.8699     0.0000    32.0000 </r>
       <r>    -6.6235     0.0000    32.0000 </r>
       <r>    -6.3770     0.0000    32.0000 </r>
       <r>    -6.1306     0.0000    32.0000 </r>
       <r>    -5.8842     0.0000    32.0000 </r>
       <r>    -5.6378     0.0000    32.0000 </r>
       <r>    -5.3914     0.0000    32.0000 </r>
       <r>    -5.1450     0.0000    32.0000 </r>
       <r>    -4.8986     0.0000    32.0000 </r>
       <r>    -4.6522     0.0000    32.0000 </r>
       <r>    -4.4057     0.0000    32.0000 </r>
       <r>    -4.1593     0.0000    32.0000 </r>
       <r>    -3.9129     0.0000    32.0000 </r>
       <r>    -3.6665     0.2896    32.0765 </r>
       <r>    -3.4201     0.6296    32.2623 </r>
       <r>    -3.1737     0.4940    32.4329 </r>
       <r>    -2.9273     0.6205    32.7396 </r>
       <r>    -2.6809     0.9180    33.0681 </r>
       <r>    -2.4344     1.1105    33.4930 </r>
       <r>    -2.1880     1.3683    33.9902 </r>
       <r>    -1.9416     1.4867    34.4888 </r>
       <r>    -1.6952     1.1598    35.0205 </r>
       <r>    -1.4488     0.8782    35.4868 </r>
       <r>    -1.2024     1.8986    36.1158 </r>
       <r>    -0.9560     2.1912    36.8308 </r>
       <r>    -0.7095     2.1121    37.6327 </r>
       <r>    -0.4631     2.7882    38.5340 </r>
       <r>    -0.2167     2.6068    39.4944 </r>
       <r>     0.0297     1.8730    40.1758 </r>
       <r>     0.2761     4.0104    41.7229 </r>
       <r>     0.5225     2.2689    42.5591 </r>
       <r>     0.7689     4.3079    43.9748 </r>
       <r>     1.0153     3.4128    45.3358 </r>
       <r>     1.2618     3.4990    46.6734 </r>
       <r>     1.5082     2.9829    47.6942 </r>
       <r>     1.7546     2.3151    48.7439 </r>
       <r>     2.0010     2.7239    49.9722 </r>
       <r>     2.2474     3.3280    51.0599 </r>
       <r>     2.4938     2.9335    52.2790 </r>
       <r>     2.7402     3.4448    53.6499 </r>
       <r>     2.9866     3.6280    55.0623 </r>
       <r>     3.2331     4.2046    56.7095 </r>
       <r>     3.4795     4.3515    58.6284 </r>
       <r>     3.7259     5.1107    60.5297 </r>
       <r>     3.9723     5.0684    62.3663 </r>
       <r>     4.2187     3.1021    63.6266 </r>
       <r>     4.4651     1.5645    64.3039 </r>
       <r>     4.7115     2.0811    65.0128 </r>
       <r>     4.9579     2.4199    65.9993 </r>
       <r>     5.2044     3.5313    67.4620 </r>
       <r>     5.4508     4.8445    69.1427 </r>
       <r>     5.6972     5.2123    71.0701 </r>
       <r>     5.9436     4.5335    72.6732 </r>
       <r>     6.1900     4.5424    74.4918 </r>
       <r>     6.4364     5.2979    76.2902 </r>
       <r>     6.6828     4.6160    78.1323 </r>
       <r>     6.9292     4.5797    79.9754 </r>
       <r>     7.1757     4.6028    81.6036 </r>
       <r>     7.4221     4.3579    83.1147 </r>
       <r>     7.6685     4.3661    84.8769 </r>
       <r>     7.9149     3.6221    86.3466 </r>
       <r>     8.1613     4.2595    88.0700 </r>
       <r>     8.4077     4.1800    89.7698 </r>
       <r>     8.6541     4.0895    91.4261 </r>
       <r>     8.9005     3.5505    92.8086 </r>
       <r>     9.1470     3.1719    94.1285 </r>
       <r>     9.3934     3.4657    95.3438 </r>
       <r>     9.6398     1.1366    95.9433 </r>
       <r>     9.8862     0.0414    96.0000 </r>
       <r>    10.1326     0.0000    96.0000 </r>
       <r>    10.3790     0.0000    96.0000 </r>
       <r>    10.6254     0.0000    96.0000 </r>
       <r>    10.8718     0.0000    96.0000 </r>
       <r>    11.1183     0.0000    96.0000 </r>
       <r>    11.3647     0.0000    96.0000 </r>
       <r>    11.6111     0.0000    96.0000 </r>
       <r>    11.8575     0.0000    96.0000 </r>
       <r>    12.1039     0.0000    96.0000 </r>
       <r>    12.3503     0.0000    96.0000 </r>
       <r>    12.5967     0.0000    96.0000 </r>
       <r>    12.8431     0.0000    96.0000 </r>
       <r>    13.0896     0.0000    96.0000 </r>
      </set>
     </set>
    </array>
   </total>
  </dos>
 </calculation>
 <structure name="finalpos" >
  <crystal>
   <varray name="basis" >
    <v>       5.45177993       0.00000000      -2.80171402 </v>
    <v>      -2.03144321       5.05916424      -2.80171402 </v>
    <v>       0.00000000       0.00000000       6.12956000 </v>
   </varray>
   <i name="volume">    169.06215301 </i>
   <varray name="rec_basis" >
    <v>       0.18342633       0.07365252       0.00000000 </v>
    <v>       0.00000000       0.19766111       0.00000000 </v>
    <v>       0.08384095       0.12401268       0.16314385 </v>
   </varray>
  </crystal>
  <varray name="positions" >
   <v>       0.24211000       0.74211000       0.98422000 </v>
   <v>       0.75789000       0.25789000       0.01578000 </v>
   <v>       0.74211000       0.75789000       0.50000000 </v>
   <v>       0.25789000       0.24211000       0.50000000 </v>
   <v>       0.50000000       0.00000000       0.50000000 </v>
   <v>       0.25000000       0.75000000       0.50000000 </v>
   <v>       0.75000000       0.25000000       0.50000000 </v>
   <v>       0.00000000       0.50000000       0.50000000 </v>
   <v>       0.25000000       0.25000000       0.00000000 </v>
   <v>       0.75000000       0.75000000       0.00000000 </v>
  </varray>
 </structure>
</modeling>
