 vasp.6.2.0 18Jan21 (build Jan 05 2022 15:41:44) complex                        
  
 executed on             LinuxIFC date 2025.05.07  17:20:05
 running on   24 total cores
 distrk:  each k-point on   12 cores,    2 groups
 distr:  one band on NCORE=   2 cores,    6 groups


--------------------------------------------------------------------------------------------------------


 INCAR:
   SYSTEM = routine with relax: pwdword
   ICHARG = 2
   NPAR = 6
   KPAR = 2
   NCORE = 2
   ADDGRID = T
   PREC = Acc
   ENCUT = 600
   METAGGA = R2SCAN
   LASPH = .TRUE.
   LMIXTAU = .FALSE.
   ALGO = A
   EDIFF = 1E-9
   NELM = 100
   NELMIN = 6
   IALGO = 38
   LREAL = F
   NSW = 0
   ISIF = -1
   ISMEAR = 0
   SIGMA = 0.02

 POTCAR:    PAW_PBE B 06Sep2000                   
 POTCAR:    PAW_PBE Mo_sv 02Feb2006               
 POTCAR:    PAW_PBE Si 05Jan2001                  
 -----------------------------------------------------------------------------
|                                                                             |
|           W    W    AA    RRRRR   N    N  II  N    N   GGGG   !!!           |
|           W    W   A  A   R    R  NN   N  II  NN   N  G    G  !!!           |
|           W    W  A    A  R    R  N N  N  II  N N  N  G       !!!           |
|           W WW W  AAAAAA  RRRRR   N  N N  II  N  N N  G  GGG   !            |
|           WW  WW  A    A  R   R   N   NN  II  N   NN  G    G                |
|           W    W  A    A  R    R  N    N  II  N    N   GGGG   !!!           |
|                                                                             |
|     For optimal performance we recommend to set                             |
|       NCORE = 2 up to number-of-cores-per-socket                            |
|     NCORE specifies how many cores store one orbital (NPAR=cpu/NCORE).      |
|     This setting can greatly improve the performance of VASP for DFT.       |
|     The default, NCORE=1 might be grossly inefficient on modern             |
|     multi-core architectures or massively parallel machines. Do your        |
|     own testing! More info at https://www.vasp.at/wiki/index.php/NCORE      |
|     Unfortunately you need to use the default for GW and RPA                |
|     calculations (for HF NCORE is supported but not extensively tested      |
|     yet).                                                                   |
|                                                                             |
 -----------------------------------------------------------------------------

 POTCAR:    PAW_PBE B 06Sep2000                   
   VRHFIN =B: s2p1                                                                                  
   LEXCH  = PE                                                                                      
   EATOM  =    71.1703 eV,    5.2309 Ry                                                             
                                                                                                    
   TITEL  = PAW_PBE B 06Sep2000                                                                     
   LULTRA =        F    use ultrasoft PP ?                                                          
   IUNSCR =        1    unscreen: 0-lin 1-nonlin 2-no                                               
   RPACOR =    1.200    partial core radius                                                         
   POMASS =   10.811; ZVAL   =    3.000    mass and valenz                                          
   RCORE  =    1.700    outmost cutoff radius                                                       
   RWIGS  =    1.710; RWIGS  =    0.905    wigner-seitz radius (au A)                               
   ENMAX  =  318.614; ENMIN  =  238.960 eV                                                          
   ICORE  =        2    local potential                                                             
   LCOR   =        T    correct aug charges                                                         
   LPAW   =        T    paw PP                                                                      
   EAUG   =  535.514                                                                                
   DEXC   =    0.000                                                                                
   RMAX   =    1.732    core radius for proj-oper                                                   
   RAUG   =    1.300    factor for augmentation sphere                                              
   RDEP   =    1.757    radius for radial grids                                                     
   RDEPT  =    1.436    core radius for aug-charge                                                  
                                                                                                    
   Atomic configuration                                                                             
    4 entries                                                                                       
     n  l   j            E        occ.                                                              
     1  0  0.50      -180.5896   2.0000                                                             
     2  0  0.50        -9.4431   2.0000                                                             
     2  1  0.50        -3.6068   1.0000                                                             
     3  2  1.50        -4.0817   0.0000                                                             
   Description                                                                                      
     l       E           TYP  RCUT    TYP  RCUT                                                     
     0     -9.4430752     23  1.500                                                                 
     0      0.8675899     23  1.500                                                                 
     1     -3.6067955     23  1.700                                                                 
     1      6.1086146     23  1.700                                                                 
     2     -4.0817478      7  1.700                                                                 
  local pseudopotential read in
  partial core-charges read in
  partial kinetic energy density read in
  atomic valenz-charges read in
  non local Contribution for L=           0  read in
    real space projection operators read in
  non local Contribution for L=           0  read in
    real space projection operators read in
  non local Contribution for L=           1  read in
    real space projection operators read in
  non local Contribution for L=           1  read in
    real space projection operators read in
    PAW grid and wavefunctions read in
 
   number of l-projection  operators is LMAX  =           4
   number of lm-projection operators is LMMAX =           8
 
 POTCAR:    PAW_PBE Mo_sv 02Feb2006               
   VRHFIN =Mo: 4p5s4d                                                                               
   LEXCH  = PE                                                                                      
   EATOM  =  1862.2866 eV,  136.8742 Ry                                                             
                                                                                                    
   TITEL  = PAW_PBE Mo_sv 02Feb2006                                                                 
   LULTRA =        F    use ultrasoft PP ?                                                          
   IUNSCR =        1    unscreen: 0-lin 1-nonlin 2-no                                               
   RPACOR =    2.200    partial core radius                                                         
   POMASS =   95.940; ZVAL   =   14.000    mass and valenz                                          
   RCORE  =    2.500    outmost cutoff radius                                                       
   RWIGS  =    2.750; RWIGS  =    1.455    wigner-seitz radius (au A)                               
   ENMAX  =  242.676; ENMIN  =  182.007 eV                                                          
   ICORE  =        3    local potential                                                             
   LCOR   =        T    correct aug charges                                                         
   LPAW   =        T    paw PP                                                                      
   EAUG   =  446.014                                                                                
   DEXC   =    0.000                                                                                
   RMAX   =    2.563    core radius for proj-oper                                                   
   RAUG   =    1.300    factor for augmentation sphere                                              
   RDEP   =    2.641    radius for radial grids                                                     
   RDEPT  =    2.031    core radius for aug-charge                                                  
                                                                                                    
   Atomic configuration                                                                             
   11 entries                                                                                       
     n  l   j            E        occ.                                                              
     1  0  0.50    -19819.0341   2.0000                                                             
     2  0  0.50     -2799.0127   2.0000                                                             
     2  1  1.50     -2502.0276   6.0000                                                             
     3  0  0.50      -476.4449   2.0000                                                             
     3  1  1.50      -379.1496   6.0000                                                             
     3  2  2.50      -220.9367  10.0000                                                             
     4  0  0.50       -64.3378   2.0000                                                             
     5  0  0.50        -4.0862   1.0000                                                             
     4  1  1.50       -38.4773   6.0000                                                             
     4  2  2.50        -3.7535   5.0000                                                             
     4  3  2.50        -1.3606   0.0000                                                             
   Description                                                                                      
     l       E           TYP  RCUT    TYP  RCUT                                                     
     0    -64.3377829     23  2.100                                                                 
     0     -4.0861640     23  2.400                                                                 
     1    -38.4772993     23  2.100                                                                 
     1     13.6058260     23  2.100                                                                 
     2     -3.7534941     23  2.400                                                                 
     2     -5.1140767     23  2.400                                                                 
     3     -4.0817478     23  2.500                                                                 
  local pseudopotential read in
  partial core-charges read in
  partial kinetic energy density read in
  atomic valenz-charges read in
  non local Contribution for L=           0  read in
    real space projection operators read in
  non local Contribution for L=           0  read in
    real space projection operators read in
  non local Contribution for L=           1  read in
    real space projection operators read in
  non local Contribution for L=           1  read in
    real space projection operators read in
  non local Contribution for L=           2  read in
    real space projection operators read in
  non local Contribution for L=           2  read in
    real space projection operators read in
    PAW grid and wavefunctions read in
 
   number of l-projection  operators is LMAX  =           6
   number of lm-projection operators is LMMAX =          18
 
 POTCAR:    PAW_PBE Si 05Jan2001                  
   VRHFIN =Si: s2p2                                                                                 
   LEXCH  = PE                                                                                      
   EATOM  =   103.0669 eV,    7.5752 Ry                                                             
                                                                                                    
   TITEL  = PAW_PBE Si 05Jan2001                                                                    
   LULTRA =        F    use ultrasoft PP ?                                                          
   IUNSCR =        1    unscreen: 0-lin 1-nonlin 2-no                                               
   RPACOR =    1.500    partial core radius                                                         
   POMASS =   28.085; ZVAL   =    4.000    mass and valenz                                          
   RCORE  =    1.900    outmost cutoff radius                                                       
   RWIGS  =    2.480; RWIGS  =    1.312    wigner-seitz radius (au A)                               
   ENMAX  =  245.345; ENMIN  =  184.009 eV                                                          
   ICORE  =        2    local potential                                                             
   LCOR   =        T    correct aug charges                                                         
   LPAW   =        T    paw PP                                                                      
   EAUG   =  322.069                                                                                
   DEXC   =    0.000                                                                                
   RMAX   =    1.950    core radius for proj-oper                                                   
   RAUG   =    1.300    factor for augmentation sphere                                              
   RDEP   =    1.993    radius for radial grids                                                     
   RDEPT  =    1.837    core radius for aug-charge                                                  
                                                                                                    
   Atomic configuration                                                                             
    6 entries                                                                                       
     n  l   j            E        occ.                                                              
     1  0  0.50     -1785.8828   2.0000                                                             
     2  0  0.50      -139.4969   2.0000                                                             
     2  1  1.50       -95.5546   6.0000                                                             
     3  0  0.50       -10.8127   2.0000                                                             
     3  1  0.50        -4.0811   2.0000                                                             
     3  2  1.50        -4.0817   0.0000                                                             
   Description                                                                                      
     l       E           TYP  RCUT    TYP  RCUT                                                     
     0    -10.8127223     23  1.900                                                                 
     0     -7.6451159     23  1.900                                                                 
     1     -4.0811372     23  1.900                                                                 
     1      2.4879257     23  1.900                                                                 
     2     -4.0817478      7  1.900                                                                 
  local pseudopotential read in
  partial core-charges read in
  partial kinetic energy density read in
  atomic valenz-charges read in
  non local Contribution for L=           0  read in
    real space projection operators read in
  non local Contribution for L=           0  read in
    real space projection operators read in
  non local Contribution for L=           1  read in
    real space projection operators read in
  non local Contribution for L=           1  read in
    real space projection operators read in
    PAW grid and wavefunctions read in
 
   number of l-projection  operators is LMAX  =           4
   number of lm-projection operators is LMMAX =           8
 
  PAW_PBE B 06Sep2000                   :
 energy of atom  1       EATOM=  -71.1703
 kinetic energy error for atom=    0.0007 (will be added to EATOM!!)
  PAW_PBE Mo_sv 02Feb2006               :
 energy of atom  2       EATOM=-1862.2866
 kinetic energy error for atom=    0.0041 (will be added to EATOM!!)
  PAW_PBE Si 05Jan2001                  :
 energy of atom  3       EATOM= -103.0669
 kinetic energy error for atom=    0.0003 (will be added to EATOM!!)
 
 
 POSCAR: EA116
  positions in direct lattice
  No initial velocities read in

 METAGGA = R2SCA    LMAXTAU =  6    LMIXTAU =  F

 exchange correlation table for  LEXCH =        8
   RHO(1)=    0.500       N(1)  =     2000
   RHO(2)=  100.500       N(2)  =     4000
 


--------------------------------------------------------------------------------------------------------


 ion  position               nearest neighbor table
   1  0.000  0.500  0.500-   9 2.03  15 2.03  16 2.03  10 2.03   7 2.68   8 2.68   6 2.77   4 2.77

   2  0.500  0.000  0.500-  11 2.03  12 2.03  13 2.03  14 2.03   4 2.68   6 2.68   7 2.77   8 2.77

   3  0.250  0.250  0.000-  15 2.61   9 2.61  13 2.61  12 2.61  16 2.61  10 2.61  11 2.61  14 2.61
                             8 3.30   8 3.30   6 3.30   4 3.30   7 3.30   7 3.30   4 3.30   6 3.30
   4  0.746  0.246  0.992-   9 1.79  16 1.79  14 2.07  12 2.07   2 2.68   1 2.77   3 3.30   5 3.30
                             3 3.30   5 3.30
   5  0.750  0.750  0.000-  10 2.61  16 2.61  14 2.61  11 2.61  15 2.61   9 2.61  13 2.61  12 2.61
                             7 3.30   7 3.30   4 3.30   6 3.30   8 3.30   8 3.30   4 3.30   6 3.30
   6  0.254  0.754  0.008-  10 1.79  15 1.79  11 2.07  13 2.07   2 2.68   1 2.77   3 3.30   5 3.30
                             5 3.30   3 3.30
   7  0.246  0.254  0.500-  14 1.79  11 1.79  15 2.07   9 2.07   1 2.68   2 2.77   5 3.30   5 3.30
                             3 3.30   3 3.30
   8  0.754  0.746  0.500-  13 1.79  12 1.79  10 2.07  16 2.07   1 2.68   2 2.77   3 3.30   3 3.30
                             5 3.30   5 3.30
   9  0.978  0.238  0.216-   4 1.79   1 2.03   7 2.07  12 2.61  11 2.61   3 2.61   5 2.61  16 2.62
                            15 3.10
  10  0.022  0.762  0.784-   6 1.79   1 2.03   8 2.07  11 2.61  12 2.61   5 2.61   3 2.61  15 2.62
                            16 3.10
  11  0.238  0.022  0.260-   7 1.79   2 2.03   6 2.07  10 2.61   9 2.61   5 2.61   3 2.61  14 2.62
                            13 3.10
  12  0.762  0.978  0.740-   8 1.79   2 2.03   4 2.07   9 2.61  10 2.61   3 2.61   5 2.61  13 2.62
                            14 3.10
  13  0.522  0.738  0.260-   8 1.79   2 2.03   6 2.07  15 2.61  16 2.61   3 2.61   5 2.61  12 2.62
                            11 3.10
  14  0.478  0.262  0.740-   7 1.79   2 2.03   4 2.07  16 2.61  15 2.61   5 2.61   3 2.61  11 2.62
                            12 3.10
  15  0.262  0.522  0.784-   6 1.79   1 2.03   7 2.07  13 2.61  14 2.61   3 2.61   5 2.61  10 2.62
                             9 3.10
  16  0.738  0.478  0.216-   4 1.79   1 2.03   8 2.07  14 2.61  13 2.61   5 2.61   3 2.61   9 2.62
                            10 3.10
 
  LATTYP: Found a body centered tetragonal cell.
 ALAT       =     7.7138940367
 C/A-ratio  =     0.9602700544
  
  Lattice vectors:
  
 A1 = (   6.2562634645,   0.0000000000,  -2.0805754939)
 A2 = (  -3.2548941047,   5.3428921853,  -2.0805754939)
 A3 = (   0.0000000000,   0.0000000000,   6.5931500000)


Analysis of symmetry for initial positions (statically):
=====================================================================
 Subroutine PRICEL returns:
 Original cell was already a primitive cell.
 

 Routine SETGRP: Setting up the symmetry group for a 
 body centered tetragonal supercell.


 Subroutine GETGRP returns: Found  4 space group operations
 (whereof  2 operations were pure point group operations)
 out of a pool of 16 trial point group operations.


The static configuration has the point symmetry S_2 .
 The point group associated with its full space group is C_2h.


Analysis of symmetry for dynamics (positions and initial velocities):
=====================================================================
 Subroutine PRICEL returns:
 Original cell was already a primitive cell.
 

 Routine SETGRP: Setting up the symmetry group for a 
 body centered tetragonal supercell.


 Subroutine GETGRP returns: Found  4 space group operations
 (whereof  2 operations were pure point group operations)
 out of a pool of 16 trial point group operations.


The dynamic configuration has the point symmetry S_2 .
 The point group associated with its full space group is C_2h.


 Subroutine INISYM returns: Found  4 space group operations
 (whereof  2 operations are pure point group operations),
 and found     1 'primitive' translations


----------------------------------------------------------------------------------------

                                     Primitive cell                                     

  volume of cell :     220.3862

  direct lattice vectors                    reciprocal lattice vectors
     6.256263464  0.000000000 -2.080575494     0.159839816  0.097374541  0.000000000
    -3.254894105  5.342892185 -2.080575494     0.000000000  0.187164548  0.000000000
     0.000000000  0.000000000  6.593150000     0.050440048  0.089790928  0.151672569

  length of vectors
     6.593150000  6.593150000  6.593150000     0.187164548  0.187164548  0.183333514

  position of ions in fractional coordinates (direct lattice)
     0.000000000  0.500000000  0.500000000
     0.500000000  0.000000000  0.500000000
     0.250000000  0.250000000  0.000000000
     0.746020000  0.246020000  0.992040000
     0.750000000  0.750000000  0.000000000
     0.253980000  0.753980000  0.007960000
     0.246020000  0.253980000  0.500000000
     0.753980000  0.746020000  0.500000000
     0.978170000  0.238080000  0.216240000
     0.021830000  0.761920000  0.783760000
     0.238080000  0.021830000  0.259910000
     0.761920000  0.978170000  0.740090000
     0.521830000  0.738080000  0.259910000
     0.478170000  0.261920000  0.740090000
     0.261920000  0.521830000  0.783760000
     0.738080000  0.478170000  0.216240000

  ion indices of the primitive-cell ions
   primitive index   ion index
                 1           1
                 2           2
                 3           3
                 4           4
                 5           5
                 6           6
                 7           7
                 8           8
                 9           9
                10          10
                11          11
                12          12
                13          13
                14          14
                15          15
                16          16

----------------------------------------------------------------------------------------

 
 
 KPOINTS: EA                                      

Automatic generation of k-mesh.
 Grid dimensions read from file:
 generate k-points for:    7    7    7

 Generating k-lattice:

  Cartesian coordinates                     Fractional coordinates (reciprocal lattice)
     0.022834259  0.013910649  0.000000000     0.142857143  0.000000000  0.000000000
     0.000000000  0.026737793  0.000000000     0.000000000  0.142857143  0.000000000
     0.007205721  0.012827275  0.021667510     0.000000000 -0.000000000  0.142857143

  Length of vectors
     0.026737793  0.026737793  0.026190502

  Shift w.r.t. Gamma in fractional coordinates (k-lattice)
     0.000000000  0.000000000  0.000000000

 
 Subroutine IBZKPT returns following result:
 ===========================================
 
 Found    100 irreducible k-points:
 
 Following reciprocal coordinates:
            Coordinates               Weight
  0.000000  0.000000  0.000000      1.000000
  0.142857  0.000000  0.000000      4.000000
  0.142857  0.000000 -0.142857      4.000000
  0.285714  0.000000  0.000000      4.000000
  0.285714  0.000000 -0.285714      4.000000
  0.428571  0.000000  0.000000      4.000000
  0.428571 -0.000000 -0.428571      4.000000
  0.142857  0.142857  0.000000      2.000000
  0.285714  0.000000 -0.142857      4.000000
  0.142857  0.142857 -0.285714      2.000000
  0.285714  0.142857  0.000000      4.000000
  0.428571  0.000000 -0.285714      4.000000
  0.142857  0.285714 -0.428571      4.000000
  0.000000  0.428571 -0.142857      4.000000
  0.428571  0.142857  0.000000      4.000000
 -0.428571 -0.000000 -0.428571      4.000000
  0.142857  0.428571  0.428571      4.000000
  0.000000 -0.428571 -0.142857      4.000000
 -0.428571  0.142857  0.000000      4.000000
 -0.285714 -0.000000  0.428571      4.000000
  0.142857 -0.428571  0.285714      4.000000
  0.000000 -0.285714 -0.142857      4.000000
 -0.285714  0.142857  0.000000      4.000000
 -0.142857  0.000000  0.285714      4.000000
  0.142857 -0.285714  0.142857      4.000000
  0.000000 -0.142857 -0.142857      4.000000
 -0.142857  0.142857  0.000000      2.000000
  0.000000  0.000000  0.142857      2.000000
  0.285714  0.285714  0.000000      2.000000
 -0.428571 -0.000000 -0.285714      4.000000
  0.285714  0.285714  0.428571      2.000000
  0.428571  0.285714  0.000000      4.000000
 -0.285714 -0.000000 -0.428571      4.000000
  0.285714  0.428571  0.285714      4.000000
  0.000000 -0.285714 -0.285714      4.000000
 -0.428571  0.285714  0.000000      4.000000
 -0.142857  0.000000  0.428571      4.000000
  0.285714 -0.428571  0.142857      4.000000
  0.000000 -0.142857 -0.285714      4.000000
 -0.285714  0.285714  0.000000      2.000000
  0.000000  0.000000  0.285714      2.000000
  0.428571  0.428571  0.000000      2.000000
 -0.142857 -0.000000 -0.428571      4.000000
  0.428571  0.428571  0.142857      2.000000
 -0.428571  0.428571  0.000000      2.000000
  0.000000  0.000000  0.428571      2.000000
  0.142857  0.142857  0.142857      2.000000
  0.428571 -0.142857 -0.142857      4.000000
  0.142857  0.142857 -0.428571      2.000000
  0.285714  0.142857  0.142857      4.000000
 -0.428571 -0.142857 -0.285714      4.000000
  0.142857  0.285714  0.428571      4.000000
 -0.142857 -0.428571 -0.142857      4.000000
 -0.142857  0.142857  0.142857      4.000000
  0.285714  0.285714  0.142857      2.000000
 -0.285714 -0.142857 -0.285714      4.000000
  0.285714  0.285714  0.285714      2.000000
  0.428571  0.285714  0.142857      4.000000
 -0.142857 -0.142857 -0.428571      2.000000
 -0.142857 -0.142857 -0.285714      2.000000
 -0.285714  0.285714  0.142857      4.000000
  0.142857 -0.142857  0.285714      4.000000
 -0.142857  0.285714  0.142857      4.000000
  0.285714 -0.142857 -0.285714      4.000000
 -0.428571  0.428571  0.142857      4.000000
  0.142857 -0.142857  0.428571      4.000000
 -0.285714  0.428571  0.142857      4.000000
  0.285714 -0.142857  0.285714      4.000000
  0.428571 -0.285714 -0.285714      4.000000
 -0.142857  0.285714 -0.428571      4.000000
 -0.142857  0.428571  0.142857      4.000000
  0.428571 -0.142857 -0.428571      4.000000
 -0.428571 -0.428571  0.142857      2.000000
  0.285714 -0.142857  0.428571      4.000000
 -0.428571 -0.428571 -0.285714      2.000000
 -0.285714 -0.428571  0.142857      4.000000
  0.428571 -0.142857  0.285714      4.000000
 -0.428571 -0.285714 -0.428571      4.000000
 -0.142857  0.428571  0.428571      4.000000
 -0.142857 -0.428571  0.142857      4.000000
 -0.428571 -0.142857  0.428571      4.000000
 -0.285714 -0.285714  0.142857      2.000000
 -0.428571 -0.142857  0.285714      4.000000
 -0.285714 -0.285714  0.428571      2.000000
 -0.142857 -0.285714  0.142857      4.000000
 -0.285714 -0.142857  0.285714      4.000000
 -0.142857 -0.142857  0.142857      2.000000
 -0.285714  0.285714  0.285714      4.000000
 -0.428571  0.428571  0.285714      4.000000
  0.285714 -0.285714  0.428571      4.000000
 -0.285714  0.428571  0.285714      4.000000
  0.428571 -0.285714 -0.428571      4.000000
 -0.428571 -0.428571  0.285714      2.000000
  0.428571 -0.285714  0.428571      4.000000
 -0.428571 -0.428571 -0.428571      2.000000
 -0.285714 -0.428571  0.285714      4.000000
 -0.428571 -0.285714  0.428571      4.000000
 -0.285714 -0.285714  0.285714      2.000000
 -0.428571  0.428571  0.428571      4.000000
 -0.428571 -0.428571  0.428571      2.000000
 
 Following cartesian coordinates:
            Coordinates               Weight
  0.000000  0.000000  0.000000      1.000000
  0.022834  0.013911  0.000000      4.000000
  0.015629  0.001083 -0.021668      4.000000
  0.045669  0.027821  0.000000      4.000000
  0.031257  0.002167 -0.043335      4.000000
  0.068503  0.041732  0.000000      4.000000
  0.046886  0.003250 -0.065003      4.000000
  0.022834  0.040648  0.000000      2.000000
  0.038463  0.014994 -0.021668      4.000000
  0.008423  0.014994 -0.043335      2.000000
  0.045669  0.054559  0.000000      4.000000
  0.054091  0.016077 -0.043335      4.000000
  0.001217  0.028904 -0.065003      4.000000
 -0.007206  0.067386 -0.021668      4.000000
  0.068503  0.068470  0.000000      4.000000
 -0.090120 -0.080214 -0.065003      4.000000
  0.044451  0.132606  0.065003      4.000000
 -0.007206 -0.093041 -0.021668      4.000000
 -0.068503 -0.014994  0.000000      4.000000
 -0.024051  0.010661  0.065003      4.000000
  0.037246 -0.040648  0.043335      4.000000
 -0.007206 -0.066303 -0.021668      4.000000
 -0.045669 -0.001084  0.000000      4.000000
 -0.008423  0.011744  0.043335      4.000000
  0.030040 -0.026738  0.021668      4.000000
 -0.007206 -0.039565 -0.021668      4.000000
 -0.022834  0.012827  0.000000      2.000000
  0.007206  0.012827  0.021668      2.000000
  0.045669  0.081297  0.000000      2.000000
 -0.082914 -0.067386 -0.043335      4.000000
  0.067286  0.119779  0.065003      2.000000
  0.068503  0.095208  0.000000      4.000000
 -0.067286 -0.066303 -0.065003      4.000000
  0.060080  0.133689  0.043335      4.000000
 -0.014411 -0.079130 -0.043335      4.000000
 -0.068503  0.011744  0.000000      4.000000
 -0.001217  0.024571  0.065003      4.000000
  0.052874 -0.039565  0.021668      4.000000
 -0.014411 -0.052392 -0.043335      4.000000
 -0.045669  0.025654  0.000000      2.000000
  0.014411  0.025655  0.043335      2.000000
  0.068503  0.121945  0.000000      2.000000
 -0.044451 -0.052392 -0.065003      4.000000
  0.075708  0.134773  0.021668      2.000000
 -0.068503  0.038481  0.000000      2.000000
  0.021617  0.038482  0.065003      2.000000
  0.030040  0.053476  0.021668      2.000000
  0.061297  0.002167 -0.021668      4.000000
  0.001217  0.002167 -0.065003      2.000000
  0.052874  0.067386  0.021668      4.000000
 -0.082914 -0.094124 -0.043335      4.000000
  0.044451  0.105868  0.065003      4.000000
 -0.030040 -0.106951 -0.021668      4.000000
 -0.015629  0.025654  0.021668      4.000000
  0.052874  0.094124  0.021668      2.000000
 -0.060080 -0.080214 -0.043335      4.000000
  0.060080  0.106951  0.043335      2.000000
  0.075708  0.108035  0.021668      4.000000
 -0.044451 -0.079130 -0.065003      2.000000
 -0.037246 -0.066303 -0.043335      2.000000
 -0.038463  0.038482  0.021668      4.000000
  0.037246  0.012827  0.043335      4.000000
 -0.015629  0.052392  0.021668      4.000000
  0.031257 -0.024571 -0.043335      4.000000
 -0.061297  0.051309  0.021668      4.000000
  0.044451  0.025655  0.065003      4.000000
 -0.038463  0.065219  0.021668      4.000000
  0.060080  0.026738  0.043335      4.000000
  0.054091 -0.037398 -0.043335      4.000000
 -0.044451  0.001083 -0.065003      4.000000
 -0.015629  0.079130  0.021668      4.000000
  0.046886 -0.023488 -0.065003      4.000000
 -0.061297 -0.109118  0.021668      2.000000
  0.067286  0.039565  0.065003      4.000000
 -0.082914 -0.147600 -0.043335      2.000000
 -0.038463 -0.095207  0.021668      4.000000
  0.082914  0.040649  0.043335      4.000000
 -0.090120 -0.133689 -0.065003      4.000000
 -0.001217  0.104785  0.065003      4.000000
 -0.015629 -0.081297  0.021668      4.000000
 -0.046886 -0.029988  0.065003      4.000000
 -0.038463 -0.068470  0.021668      2.000000
 -0.054091 -0.042815  0.043335      4.000000
 -0.024051 -0.042815  0.065003      2.000000
 -0.015629 -0.054559  0.021668      4.000000
 -0.031257 -0.028905  0.043335      4.000000
 -0.015629 -0.027821  0.021668      2.000000
 -0.031257  0.051309  0.043335      4.000000
 -0.054091  0.064136  0.043335      4.000000
  0.067286  0.012828  0.065003      4.000000
 -0.031257  0.078047  0.043335      4.000000
  0.046886 -0.050225 -0.065003      4.000000
 -0.054091 -0.096291  0.043335      2.000000
  0.090120  0.026738  0.065003      4.000000
 -0.090120 -0.160427 -0.065003      2.000000
 -0.031257 -0.082380  0.043335      4.000000
 -0.046886 -0.056726  0.065003      4.000000
 -0.031257 -0.055642  0.043335      2.000000
 -0.046886  0.076963  0.065003      4.000000
 -0.046886 -0.083463  0.065003      2.000000
 


--------------------------------------------------------------------------------------------------------




 Dimension of arrays:
   k-points           NKPTS =    100   k-points in BZ     NKDIM =    100   number of bands    NBANDS=     78
   number of dos      NEDOS =    301   number of ions     NIONS =     16
   non local maximal  LDIM  =      6   non local SUM 2l+1 LMDIM =     18
   total plane-waves  NPLWV = 157464
   max r-space proj   IRMAX =      1   max aug-charges    IRDMAX= 250137
   dimension x,y,z NGX =    54 NGY =   54 NGZ =   54
   dimension x,y,z NGXF=   108 NGYF=  108 NGZF=  108
   support grid    NGXF=   216 NGYF=  216 NGZF=  216
   ions per type =               2   6   8
   NGX,Y,Z   is equivalent  to a cutoff of  13.62, 13.62, 13.62 a.u.
   NGXF,Y,Z  is equivalent  to a cutoff of  27.23, 27.23, 27.23 a.u.

 SYSTEM =  routine with relax: pwdword             
 POSCAR =  EA116                                   

 Startparameter for this run:
   NWRITE =      2    write-flag & timer
   PREC   = acc       normal or accurate (medium, high low for compatibility)
   ISTART =      0    job   : 0-new  1-cont  2-samecut
   ICHARG =      2    charge: 1-file 2-atom 10-const
   ISPIN  =      1    spin polarized calculation?
   LNONCOLLINEAR =      F non collinear calculations
   LSORBIT =      F    spin-orbit coupling
   INIWAV =      1    electr: 0-lowe 1-rand  2-diag
   LASPH  =      T    aspherical Exc in radial PAW
   METAGGA=      F    non-selfconsistent MetaGGA calc.

 Electronic Relaxation 1
   ENCUT  =  600.0 eV  44.10 Ry    6.64 a.u.  13.17 13.17 13.17*2*pi/ulx,y,z
   ENINI  =  600.0     initial cutoff
   ENAUG  =  535.5 eV  augmentation charge cutoff
   NELM   =    100;   NELMIN=  6; NELMDL= -5     # of ELM steps 
   EDIFF  = 0.1E-08   stopping-criterion for ELM
   LREAL  =      F    real-space projection
   NLSPLINE    = F    spline interpolate recip. space projectors
   LCOMPAT=      F    compatible to vasp.4.4
   GGA_COMPAT  = T    GGA compatible to vasp.4.4-vasp.4.6
   LMAXPAW     = -100 max onsite density
   LMAXMIX     =    2 max onsite mixed and CHGCAR
   VOSKOWN=      0    Vosko Wilk Nusair interpolation
   ROPT   =    0.00000   0.00000   0.00000
 Ionic relaxation
   EDIFFG = 0.1E-07   stopping-criterion for IOM
   NSW    =      0    number of steps for IOM
   NBLOCK =      1;   KBLOCK =      1    inner block; outer block 
   IBRION =     -1    ionic relax: 0-MD 1-quasi-New 2-CG
   NFREE  =      0    steps in history (QN), initial steepest desc. (CG)
   ISIF   =     -1    stress and relaxation
   IWAVPR =     10    prediction:  0-non 1-charg 2-wave 3-comb
   ISYM   =      2    0-nonsym 1-usesym 2-fastsym
   LCORR  =      T    Harris-Foulkes like correction to forces

   POTIM  = 0.5000    time-step for ionic-motion
   TEIN   =    0.0    initial temperature
   TEBEG  =    0.0;   TEEND  =   0.0 temperature during run
   SMASS  =  -3.00    Nose mass-parameter (am)
   estimated Nose-frequenzy (Omega)   =  0.10E-29 period in steps = 0.13E+47 mass=  -0.993E-27a.u.
   SCALEE = 1.0000    scale energy and forces
   NPACO  =    256;   APACO  = 16.0  distance and # of slots for P.C.
   PSTRESS=    0.0 pullay stress

  Mass of Ions in am
   POMASS =  10.81 95.94 28.09
  Ionic Valenz
   ZVAL   =   3.00 14.00  4.00
  Atomic Wigner-Seitz radii
   RWIGS  =  -1.00 -1.00 -1.00
  virtual crystal weights 
   VCA    =   1.00  1.00  1.00
   NELECT =     122.0000    total number of electrons
   NUPDOWN=      -1.0000    fix difference up-down

 DOS related values:
   EMIN   =  10.00;   EMAX   =-10.00  energy-range for DOS
   EFERMI =   0.00
   ISMEAR =     0;   SIGMA  =   0.02  broadening in eV -4-tet -1-fermi 0-gaus

 Electronic relaxation 2 (details)
   IALGO  =     58    algorithm
   LDIAG  =      T    sub-space diagonalisation (order eigenvalues)
   LSUBROT=      F    optimize rotation matrix (better conditioning)
   TURBO    =      0    0=normal 1=particle mesh
   IRESTART =      0    0=no restart 2=restart with 2 vectors
   NREBOOT  =      0    no. of reboots
   NMIN     =      0    reboot dimension
   EREF     =   0.00    reference energy to select bands
   IMIX   =      4    mixing-type and parameters
     AMIX     =   0.40;   BMIX     =  1.00
     AMIX_MAG =   1.60;   BMIX_MAG =  1.00
     AMIN     =   0.10
     WC   =   100.;   INIMIX=   1;  MIXPRE=   1;  MAXMIX= -45

 Intra band minimization:
   WEIMIN = 0.0000     energy-eigenvalue tresh-hold
   EBREAK =  0.32E-11  absolut break condition
   DEPER  =   0.30     relativ break condition  

   TIME   =   0.40     timestep for ELM

  volume/ion in A,a.u.               =      13.77        92.95
  Fermi-wavevector in a.u.,A,eV,Ry     =   1.344209  2.540186 24.584320  1.806897
  Thomas-Fermi vector in A             =   2.472221
 
 Write flags
   LWAVE        =      T    write WAVECAR
   LDOWNSAMPLE  =      F    k-point downsampling of WAVECAR
   LCHARG       =      T    write CHGCAR
   LVTOT        =      F    write LOCPOT, total local potential
   LVHAR        =      F    write LOCPOT, Hartree potential only
   LELF         =      F    write electronic localiz. function (ELF)
   LORBIT       =      0    0 simple, 1 ext, 2 COOP (PROOUT), +10 PAW based schemes


 Dipole corrections
   LMONO  =      F    monopole corrections only (constant potential shift)
   LDIPOL =      F    correct potential (dipole corrections)
   IDIPOL =      0    1-x, 2-y, 3-z, 4-all directions 
   EPSILON=  1.0000000 bulk dielectric constant

 Exchange correlation treatment:
   GGA     =    --    GGA type
   LEXCH   =     8    internal setting for exchange type
   VOSKOWN=      0    Vosko Wilk Nusair interpolation
   LHFCALC =     F    Hartree Fock is set to
   LHFONE  =     F    Hartree Fock one center treatment
   AEXX    =    0.0000 exact exchange contribution

 Linear response parameters
   LEPSILON=     F    determine dielectric tensor
   LRPA    =     F    only Hartree local field effects (RPA)
   LNABLA  =     F    use nabla operator in PAW spheres
   LVEL    =     F    velocity operator in full k-point grid
   LINTERFAST=   F  fast interpolation
   KINTER  =     0    interpolate to denser k-point grid
   CSHIFT  =0.1000    complex shift for real part using Kramers Kronig
   OMEGAMAX=  -1.0    maximum frequency
   DEG_THRESHOLD= 0.2000000E-02 threshold for treating states as degnerate
   RTIME   =   -0.100 relaxation time in fs
  (WPLASMAI=    0.000 imaginary part of plasma frequency in eV, 0.658/RTIME)
   DFIELD  = 0.0000000 0.0000000 0.0000000 field for delta impulse in time
 
 Orbital magnetization related:
   ORBITALMAG=     F  switch on orbital magnetization
   LCHIMAG   =     F  perturbation theory with respect to B field
   DQ        =  0.001000  dq finite difference perturbation B field
   LLRAUG    =     F  two centre corrections for induced B field



--------------------------------------------------------------------------------------------------------


 Static calculation
 charge density and potential will be updated during run
 non-spin polarized calculation
 Conjugate gradient for all bands (Freysoldt, et al. PRB 79, 241103 (2009))
 preconditioned conjugated gradient                                        
 perform sub-space diagonalisation
    before iterative eigenvector-optimisation
 modified Broyden-mixing scheme, WC =      100.0
 initial mixing is a Kerker type mixing with AMIX =  0.4000 and BMIX =      1.0000
 Hartree-type preconditioning will be used
 using additional bands           17
 reciprocal scheme for non local part
 use partial core corrections
 no Harris-corrections to forces 
 use gradient corrections 
 use of overlap-Matrix (Vanderbilt PP)
 Gauss-broadening in eV      SIGMA  =   0.02


--------------------------------------------------------------------------------------------------------


  energy-cutoff  :      600.00
  volume of cell :      220.39
      direct lattice vectors                 reciprocal lattice vectors
     6.256263464  0.000000000 -2.080575494     0.159839816  0.097374541  0.000000000
    -3.254894105  5.342892185 -2.080575494     0.000000000  0.187164548  0.000000000
     0.000000000  0.000000000  6.593150000     0.050440048  0.089790928  0.151672569

  length of vectors
     6.593150000  6.593150000  6.593150000     0.187164548  0.187164548  0.183333514


 
 k-points in units of 2pi/SCALE and weight: EA                                      
   0.00000000  0.00000000  0.00000000       0.003
   0.02283426  0.01391065  0.00000000       0.012
   0.01562854  0.00108337 -0.02166751       0.012
   0.04566852  0.02782130  0.00000000       0.012
   0.03125708  0.00216675 -0.04333502       0.012
   0.06850278  0.04173195  0.00000000       0.012
   0.04688561  0.00325012 -0.06500253       0.012
   0.02283426  0.04064844  0.00000000       0.006
   0.03846280  0.01499402 -0.02166751       0.012
   0.00842282  0.01499389 -0.04333502       0.006
   0.04566852  0.05455909  0.00000000       0.012
   0.05409134  0.01607740 -0.04333502       0.012
   0.00121710  0.02890441 -0.06500253       0.012
  -0.00720572  0.06738610 -0.02166751       0.012
   0.06850278  0.06846974  0.00000000       0.012
  -0.09011994 -0.08021377 -0.06500253       0.012
   0.04445142  0.13260585  0.06500253       0.012
  -0.00720572 -0.09304065 -0.02166751       0.012
  -0.06850278 -0.01499415  0.00000000       0.012
  -0.02405136  0.01066053  0.06500253       0.012
   0.03724570 -0.04064818  0.04333502       0.012
  -0.00720572 -0.06630286 -0.02166751       0.012
  -0.04566852 -0.00108350  0.00000000       0.012
  -0.00842282  0.01174390  0.04333502       0.012
   0.03003998 -0.02673766  0.02166751       0.012
  -0.00720572 -0.03956507 -0.02166751       0.012
  -0.02283426  0.01282714  0.00000000       0.006
   0.00720572  0.01282728  0.02166751       0.006
   0.04566852  0.08129688  0.00000000       0.006
  -0.08291422 -0.06738650 -0.04333502       0.012
   0.06728568  0.11977871  0.06500253       0.006
   0.06850278  0.09520753  0.00000000       0.012
  -0.06728568 -0.06630312 -0.06500253       0.012
   0.06007996  0.13368923  0.04333502       0.012
  -0.01441144 -0.07913014 -0.04333502       0.012
  -0.06850278  0.01174364  0.00000000       0.012
  -0.00121710  0.02457118  0.06500253       0.012
   0.05287424 -0.03956480  0.02166751       0.012
  -0.01441144 -0.05239234 -0.04333502       0.012
  -0.04566852  0.02565429  0.00000000       0.006
   0.01441144  0.02565455  0.04333502       0.006
   0.06850278  0.12194532  0.00000000       0.006
  -0.04445142 -0.05239247 -0.06500253       0.012
   0.07570850  0.13477260  0.02166751       0.006
  -0.06850278  0.03848143  0.00000000       0.006
   0.02161716  0.03848183  0.06500253       0.006
   0.03003998  0.05347572  0.02166751       0.006
   0.06129706  0.00216688 -0.02166751       0.012
   0.00121710  0.00216662 -0.06500253       0.006
   0.05287424  0.06738637  0.02166751       0.012
  -0.08291422 -0.09412429 -0.04333502       0.012
   0.04445142  0.10586806  0.06500253       0.012
  -0.03003998 -0.10695130 -0.02166751       0.012
  -0.01562854  0.02565442  0.02166751       0.012
   0.05287424  0.09412416  0.02166751       0.006
  -0.06007996 -0.08021364 -0.04333502       0.012
   0.06007996  0.10695143  0.04333502       0.006
   0.07570850  0.10803481  0.02166751       0.012
  -0.04445142 -0.07913027 -0.06500253       0.006
  -0.03724570 -0.06630299 -0.04333502       0.006
  -0.03846280  0.03848156  0.02166751       0.012
   0.03724570  0.01282741  0.04333502       0.012
  -0.01562854  0.05239221  0.02166751       0.012
   0.03125708 -0.02457105 -0.04333502       0.012
  -0.06129706  0.05130871  0.02166751       0.012
   0.04445142  0.02565468  0.06500253       0.012
  -0.03846280  0.06521936  0.02166751       0.012
   0.06007996  0.02673806  0.04333502       0.012
   0.05409134 -0.03739819 -0.04333502       0.012
  -0.04445142  0.00108311 -0.06500253       0.012
  -0.01562854  0.07913000  0.02166751       0.012
   0.04688561 -0.02348767 -0.06500253       0.012
  -0.06129706 -0.10911805  0.02166751       0.006
   0.06728568  0.03956533  0.06500253       0.012
  -0.08291422 -0.14759987 -0.04333502       0.006
  -0.03846280 -0.09520740  0.02166751       0.012
   0.08291422  0.04064870  0.04333502       0.012
  -0.09011994 -0.13368936 -0.06500253       0.012
  -0.00121710  0.10478456  0.06500253       0.012
  -0.01562854 -0.08129675  0.02166751       0.012
  -0.04688561 -0.02998791  0.06500253       0.012
  -0.03846280 -0.06846961  0.02166751       0.006
  -0.05409134 -0.04281519  0.04333502       0.012
  -0.02405136 -0.04281506  0.06500253       0.006
  -0.01562854 -0.05455896  0.02166751       0.012
  -0.03125708 -0.02890454  0.04333502       0.012
  -0.01562854 -0.02782117  0.02166751       0.006
  -0.03125708  0.05130884  0.04333502       0.012
  -0.05409134  0.06413598  0.04333502       0.012
   0.06728568  0.01282754  0.06500253       0.012
  -0.03125708  0.07804663  0.04333502       0.012
   0.04688561 -0.05022547 -0.06500253       0.012
  -0.05409134 -0.09629077  0.04333502       0.006
   0.09011994  0.02673819  0.06500253       0.012
  -0.09011994 -0.16042715 -0.06500253       0.006
  -0.03125708 -0.08238012  0.04333502       0.012
  -0.04688561 -0.05672571  0.06500253       0.012
  -0.03125708 -0.05564233  0.04333502       0.006
  -0.04688561  0.07696326  0.06500253       0.012
  -0.04688561 -0.08346350  0.06500253       0.006
 
 k-points in reciprocal lattice and weights: EA                                      
   0.00000000  0.00000000  0.00000000       0.003
   0.14285714  0.00000000  0.00000000       0.012
   0.14285714  0.00000000 -0.14285714       0.012
   0.28571429  0.00000000  0.00000000       0.012
   0.28571429  0.00000000 -0.28571429       0.012
   0.42857143  0.00000000  0.00000000       0.012
   0.42857143 -0.00000000 -0.42857143       0.012
   0.14285714  0.14285714  0.00000000       0.006
   0.28571429  0.00000000 -0.14285714       0.012
   0.14285714  0.14285714 -0.28571429       0.006
   0.28571429  0.14285714  0.00000000       0.012
   0.42857143  0.00000000 -0.28571429       0.012
   0.14285714  0.28571429 -0.42857143       0.012
   0.00000000  0.42857143 -0.14285714       0.012
   0.42857143  0.14285714  0.00000000       0.012
  -0.42857143 -0.00000000 -0.42857143       0.012
   0.14285714  0.42857143  0.42857143       0.012
   0.00000000 -0.42857143 -0.14285714       0.012
  -0.42857143  0.14285714  0.00000000       0.012
  -0.28571429 -0.00000000  0.42857143       0.012
   0.14285714 -0.42857143  0.28571429       0.012
   0.00000000 -0.28571429 -0.14285714       0.012
  -0.28571429  0.14285714  0.00000000       0.012
  -0.14285714  0.00000000  0.28571429       0.012
   0.14285714 -0.28571429  0.14285714       0.012
   0.00000000 -0.14285714 -0.14285714       0.012
  -0.14285714  0.14285714  0.00000000       0.006
   0.00000000  0.00000000  0.14285714       0.006
   0.28571429  0.28571429  0.00000000       0.006
  -0.42857143 -0.00000000 -0.28571429       0.012
   0.28571429  0.28571429  0.42857143       0.006
   0.42857143  0.28571429  0.00000000       0.012
  -0.28571429 -0.00000000 -0.42857143       0.012
   0.28571429  0.42857143  0.28571429       0.012
   0.00000000 -0.28571429 -0.28571429       0.012
  -0.42857143  0.28571429  0.00000000       0.012
  -0.14285714  0.00000000  0.42857143       0.012
   0.28571429 -0.42857143  0.14285714       0.012
   0.00000000 -0.14285714 -0.28571429       0.012
  -0.28571429  0.28571429  0.00000000       0.006
   0.00000000  0.00000000  0.28571429       0.006
   0.42857143  0.42857143  0.00000000       0.006
  -0.14285714 -0.00000000 -0.42857143       0.012
   0.42857143  0.42857143  0.14285714       0.006
  -0.42857143  0.42857143  0.00000000       0.006
   0.00000000  0.00000000  0.42857143       0.006
   0.14285714  0.14285714  0.14285714       0.006
   0.42857143 -0.14285714 -0.14285714       0.012
   0.14285714  0.14285714 -0.42857143       0.006
   0.28571429  0.14285714  0.14285714       0.012
  -0.42857143 -0.14285714 -0.28571429       0.012
   0.14285714  0.28571429  0.42857143       0.012
  -0.14285714 -0.42857143 -0.14285714       0.012
  -0.14285714  0.14285714  0.14285714       0.012
   0.28571429  0.28571429  0.14285714       0.006
  -0.28571429 -0.14285714 -0.28571429       0.012
   0.28571429  0.28571429  0.28571429       0.006
   0.42857143  0.28571429  0.14285714       0.012
  -0.14285714 -0.14285714 -0.42857143       0.006
  -0.14285714 -0.14285714 -0.28571429       0.006
  -0.28571429  0.28571429  0.14285714       0.012
   0.14285714 -0.14285714  0.28571429       0.012
  -0.14285714  0.28571429  0.14285714       0.012
   0.28571429 -0.14285714 -0.28571429       0.012
  -0.42857143  0.42857143  0.14285714       0.012
   0.14285714 -0.14285714  0.42857143       0.012
  -0.28571429  0.42857143  0.14285714       0.012
   0.28571429 -0.14285714  0.28571429       0.012
   0.42857143 -0.28571429 -0.28571429       0.012
  -0.14285714  0.28571429 -0.42857143       0.012
  -0.14285714  0.42857143  0.14285714       0.012
   0.42857143 -0.14285714 -0.42857143       0.012
  -0.42857143 -0.42857143  0.14285714       0.006
   0.28571429 -0.14285714  0.42857143       0.012
  -0.42857143 -0.42857143 -0.28571429       0.006
  -0.28571429 -0.42857143  0.14285714       0.012
   0.42857143 -0.14285714  0.28571429       0.012
  -0.42857143 -0.28571429 -0.42857143       0.012
  -0.14285714  0.42857143  0.42857143       0.012
  -0.14285714 -0.42857143  0.14285714       0.012
  -0.42857143 -0.14285714  0.42857143       0.012
  -0.28571429 -0.28571429  0.14285714       0.006
  -0.42857143 -0.14285714  0.28571429       0.012
  -0.28571429 -0.28571429  0.42857143       0.006
  -0.14285714 -0.28571429  0.14285714       0.012
  -0.28571429 -0.14285714  0.28571429       0.012
  -0.14285714 -0.14285714  0.14285714       0.006
  -0.28571429  0.28571429  0.28571429       0.012
  -0.42857143  0.42857143  0.28571429       0.012
   0.28571429 -0.28571429  0.42857143       0.012
  -0.28571429  0.42857143  0.28571429       0.012
   0.42857143 -0.28571429 -0.42857143       0.012
  -0.42857143 -0.42857143  0.28571429       0.006
   0.42857143 -0.28571429  0.42857143       0.012
  -0.42857143 -0.42857143 -0.42857143       0.006
  -0.28571429 -0.42857143  0.28571429       0.012
  -0.42857143 -0.28571429  0.42857143       0.012
  -0.28571429 -0.28571429  0.28571429       0.006
  -0.42857143  0.42857143  0.42857143       0.012
  -0.42857143 -0.42857143  0.42857143       0.006
 
 position of ions in fractional coordinates (direct lattice) 
   0.00000000  0.50000000  0.50000000
   0.50000000  0.00000000  0.50000000
   0.25000000  0.25000000  0.00000000
   0.74602000  0.24602000  0.99204000
   0.75000000  0.75000000  0.00000000
   0.25398000  0.75398000  0.00796000
   0.24602000  0.25398000  0.50000000
   0.75398000  0.74602000  0.50000000
   0.97817000  0.23808000  0.21624000
   0.02183000  0.76192000  0.78376000
   0.23808000  0.02183000  0.25991000
   0.76192000  0.97817000  0.74009000
   0.52183000  0.73808000  0.25991000
   0.47817000  0.26192000  0.74009000
   0.26192000  0.52183000  0.78376000
   0.73808000  0.47817000  0.21624000
 
 position of ions in cartesian coordinates  (Angst):
  -1.62744705  2.67144609  2.25628725
   3.12813173  0.00000000  2.25628725
   0.75034234  1.33572305 -1.04028775
   3.86652862  1.31445834  4.47665441
   2.25102702  4.00716914 -3.12086324
  -0.86515926  4.02843385 -2.04465540
   0.71248793  1.35698776  2.25628725
   2.28888143  3.98590443  0.17571176
   5.34476404  1.27203577 -1.10479719
  -2.34339468  4.07085641  3.53679620
   1.41843687  0.11663534  1.17286324
   1.58293249  5.22625685  1.25913577
   0.86233372  3.94348186 -0.90771225
   2.13903564  1.39941032  3.33971127
  -0.05986086  2.78808143  3.53679620
   3.06123022  2.55481076 -1.10479719
 


--------------------------------------------------------------------------------------------------------


 k-point   1 :   0.0000 0.0000 0.0000  plane waves:    7347
 k-point   2 :   0.1429 0.0000 0.0000  plane waves:    7351
 k-point   3 :   0.1429 0.0000-0.1429  plane waves:    7351
 k-point   4 :   0.2857 0.0000 0.0000  plane waves:    7344
 k-point   5 :   0.2857 0.0000-0.2857  plane waves:    7344
 k-point   6 :   0.4286 0.0000 0.0000  plane waves:    7347
 k-point   7 :   0.4286-0.0000-0.4286  plane waves:    7347
 k-point   8 :   0.1429 0.1429 0.0000  plane waves:    7351
 k-point   9 :   0.2857 0.0000-0.1429  plane waves:    7351
 k-point  10 :   0.1429 0.1429-0.2857  plane waves:    7351
 k-point  11 :   0.2857 0.1429 0.0000  plane waves:    7363
 k-point  12 :   0.4286 0.0000-0.2857  plane waves:    7363
 k-point  13 :   0.1429 0.2857-0.4286  plane waves:    7363
 k-point  14 :   0.0000 0.4286-0.1429  plane waves:    7363
 k-point  15 :   0.4286 0.1429 0.0000  plane waves:    7362
 k-point  16 :  -0.4286-0.0000-0.4286  plane waves:    7362
 k-point  17 :   0.1429 0.4286 0.4286  plane waves:    7362
 k-point  18 :   0.0000-0.4286-0.1429  plane waves:    7362
 k-point  19 :  -0.4286 0.1429 0.0000  plane waves:    7348
 k-point  20 :  -0.2857-0.0000 0.4286  plane waves:    7348
 k-point  21 :   0.1429-0.4286 0.2857  plane waves:    7348
 k-point  22 :   0.0000-0.2857-0.1429  plane waves:    7348
 k-point  23 :  -0.2857 0.1429 0.0000  plane waves:    7344
 k-point  24 :  -0.1429 0.0000 0.2857  plane waves:    7344
 k-point  25 :   0.1429-0.2857 0.1429  plane waves:    7344
 k-point  26 :   0.0000-0.1429-0.1429  plane waves:    7344
 k-point  27 :  -0.1429 0.1429 0.0000  plane waves:    7370
 k-point  28 :   0.0000 0.0000 0.1429  plane waves:    7370
 k-point  29 :   0.2857 0.2857 0.0000  plane waves:    7364
 k-point  30 :  -0.4286-0.0000-0.2857  plane waves:    7366
 k-point  31 :   0.2857 0.2857 0.4286  plane waves:    7364
 k-point  32 :   0.4286 0.2857 0.0000  plane waves:    7362
 k-point  33 :  -0.2857-0.0000-0.4286  plane waves:    7362
 k-point  34 :   0.2857 0.4286 0.2857  plane waves:    7362
 k-point  35 :   0.0000-0.2857-0.2857  plane waves:    7362
 k-point  36 :  -0.4286 0.2857 0.0000  plane waves:    7345
 k-point  37 :  -0.1429 0.0000 0.4286  plane waves:    7345
 k-point  38 :   0.2857-0.4286 0.1429  plane waves:    7345
 k-point  39 :   0.0000-0.1429-0.2857  plane waves:    7345
 k-point  40 :  -0.2857 0.2857 0.0000  plane waves:    7356
 k-point  41 :   0.0000 0.0000 0.2857  plane waves:    7356
 k-point  42 :   0.4286 0.4286 0.0000  plane waves:    7340
 k-point  43 :  -0.1429-0.0000-0.4286  plane waves:    7340
 k-point  44 :   0.4286 0.4286 0.1429  plane waves:    7340
 k-point  45 :  -0.4286 0.4286 0.0000  plane waves:    7340
 k-point  46 :   0.0000 0.0000 0.4286  plane waves:    7340
 k-point  47 :   0.1429 0.1429 0.1429  plane waves:    7348
 k-point  48 :   0.4286-0.1429-0.1429  plane waves:    7348
 k-point  49 :   0.1429 0.1429-0.4286  plane waves:    7348
 k-point  50 :   0.2857 0.1429 0.1429  plane waves:    7349
 k-point  51 :  -0.4286-0.1429-0.2857  plane waves:    7349
 k-point  52 :   0.1429 0.2857 0.4286  plane waves:    7349
 k-point  53 :  -0.1429-0.4286-0.1429  plane waves:    7349
 k-point  54 :  -0.1429 0.1429 0.1429  plane waves:    7323
 k-point  55 :   0.2857 0.2857 0.1429  plane waves:    7350
 k-point  56 :  -0.2857-0.1429-0.2857  plane waves:    7350
 k-point  57 :   0.2857 0.2857 0.2857  plane waves:    7350
 k-point  58 :   0.4286 0.2857 0.1429  plane waves:    7345
 k-point  59 :  -0.1429-0.1429-0.4286  plane waves:    7345
 k-point  60 :  -0.1429-0.1429-0.2857  plane waves:    7345
 k-point  61 :  -0.2857 0.2857 0.1429  plane waves:    7354
 k-point  62 :   0.1429-0.1429 0.2857  plane waves:    7354
 k-point  63 :  -0.1429 0.2857 0.1429  plane waves:    7352
 k-point  64 :   0.2857-0.1429-0.2857  plane waves:    7352
 k-point  65 :  -0.4286 0.4286 0.1429  plane waves:    7362
 k-point  66 :   0.1429-0.1429 0.4286  plane waves:    7362
 k-point  67 :  -0.2857 0.4286 0.1429  plane waves:    7360
 k-point  68 :   0.2857-0.1429 0.2857  plane waves:    7360
 k-point  69 :   0.4286-0.2857-0.2857  plane waves:    7360
 k-point  70 :  -0.1429 0.2857-0.4286  plane waves:    7360
 k-point  71 :  -0.1429 0.4286 0.1429  plane waves:    7365
 k-point  72 :   0.4286-0.1429-0.4286  plane waves:    7365
 k-point  73 :  -0.4286-0.4286 0.1429  plane waves:    7360
 k-point  74 :   0.2857-0.1429 0.4286  plane waves:    7360
 k-point  75 :  -0.4286-0.4286-0.2857  plane waves:    7360
 k-point  76 :  -0.2857-0.4286 0.1429  plane waves:    7374
 k-point  77 :   0.4286-0.1429 0.2857  plane waves:    7374
 k-point  78 :  -0.4286-0.2857-0.4286  plane waves:    7374
 k-point  79 :  -0.1429 0.4286 0.4286  plane waves:    7374
 k-point  80 :  -0.1429-0.4286 0.1429  plane waves:    7359
 k-point  81 :  -0.4286-0.1429 0.4286  plane waves:    7359
 k-point  82 :  -0.2857-0.2857 0.1429  plane waves:    7342
 k-point  83 :  -0.4286-0.1429 0.2857  plane waves:    7342
 k-point  84 :  -0.2857-0.2857 0.4286  plane waves:    7342
 k-point  85 :  -0.1429-0.2857 0.1429  plane waves:    7362
 k-point  86 :  -0.2857-0.1429 0.2857  plane waves:    7362
 k-point  87 :  -0.1429-0.1429 0.1429  plane waves:    7359
 k-point  88 :  -0.2857 0.2857 0.2857  plane waves:    7357
 k-point  89 :  -0.4286 0.4286 0.2857  plane waves:    7353
 k-point  90 :   0.2857-0.2857 0.4286  plane waves:    7353
 k-point  91 :  -0.2857 0.4286 0.2857  plane waves:    7367
 k-point  92 :   0.4286-0.2857-0.4286  plane waves:    7367
 k-point  93 :  -0.4286-0.4286 0.2857  plane waves:    7359
 k-point  94 :   0.4286-0.2857 0.4286  plane waves:    7359
 k-point  95 :  -0.4286-0.4286-0.4286  plane waves:    7359
 k-point  96 :  -0.2857-0.4286 0.2857  plane waves:    7356
 k-point  97 :  -0.4286-0.2857 0.4286  plane waves:    7356
 k-point  98 :  -0.2857-0.2857 0.2857  plane waves:    7347
 k-point  99 :  -0.4286 0.4286 0.4286  plane waves:    7382
 k-point 100 :  -0.4286-0.4286 0.4286  plane waves:    7394

 maximum and minimum number of plane-waves per node :      3726     3641

 maximum number of plane-waves:      7394
 maximum index in each direction: 
   IXMAX=   13   IYMAX=   13   IZMAX=   13
   IXMIN=  -13   IYMIN=  -13   IZMIN=  -13


 parallel 3D FFT for wavefunctions:
    minimum data exchange during FFTs selected (reduces bandwidth)
 parallel 3D FFT for charge:
    minimum data exchange during FFTs selected (reduces bandwidth)


 total amount of memory used by VASP MPI-rank0   459767. kBytes
=======================================================================

   base      :      30000. kBytes
   nonl-proj :     161134. kBytes
   fftplans  :      17782. kBytes
   grid      :      13358. kBytes
   one-center:        124. kBytes
   wavefun   :     237369. kBytes
 
     INWAV:  cpu time    0.0000: real time    0.0000
 Broyden mixing: mesh for mixing (old mesh)
   NGX = 27   NGY = 27   NGZ = 27
  (NGX  =108   NGY  =108   NGZ  =108)
  gives a total of  19683 points

 initial charge density was supplied:
 charge density of overlapping atoms calculated
 number of electron     122.0000000 magnetization 
 keeping initial charge density in first step


--------------------------------------------------------------------------------------------------------


 Maximum index for augmentation-charges        20122 (set IRDMAX)


--------------------------------------------------------------------------------------------------------


 First call to EWALD:  gamma=   0.293
 Maximum number of real-space cells 3x 3x 3
 Maximum number of reciprocal cells 3x 3x 3

    FEWALD:  cpu time    0.0296: real time    0.0297


--------------------------------------- Iteration      1(   1)  ---------------------------------------


    POTLOK:  cpu time    0.3005: real time    0.3029
    SETDIJ:  cpu time    0.7046: real time    0.7079
    TRIAL :  cpu time   34.6886: real time   34.9593
    CORREC:  cpu time    0.0022: real time    0.0022
    --------------------------------------------
      LOOP:  cpu time   35.7736: real time   36.0556

 eigenvalue-minimisations  : 16560
 total energy-change (2. order) : 0.1217483E+04  (-0.8091178E+04)
 number of electron     122.0000000 magnetization 
 augmentation part      122.0000000 magnetization 

 Free energy of the ion-electron system (eV)
  ---------------------------------------------------
  alpha Z        PSCENC =       499.87096680
  Ewald energy   TEWEN  =     -8967.14088131
  -Hartree energ DENC   =     -3245.07622764
  -exchange      EXHF   =         0.00000000
  -V(xc)+E(xc)   XCENC  =       453.02017754
  PAW double counting   =      9666.54758295    -9560.21215315
  entropy T*S    EENTRO =        -0.00103723
  eigenvalues    EBANDS =       229.90786394
  atomic energy  EATOM  =     12140.56680252
  ---------------------------------------------------
  free energy    TOTEN  =      1217.48309441 eV

  energy without entropy =     1217.48413165  energy(sigma->0) =     1217.48361303


--------------------------------------------------------------------------------------------------------




--------------------------------------- Iteration      1(   2)  ---------------------------------------


    TRIAL :  cpu time   37.1528: real time   38.0585
    CORREC:  cpu time    0.0023: real time    0.0023
    --------------------------------------------
      LOOP:  cpu time   37.1580: real time   38.0642

 eigenvalue-minimisations  : 17418
 total energy-change (2. order) :-0.1392027E+04  (-0.1341559E+04)
 number of electron     122.0000000 magnetization 
 augmentation part      122.0000000 magnetization 

 Free energy of the ion-electron system (eV)
  ---------------------------------------------------
  alpha Z        PSCENC =       499.87096680
  Ewald energy   TEWEN  =     -8967.14088131
  -Hartree energ DENC   =     -3245.07622764
  -exchange      EXHF   =         0.00000000
  -V(xc)+E(xc)   XCENC  =       453.02017754
  PAW double counting   =      9666.54758295    -9560.21215315
  entropy T*S    EENTRO =        -0.00135264
  eigenvalues    EBANDS =     -1162.11867621
  atomic energy  EATOM  =     12140.56680252
  ---------------------------------------------------
  free energy    TOTEN  =      -174.54376115 eV

  energy without entropy =     -174.54240851  energy(sigma->0) =     -174.54308483


--------------------------------------------------------------------------------------------------------




--------------------------------------- Iteration      1(   3)  ---------------------------------------


    TRIAL :  cpu time   41.3016: real time   42.0509
    CORREC:  cpu time    0.0021: real time    0.0021
    --------------------------------------------
      LOOP:  cpu time   41.3065: real time   42.0559

 eigenvalue-minimisations  : 19848
 total energy-change (2. order) :-0.5952308E+02  (-0.5727516E+02)
 number of electron     122.0000000 magnetization 
 augmentation part      122.0000000 magnetization 

 Free energy of the ion-electron system (eV)
  ---------------------------------------------------
  alpha Z        PSCENC =       499.87096680
  Ewald energy   TEWEN  =     -8967.14088131
  -Hartree energ DENC   =     -3245.07622764
  -exchange      EXHF   =         0.00000000
  -V(xc)+E(xc)   XCENC  =       453.02017754
  PAW double counting   =      9666.54758295    -9560.21215315
  entropy T*S    EENTRO =        -0.00119596
  eigenvalues    EBANDS =     -1221.64191698
  atomic energy  EATOM  =     12140.56680252
  ---------------------------------------------------
  free energy    TOTEN  =      -234.06684524 eV

  energy without entropy =     -234.06564928  energy(sigma->0) =     -234.06624726


--------------------------------------------------------------------------------------------------------




--------------------------------------- Iteration      1(   4)  ---------------------------------------


    TRIAL :  cpu time   39.9350: real time   40.6714
    CORREC:  cpu time    0.0022: real time    0.0022
    --------------------------------------------
      LOOP:  cpu time   39.9394: real time   40.6765

 eigenvalue-minimisations  : 18756
 total energy-change (2. order) :-0.1178230E+01  (-0.1164863E+01)
 number of electron     122.0000000 magnetization 
 augmentation part      122.0000000 magnetization 

 Free energy of the ion-electron system (eV)
  ---------------------------------------------------
  alpha Z        PSCENC =       499.87096680
  Ewald energy   TEWEN  =     -8967.14088131
  -Hartree energ DENC   =     -3245.07622764
  -exchange      EXHF   =         0.00000000
  -V(xc)+E(xc)   XCENC  =       453.02017754
  PAW double counting   =      9666.54758295    -9560.21215315
  entropy T*S    EENTRO =        -0.00138061
  eigenvalues    EBANDS =     -1222.81996267
  atomic energy  EATOM  =     12140.56680252
  ---------------------------------------------------
  free energy    TOTEN  =      -235.24507558 eV

  energy without entropy =     -235.24369497  energy(sigma->0) =     -235.24438527


--------------------------------------------------------------------------------------------------------




--------------------------------------- Iteration      1(   5)  ---------------------------------------


    TRIAL :  cpu time   40.5924: real time   41.3533
    CORREC:  cpu time    0.0023: real time    0.0023
    CHARGE:  cpu time    2.4780: real time    2.4941
    --------------------------------------------
      LOOP:  cpu time   43.0740: real time   43.8527

 eigenvalue-minimisations  : 19026
 total energy-change (2. order) :-0.2443278E-01  (-0.2438785E-01)
 number of electron     122.0000000 magnetization 
 augmentation part       12.3977691 magnetization 

 Free energy of the ion-electron system (eV)
  ---------------------------------------------------
  alpha Z        PSCENC =       499.87096680
  Ewald energy   TEWEN  =     -8967.14088131
  -Hartree energ DENC   =     -3245.07622764
  -exchange      EXHF   =         0.00000000
  -V(xc)+E(xc)   XCENC  =       453.02017754
  PAW double counting   =      9666.54758295    -9560.21215315
  entropy T*S    EENTRO =        -0.00137816
  eigenvalues    EBANDS =     -1222.84439789
  atomic energy  EATOM  =     12140.56680252
  ---------------------------------------------------
  free energy    TOTEN  =      -235.26950835 eV

  energy without entropy =     -235.26813019  energy(sigma->0) =     -235.26881927


--------------------------------------------------------------------------------------------------------




--------------------------------------- Iteration      1(   6)  ---------------------------------------


    POTLOK:  cpu time    0.1645: real time    0.1654
    SETDIJ:  cpu time    0.6489: real time    0.6524
    TRIAL :  cpu time   28.3948: real time   28.7279
    CORREC:  cpu time   10.9280: real time   11.0001
    CHARGE:  cpu time    3.0804: real time    3.1007
    --------------------------------------------
      LOOP:  cpu time   43.2459: real time   43.6765

 eigenvalue-minimisations  :     0
 total energy-change (2. order) : 0.8959732E+02  (-0.3261881E+02)
 number of electron     122.0000000 magnetization 
 augmentation part       12.9761174 magnetization 

 Free energy of the ion-electron system (eV)
  ---------------------------------------------------
  alpha Z        PSCENC =       499.87096680
  Ewald energy   TEWEN  =     -8967.14088131
  -Hartree energ DENC   =     -3260.29592740
  -exchange      EXHF   =         0.00000000
  -V(xc)+E(xc)   XCENC  =       471.96210966
  PAW double counting   =     26582.17000063   -26490.96603609
  entropy T*S    EENTRO =        -0.00188516
  eigenvalues    EBANDS =     -1121.83784214
  atomic energy  EATOM  =     12140.56680252
  ---------------------------------------------------
  free energy    TOTEN  =      -145.67218550 eV

  energy without entropy =     -145.67030034  energy(sigma->0) =     -145.67124292


--------------------------------------------------------------------------------------------------------




--------------------------------------- Iteration      1(   7)  ---------------------------------------


    POTLOK:  cpu time    0.1589: real time    0.1597
    SETDIJ:  cpu time    0.6628: real time    0.6663
    TRIAL :  cpu time   32.2364: real time   32.4874
    CORREC:  cpu time   12.2129: real time   12.2938
    CHARGE:  cpu time    3.1689: real time    3.1891
    --------------------------------------------
      LOOP:  cpu time   48.4477: real time   48.8055

 eigenvalue-minimisations  :     0
 total energy-change (2. order) :-0.3570590E+02  (-0.3843659E+01)
 number of electron     122.0000000 magnetization 
 augmentation part       13.1802627 magnetization 

 Free energy of the ion-electron system (eV)
  ---------------------------------------------------
  alpha Z        PSCENC =       499.87096680
  Ewald energy   TEWEN  =     -8967.14088131
  -Hartree energ DENC   =     -3270.58358802
  -exchange      EXHF   =         0.00000000
  -V(xc)+E(xc)   XCENC  =       471.97724813
  PAW double counting   =     26762.88248666   -26670.36788036
  entropy T*S    EENTRO =        -0.00174754
  eigenvalues    EBANDS =     -1148.58135259
  atomic energy  EATOM  =     12140.56680252
  ---------------------------------------------------
  free energy    TOTEN  =      -181.37808334 eV

  energy without entropy =     -181.37633580  energy(sigma->0) =     -181.37720957


--------------------------------------------------------------------------------------------------------




--------------------------------------- Iteration      1(   8)  ---------------------------------------


    POTLOK:  cpu time    0.1478: real time    0.1486
    SETDIJ:  cpu time    0.6738: real time    0.6775
    TRIAL :  cpu time   32.1526: real time   32.3919
    CORREC:  cpu time   12.8215: real time   13.0587
    CHARGE:  cpu time    2.9001: real time    2.9187
    --------------------------------------------
      LOOP:  cpu time   48.7076: real time   49.2076

 eigenvalue-minimisations  :     0
 total energy-change (2. order) :-0.3821315E+01  (-0.1367596E+01)
 number of electron     122.0000000 magnetization 
 augmentation part       13.3235524 magnetization 

 Free energy of the ion-electron system (eV)
  ---------------------------------------------------
  alpha Z        PSCENC =       499.87096680
  Ewald energy   TEWEN  =     -8967.14088131
  -Hartree energ DENC   =     -3273.89291923
  -exchange      EXHF   =         0.00000000
  -V(xc)+E(xc)   XCENC  =       472.34879851
  PAW double counting   =     26441.22086670   -26345.73344844
  entropy T*S    EENTRO =        -0.00139355
  eigenvalues    EBANDS =     -1152.43783685
  atomic energy  EATOM  =     12140.56680252
  ---------------------------------------------------
  free energy    TOTEN  =      -185.19939884 eV

  energy without entropy =     -185.19800529  energy(sigma->0) =     -185.19870206


--------------------------------------------------------------------------------------------------------




--------------------------------------- Iteration      1(   9)  ---------------------------------------


    POTLOK:  cpu time    0.1471: real time    0.1479
    SETDIJ:  cpu time    0.6578: real time    0.6614
    TRIAL :  cpu time   32.6196: real time   32.8598
    CORREC:  cpu time   12.4305: real time   12.5117
    CHARGE:  cpu time    3.1295: real time    3.1482
    --------------------------------------------
      LOOP:  cpu time   48.9936: real time   49.3391

 eigenvalue-minimisations  :     0
 total energy-change (2. order) :-0.1350840E+01  (-0.4063609E+00)
 number of electron     122.0000000 magnetization 
 augmentation part       13.3997704 magnetization 

 Free energy of the ion-electron system (eV)
  ---------------------------------------------------
  alpha Z        PSCENC =       499.87096680
  Ewald energy   TEWEN  =     -8967.14088131
  -Hartree energ DENC   =     -3260.24112071
  -exchange      EXHF   =         0.00000000
  -V(xc)+E(xc)   XCENC  =       472.45443330
  PAW double counting   =     26224.87121289   -26127.53903044
  entropy T*S    EENTRO =        -0.00220082
  eigenvalues    EBANDS =     -1169.39122880
  atomic energy  EATOM  =     12140.56680252
  ---------------------------------------------------
  free energy    TOTEN  =      -186.55023931 eV

  energy without entropy =     -186.54803849  energy(sigma->0) =     -186.54913890


--------------------------------------------------------------------------------------------------------




--------------------------------------- Iteration      1(  10)  ---------------------------------------


    POTLOK:  cpu time    0.1592: real time    0.1601
    SETDIJ:  cpu time    0.6712: real time    0.6748
    TRIAL :  cpu time   29.4560: real time   29.6875
    CORREC:  cpu time   12.7651: real time   13.1176
    CHARGE:  cpu time    2.4003: real time    2.4152
    --------------------------------------------
      LOOP:  cpu time   45.4615: real time   46.0656

 eigenvalue-minimisations  :     0
 total energy-change (2. order) :-0.4063839E+00  (-0.1529000E+00)
 number of electron     122.0000000 magnetization 
 augmentation part       13.3806165 magnetization 

 Free energy of the ion-electron system (eV)
  ---------------------------------------------------
  alpha Z        PSCENC =       499.87096680
  Ewald energy   TEWEN  =     -8967.14088131
  -Hartree energ DENC   =     -3265.33097021
  -exchange      EXHF   =         0.00000000
  -V(xc)+E(xc)   XCENC  =       472.86413539
  PAW double counting   =     26296.57545075   -26198.06561923
  entropy T*S    EENTRO =        -0.00245774
  eigenvalues    EBANDS =     -1166.29430707
  atomic energy  EATOM  =     12140.56680252
  ---------------------------------------------------
  free energy    TOTEN  =      -186.95662317 eV

  energy without entropy =     -186.95416543  energy(sigma->0) =     -186.95539430


--------------------------------------------------------------------------------------------------------




--------------------------------------- Iteration      1(  11)  ---------------------------------------


    POTLOK:  cpu time    0.1473: real time    0.1480
    SETDIJ:  cpu time    0.6613: real time    0.6647
    TRIAL :  cpu time   30.5177: real time   31.0468
    CORREC:  cpu time   13.5977: real time   13.9036
    CHARGE:  cpu time    2.9093: real time    2.9310
    --------------------------------------------
      LOOP:  cpu time   47.8434: real time   48.7050

 eigenvalue-minimisations  :     0
 total energy-change (2. order) :-0.1527104E+00  (-0.5934024E-01)
 number of electron     122.0000000 magnetization 
 augmentation part       13.3434843 magnetization 

 Free energy of the ion-electron system (eV)
  ---------------------------------------------------
  alpha Z        PSCENC =       499.87096680
  Ewald energy   TEWEN  =     -8967.14088131
  -Hartree energ DENC   =     -3269.94623988
  -exchange      EXHF   =         0.00000000
  -V(xc)+E(xc)   XCENC  =       472.98526148
  PAW double counting   =     26443.52128801   -26344.73468844
  entropy T*S    EENTRO =        -0.00251744
  eigenvalues    EBANDS =     -1162.22938497
  atomic energy  EATOM  =     12140.56680252
  ---------------------------------------------------
  free energy    TOTEN  =      -187.10933355 eV

  energy without entropy =     -187.10681611  energy(sigma->0) =     -187.10807483


--------------------------------------------------------------------------------------------------------




--------------------------------------- Iteration      1(  12)  ---------------------------------------


    POTLOK:  cpu time    0.1498: real time    0.1505
    SETDIJ:  cpu time    0.6680: real time    0.6713
    TRIAL :  cpu time   33.9122: real time   34.4789
    CORREC:  cpu time   10.5440: real time   10.6405
    CHARGE:  cpu time    3.3724: real time    3.3922
    --------------------------------------------
      LOOP:  cpu time   49.9354: real time   50.6295

 eigenvalue-minimisations  :     0
 total energy-change (2. order) :-0.5934558E-01  (-0.2486760E-01)
 number of electron     122.0000000 magnetization 
 augmentation part       13.3408034 magnetization 

 Free energy of the ion-electron system (eV)
  ---------------------------------------------------
  alpha Z        PSCENC =       499.87096680
  Ewald energy   TEWEN  =     -8967.14088131
  -Hartree energ DENC   =     -3268.27046893
  -exchange      EXHF   =         0.00000000
  -V(xc)+E(xc)   XCENC  =       472.84526679
  PAW double counting   =     26544.46086956   -26445.87338868
  entropy T*S    EENTRO =        -0.00255745
  eigenvalues    EBANDS =     -1163.62532844
  atomic energy  EATOM  =     12140.56680252
  ---------------------------------------------------
  free energy    TOTEN  =      -187.16867913 eV

  energy without entropy =     -187.16612168  energy(sigma->0) =     -187.16740040


--------------------------------------------------------------------------------------------------------




--------------------------------------- Iteration      1(  13)  ---------------------------------------


    POTLOK:  cpu time    0.1491: real time    0.1499
    SETDIJ:  cpu time    1.1059: real time    1.1122
    TRIAL :  cpu time   35.9940: real time   36.5738
    CORREC:  cpu time   13.3658: real time   13.4756
    CHARGE:  cpu time    3.6652: real time    3.6867
    --------------------------------------------
      LOOP:  cpu time   54.2857: real time   55.0043

 eigenvalue-minimisations  :     0
 total energy-change (2. order) :-0.2486420E-01  (-0.1114097E-01)
 number of electron     122.0000000 magnetization 
 augmentation part       13.3505256 magnetization 

 Free energy of the ion-electron system (eV)
  ---------------------------------------------------
  alpha Z        PSCENC =       499.87096680
  Ewald energy   TEWEN  =     -8967.14088131
  -Hartree energ DENC   =     -3265.73155985
  -exchange      EXHF   =         0.00000000
  -V(xc)+E(xc)   XCENC  =       472.73968396
  PAW double counting   =     26577.89760771   -26479.43218101
  entropy T*S    EENTRO =        -0.00259117
  eigenvalues    EBANDS =     -1165.96142470
  atomic energy  EATOM  =     12140.56680252
  ---------------------------------------------------
[...]
     74      14.2592      0.00000
     75      14.4140      0.00000
     76      14.4336      0.00000
     77      14.8072      0.00000
     78      14.8285      0.00000

 k-point    95 :      -0.4286   -0.4286   -0.4286
  band No.  band energies     occupation 
      1     -52.3112      2.00000
      2     -52.3082      2.00000
      3     -51.8966      2.00000
      4     -51.8880      2.00000
      5     -51.8879      2.00000
      6     -51.8753      2.00000
      7     -26.6620      2.00000
      8     -26.6096      2.00000
      9     -26.6051      2.00000
     10     -26.5333      2.00000
     11     -26.4399      2.00000
     12     -26.3658      2.00000
     13     -26.3651      2.00000
     14     -26.3276      2.00000
     15     -25.9832      2.00000
     16     -25.9175      2.00000
     17     -25.6521      2.00000
     18     -25.6474      2.00000
     19     -25.6449      2.00000
     20     -25.6425      2.00000
     21     -24.7856      2.00000
     22     -24.7811      2.00000
     23     -24.7405      2.00000
     24     -24.7401      2.00000
     25      -2.5285      2.00000
     26      -1.6043      2.00000
     27      -0.7011      2.00000
     28      -0.0253      2.00000
     29       0.4692      2.00000
     30       0.5567      2.00000
     31       1.9371      2.00000
     32       1.9986      2.00000
     33       2.2611      2.00000
     34       3.2889      2.00000
     35       3.3328      2.00000
     36       4.2844      2.00000
     37       4.5648      2.00000
     38       5.0755      2.00000
     39       5.1447      2.00000
     40       5.1739      2.00000
     41       5.2228      2.00000
     42       5.5496      2.00000
     43       5.6100      2.00000
     44       5.9589      2.00000
     45       6.1349      2.00000
     46       6.2254      2.00000
     47       7.0411      2.00000
     48       7.0976      2.00000
     49       7.2712      2.00000
     50       7.3329      2.00000
     51       7.5358      2.00000
     52       7.6980      2.00000
     53       8.0551      2.00000
     54       8.3535      2.00000
     55       8.4046      2.00000
     56       8.6116      2.00000
     57       8.6703      2.00000
     58       9.0272      2.00000
     59       9.0418      2.00000
     60       9.3462      2.00000
     61       9.3962      2.00000
     62      10.3878      0.00000
     63      10.5893      0.00000
     64      11.0814      0.00000
     65      11.7716      0.00000
     66      12.0249      0.00000
     67      12.4857      0.00000
     68      12.8027      0.00000
     69      13.1905      0.00000
     70      13.2881      0.00000
     71      13.5463      0.00000
     72      13.7770      0.00000
     73      14.1157      0.00000
     74      14.2540      0.00000
     75      14.4188      0.00000
     76      14.4296      0.00000
     77      14.7359      0.00000
     78      14.8196      0.00000

 k-point    96 :      -0.2857   -0.4286    0.2857
  band No.  band energies     occupation 
      1     -52.3107      2.00000
      2     -52.3088      2.00000
      3     -51.8973      2.00000
      4     -51.8882      2.00000
      5     -51.8871      2.00000
      6     -51.8750      2.00000
      7     -26.6700      2.00000
      8     -26.6157      2.00000
      9     -26.6068      2.00000
     10     -26.5280      2.00000
     11     -26.4422      2.00000
     12     -26.3676      2.00000
     13     -26.3612      2.00000
     14     -26.3238      2.00000
     15     -25.9765      2.00000
     16     -25.9209      2.00000
     17     -25.6516      2.00000
     18     -25.6514      2.00000
     19     -25.6407      2.00000
     20     -25.6406      2.00000
     21     -24.7785      2.00000
     22     -24.7755      2.00000
     23     -24.7454      2.00000
     24     -24.7453      2.00000
     25      -2.6802      2.00000
     26      -1.4534      2.00000
     27      -0.3698      2.00000
     28      -0.2964      2.00000
     29       0.2951      2.00000
     30       0.5572      2.00000
     31       1.8726      2.00000
     32       2.0532      2.00000
     33       2.2977      2.00000
     34       3.2250      2.00000
     35       3.3763      2.00000
     36       4.6011      2.00000
     37       4.8578      2.00000
     38       5.0504      2.00000
     39       5.1234      2.00000
     40       5.2350      2.00000
     41       5.4055      2.00000
     42       5.4597      2.00000
     43       5.5413      2.00000
     44       5.6469      2.00000
     45       5.7795      2.00000
     46       5.9924      2.00000
     47       6.8920      2.00000
     48       7.1140      2.00000
     49       7.2776      2.00000
     50       7.5064      2.00000
     51       7.6955      2.00000
     52       7.9840      2.00000
     53       7.9990      2.00000
     54       8.2292      2.00000
     55       8.5841      2.00000
     56       8.7397      2.00000
     57       8.8017      2.00000
     58       8.9324      2.00000
     59       8.9440      2.00000
     60       9.3846      2.00000
     61       9.7788      2.00000
     62       9.9542      2.00000
     63      10.4602      0.00000
     64      11.1868      0.00000
     65      11.9230      0.00000
     66      12.2190      0.00000
     67      12.4095      0.00000
     68      12.6505      0.00000
     69      12.8060      0.00000
     70      13.3098      0.00000
     71      13.3861      0.00000
     72      13.5409      0.00000
     73      13.5913      0.00000
     74      14.1940      0.00000
     75      14.4126      0.00000
     76      14.5314      0.00000
     77      14.6538      0.00000
     78      14.9342      0.00000

 k-point    97 :      -0.4286   -0.2857    0.4286
  band No.  band energies     occupation 
      1     -52.3107      2.00000
      2     -52.3088      2.00000
      3     -51.8973      2.00000
      4     -51.8882      2.00000
      5     -51.8871      2.00000
      6     -51.8750      2.00000
      7     -26.6700      2.00000
      8     -26.6157      2.00000
      9     -26.6068      2.00000
     10     -26.5280      2.00000
     11     -26.4422      2.00000
     12     -26.3676      2.00000
     13     -26.3612      2.00000
     14     -26.3238      2.00000
     15     -25.9765      2.00000
     16     -25.9209      2.00000
     17     -25.6516      2.00000
     18     -25.6514      2.00000
     19     -25.6407      2.00000
     20     -25.6406      2.00000
     21     -24.7785      2.00000
     22     -24.7755      2.00000
     23     -24.7454      2.00000
     24     -24.7453      2.00000
     25      -2.6802      2.00000
     26      -1.4534      2.00000
     27      -0.3698      2.00000
     28      -0.2963      2.00000
     29       0.2951      2.00000
     30       0.5572      2.00000
     31       1.8726      2.00000
     32       2.0532      2.00000
     33       2.2977      2.00000
     34       3.2250      2.00000
     35       3.3763      2.00000
     36       4.6011      2.00000
     37       4.8578      2.00000
     38       5.0504      2.00000
     39       5.1234      2.00000
     40       5.2350      2.00000
     41       5.4054      2.00000
     42       5.4597      2.00000
     43       5.5413      2.00000
     44       5.6469      2.00000
     45       5.7795      2.00000
     46       5.9924      2.00000
     47       6.8920      2.00000
     48       7.1140      2.00000
     49       7.2776      2.00000
     50       7.5065      2.00000
     51       7.6955      2.00000
     52       7.9840      2.00000
     53       7.9990      2.00000
     54       8.2292      2.00000
     55       8.5840      2.00000
     56       8.7397      2.00000
     57       8.8017      2.00000
     58       8.9324      2.00000
     59       8.9440      2.00000
     60       9.3846      2.00000
     61       9.7789      2.00000
     62       9.9542      2.00000
     63      10.4602      0.00000
     64      11.1868      0.00000
     65      11.9230      0.00000
     66      12.2190      0.00000
     67      12.4095      0.00000
     68      12.6505      0.00000
     69      12.8060      0.00000
     70      13.3098      0.00000
     71      13.3860      0.00000
     72      13.5409      0.00000
     73      13.5911      0.00000
     74      14.1917      0.00000
     75      14.4218      0.00000
     76      14.5298      0.00000
     77      14.6368      0.00000
     78      14.9921      0.00000

 k-point    98 :      -0.2857   -0.2857    0.2857
  band No.  band energies     occupation 
      1     -52.3100      2.00000
      2     -52.3097      2.00000
      3     -51.8981      2.00000
      4     -51.8872      2.00000
      5     -51.8872      2.00000
      6     -51.8749      2.00000
      7     -26.6813      2.00000
      8     -26.6175      2.00000
      9     -26.6174      2.00000
     10     -26.5225      2.00000
     11     -26.4442      2.00000
     12     -26.3637      2.00000
     13     -26.3636      2.00000
     14     -26.3200      2.00000
     15     -25.9647      2.00000
     16     -25.9251      2.00000
     17     -25.6534      2.00000
     18     -25.6534      2.00000
     19     -25.6363      2.00000
     20     -25.6363      2.00000
     21     -24.7680      2.00000
     22     -24.7664      2.00000
     23     -24.7523      2.00000
     24     -24.7523      2.00000
     25      -2.8754      2.00000
     26      -1.1732      2.00000
     27      -0.3415      2.00000
     28      -0.3415      2.00000
     29       0.0640      2.00000
     30       0.6659      2.00000
     31       1.7856      2.00000
     32       2.2096      2.00000
     33       2.2096      2.00000
     34       3.2515      2.00000
     35       3.2518      2.00000
     36       5.0227      2.00000
     37       5.0596      2.00000
     38       5.1233      2.00000
     39       5.1235      2.00000
     40       5.2665      2.00000
     41       5.2666      2.00000
     42       5.2861      2.00000
     43       5.2934      2.00000
     44       5.4331      2.00000
     45       5.9947      2.00000
     46       5.9947      2.00000
     47       6.4466      2.00000
     48       7.2577      2.00000
     49       7.2577      2.00000
     50       7.4004      2.00000
     51       7.9197      2.00000
     52       8.2083      2.00000
     53       8.2083      2.00000
     54       8.4709      2.00000
     55       8.4782      2.00000
     56       8.7556      2.00000
     57       8.8251      2.00000
     58       9.1676      2.00000
     59       9.1677      2.00000
     60       9.2169      2.00000
     61       9.6955      2.00000
     62      10.2193      0.00652
     63      10.3316      0.00000
     64      11.2445      0.00000
     65      11.8142      0.00000
     66      12.4558      0.00000
     67      12.6107      0.00000
     68      12.6784      0.00000
     69      12.6784      0.00000
     70      12.7976      0.00000
     71      12.8468      0.00000
     72      12.8469      0.00000
     73      13.6155      0.00000
     74      14.1189      0.00000
     75      14.1209      0.00000
     76      14.4300      0.00000
     77      14.8207      0.00000
     78      15.1855      0.00000

 k-point    99 :      -0.4286    0.4286    0.4286
  band No.  band energies     occupation 
      1     -52.3113      2.00000
      2     -52.3079      2.00000
      3     -51.8971      2.00000
      4     -51.8886      2.00000
      5     -51.8875      2.00000
      6     -51.8746      2.00000
      7     -26.6628      2.00000
      8     -26.6112      2.00000
      9     -26.6017      2.00000
     10     -26.5292      2.00000
     11     -26.4432      2.00000
     12     -26.3669      2.00000
     13     -26.3604      2.00000
     14     -26.3246      2.00000
     15     -25.9893      2.00000
     16     -25.9158      2.00000
     17     -25.6509      2.00000
     18     -25.6507      2.00000
     19     -25.6440      2.00000
     20     -25.6440      2.00000
     21     -24.7887      2.00000
     22     -24.7843      2.00000
     23     -24.7387      2.00000
     24     -24.7385      2.00000
     25      -2.5450      2.00000
     26      -1.5318      2.00000
     27      -0.4686      2.00000
     28      -0.3304      2.00000
     29       0.3830      2.00000
     30       0.5361      2.00000
     31       1.9781      2.00000
     32       2.0905      2.00000
     33       2.3307      2.00000
     34       3.3011      2.00000
     35       3.4561      2.00000
     36       4.1752      2.00000
     37       4.9266      2.00000
     38       5.0602      2.00000
     39       5.1285      2.00000
     40       5.1916      2.00000
     41       5.1990      2.00000
     42       5.4078      2.00000
     43       5.4596      2.00000
     44       6.0374      2.00000
     45       6.1137      2.00000
     46       6.3339      2.00000
     47       6.8837      2.00000
     48       7.1685      2.00000
     49       7.2506      2.00000
     50       7.4228      2.00000
     51       7.4399      2.00000
     52       7.4811      2.00000
     53       8.0530      2.00000
     54       8.2398      2.00000
     55       8.3332      2.00000
     56       8.4301      2.00000
     57       8.7098      2.00000
     58       8.8419      2.00000
     59       8.9944      2.00000
     60       9.0436      2.00000
     61       9.1893      2.00000
     62      10.5603      0.00000
     63      10.5870      0.00000
     64      11.2926      0.00000
     65      12.2450      0.00000
     66      12.2461      0.00000
     67      12.4295      0.00000
     68      12.8536      0.00000
     69      13.0090      0.00000
     70      13.6000      0.00000
     71      13.8811      0.00000
     72      13.9471      0.00000
     73      14.3267      0.00000
     74      14.3429      0.00000
     75      14.5168      0.00000
     76      14.6448      0.00000
     77      14.6995      0.00000
     78      15.3008      0.00000

 k-point   100 :      -0.4286   -0.4286    0.4286
  band No.  band energies     occupation 
      1     -52.3111      2.00000
      2     -52.3082      2.00000
      3     -51.8977      2.00000
      4     -51.8880      2.00000
      5     -51.8880      2.00000
      6     -51.8741      2.00000
      7     -26.6672      2.00000
      8     -26.6081      2.00000
      9     -26.6080      2.00000
     10     -26.5241      2.00000
     11     -26.4460      2.00000
     12     -26.3621      2.00000
     13     -26.3621      2.00000
     14     -26.3213      2.00000
     15     -25.9890      2.00000
     16     -25.9168      2.00000
     17     -25.6523      2.00000
     18     -25.6523      2.00000
     19     -25.6425      2.00000
     20     -25.6425      2.00000
     21     -24.7868      2.00000
     22     -24.7826      2.00000
     23     -24.7406      2.00000
     24     -24.7405      2.00000
     25      -2.6349      2.00000
     26      -1.3275      2.00000
     27      -0.4015      2.00000
     28      -0.4015      2.00000
     29       0.2111      2.00000
     30       0.4569      2.00000
     31       1.9661      2.00000
     32       2.2878      2.00000
     33       2.2878      2.00000
     34       3.3815      2.00000
     35       3.3818      2.00000
     36       4.2952      2.00000
     37       5.1017      2.00000
     38       5.1018      2.00000
     39       5.2190      2.00000
     40       5.2191      2.00000
     41       5.4262      2.00000
     42       5.5322      2.00000
     43       5.5394      2.00000
     44       5.5395      2.00000
     45       5.9091      2.00000
     46       6.1671      2.00000
     47       6.4805      2.00000
     48       7.2417      2.00000
     49       7.3485      2.00000
     50       7.3485      2.00000
     51       7.6412      2.00000
     52       7.8373      2.00000
     53       8.0158      2.00000
     54       8.0158      2.00000
     55       8.2762      2.00000
     56       8.4092      2.00000
     57       8.4093      2.00000
     58       8.9365      2.00000
     59       8.9784      2.00000
     60       9.1114      2.00000
     61       9.1679      2.00000
     62      10.3431      0.00000
     63      10.5164      0.00000
     64      11.3835      0.00000
     65      12.3605      0.00000
     66      12.4994      0.00000
     67      12.8258      0.00000
     68      13.0709      0.00000
     69      13.0709      0.00000
     70      13.3530      0.00000
     71      13.5541      0.00000
     72      13.9485      0.00000
     73      14.0182      0.00000
     74      14.0352      0.00000
     75      14.2229      0.00000
     76      14.2441      0.00000
     77      14.8515      0.00000
     78      15.5827      0.00000


--------------------------------------------------------------------------------------------------------


 soft charge-density along one line, spin component           1
         0         1         2         3         4         5         6         7         8         9
 total charge-density along one line
 
 pseudopotential strength for first ion, spin component:           1
  5.988   9.076  -0.000   0.000  -0.000  -0.000   0.000  -0.000
  9.076  13.748  -0.000   0.000  -0.000  -0.000   0.000  -0.000
 -0.000  -0.000  -1.989  -0.003   0.003  -3.321  -0.006   0.006
  0.000   0.000  -0.003  -1.990  -0.002  -0.006  -3.323  -0.004
 -0.000  -0.000   0.003  -0.002  -1.993   0.006  -0.004  -3.329
 -0.000  -0.000  -3.321  -0.006   0.006  -5.335  -0.013   0.012
  0.000   0.000  -0.006  -3.323  -0.004  -0.013  -5.340  -0.008
 -0.000  -0.000   0.006  -0.004  -3.329   0.012  -0.008  -5.350
 total augmentation occupancy for first ion, spin component:           1
  3.189  -0.781   0.000   0.000   0.000   0.000   0.000   0.000
 -0.781   0.220   0.000   0.000   0.000   0.000   0.000   0.000
  0.000   0.000   2.123   0.674  -0.449  -0.524  -0.226   0.131
  0.000   0.000   0.674   2.484   0.378  -0.226  -0.655  -0.127
  0.000   0.000  -0.449   0.378   2.670   0.131  -0.127  -0.683
  0.000   0.000  -0.524  -0.226   0.131   0.136   0.071  -0.037
  0.000   0.000  -0.226  -0.655  -0.127   0.071   0.180   0.040
  0.000   0.000   0.131  -0.127  -0.683  -0.037   0.040   0.181


------------------------ aborting loop because EDIFF is reached ----------------------------------------




--------------------------------------------------------------------------------------------------------



  FREE ENERGIE OF THE ION-ELECTRON SYSTEM (eV)
  ---------------------------------------------------
  free  energy   TOTEN  =      -187.21172716 eV

  energy  without entropy=     -187.20941127  energy(sigma->0) =     -187.21056921
 


--------------------------------------------------------------------------------------------------------


    POTLOK:  cpu time    0.9194: real time    0.9249


--------------------------------------------------------------------------------------------------------


 writing wavefunctions
     LOOP+:  cpu time 1632.3467: real time 1652.9064
    4ORBIT:  cpu time    0.0000: real time    0.0000

 total amount of memory used by VASP MPI-rank0   459767. kBytes
=======================================================================

   base      :      30000. kBytes
   nonl-proj :     161134. kBytes
   fftplans  :      17782. kBytes
   grid      :      13358. kBytes
   one-center:        124. kBytes
   wavefun   :     237369. kBytes
 
  
  
 General timing and accounting informations for this job:
 ========================================================
  
                  Total CPU time used (sec):     1642.676
                            User time (sec):     1589.612
                          System time (sec):       53.064
                         Elapsed time (sec):     1669.055
  
                   Maximum memory used (kb):      634736.
                   Average memory used (kb):          N/A
  
                          Minor page faults:      6095674
                          Major page faults:           39
                 Voluntary context switches:        17253
