<?xml version="1.0" encoding="ISO-8859-1"?>
<modeling>
 <generator>
  <i name="program" type="string">vasp </i>
  <i name="version" type="string">6.2.0  </i>
  <i name="subversion" type="string">18Jan21 (build Jan 05 2022 15:41:44) complex                          parallel </i>
  <i name="platform" type="string">LinuxIFC </i>
  <i name="date" type="string">2025 05 07 </i>
  <i name="time" type="string">21:04:44 </i>
 </generator>
 <incar>
  <i type="string" name="SYSTEM">routine with relax: pwdword</i>
  <i type="string" name="PREC">Acc</i>
  <i type="int" name="IALGO">    38</i>
  <i type="string" name="ALGO">A</i>
  <i type="logical" name="ADDGRID"> T  </i>
  <i type="int" name="ICHARG">     2</i>
  <i type="int" name="NELM">   100</i>
  <i type="int" name="NELMIN">     6</i>
  <i name="EDIFF">      0.00000000</i>
  <i type="int" name="NSW">     0</i>
  <i type="int" name="ISIF">    -1</i>
  <i name="SYMPREC">      0.00010000</i>
  <i name="ENCUT">    600.00000000</i>
  <i type="logical" name="LREAL"> F  </i>
  <i type="int" name="ISMEAR">     0</i>
  <i name="SIGMA">      0.02000000</i>
  <i type="logical" name="LASPH"> T  </i>
  <i type="string" name="METAGGA">R2SCAN</i>
  <i type="logical" name="LMIXTAU"> F  </i>
 </incar>
 <primitive_cell>
  <structure name="primitive_cell" >
   <crystal>
    <varray name="basis" >
     <v>       5.14404771       0.00000000      -2.60983724 </v>
     <v>      -1.93930586       4.76448525      -2.60983724 </v>
     <v>       0.00000000       0.00000000       5.76823000 </v>
    </varray>
    <i name="volume">    141.37204613 </i>
    <varray name="rec_basis" >
     <v>       0.19439944       0.07912712       0.00000000 </v>
     <v>       0.00000000       0.20988626       0.00000000 </v>
     <v>       0.08795608       0.13076418       0.17336341 </v>
    </varray>
   </crystal>
   <varray name="positions" >
    <v>       0.75000000       0.25000000       0.50000000 </v>
    <v>       0.25000000       0.75000000       0.50000000 </v>
    <v>       0.72738000       0.22738000       0.95477000 </v>
    <v>       0.25000000       0.25000000       0.00000000 </v>
    <v>       0.27262000       0.77262000       0.04523000 </v>
    <v>       0.75000000       0.75000000       0.00000000 </v>
    <v>       0.22738000       0.27262000       0.50000000 </v>
    <v>       0.77262000       0.72738000       0.50000000 </v>
    <v>       0.50000000       0.00000000       0.50000000 </v>
    <v>       0.00000000       0.50000000       0.50000000 </v>
   </varray>
  </structure>
  <varray name="primitive_index" >
   <v type="int" >        1 </v>
   <v type="int" >        2 </v>
   <v type="int" >        3 </v>
   <v type="int" >        4 </v>
   <v type="int" >        5 </v>
   <v type="int" >        6 </v>
   <v type="int" >        7 </v>
   <v type="int" >        8 </v>
   <v type="int" >        9 </v>
   <v type="int" >       10 </v>
  </varray>
 </primitive_cell>
 <kpoints>
  <generation param="Gamma">
   <v type="int" name="divisions">       7        7        8 </v>
   <v name="usershift">      0.00000000       0.00000000       0.00000000 </v>
   <v name="genvec1">      0.14285714      -0.00000000       0.00000000 </v>
   <v name="genvec2">      0.00000000       0.14285714       0.00000000 </v>
   <v name="genvec3">      0.00000000       0.00000000       0.12500000 </v>
   <v name="shift">      0.00000000       0.00000000       0.00000000 </v>
  </generation>
  <varray name="kpointlist" >
   <v>       0.00000000       0.00000000       0.00000000 </v>
   <v>       0.14285714      -0.00000000       0.00000000 </v>
   <v>       0.28571429       0.00000000       0.00000000 </v>
   <v>       0.42857143       0.00000000       0.00000000 </v>
   <v>       0.14285714       0.14285714       0.00000000 </v>
   <v>       0.28571429       0.14285714       0.00000000 </v>
   <v>       0.42857143       0.14285714       0.00000000 </v>
   <v>      -0.42857143       0.14285714       0.00000000 </v>
   <v>      -0.28571429       0.14285714       0.00000000 </v>
   <v>      -0.14285714       0.14285714       0.00000000 </v>
   <v>       0.28571429       0.28571429       0.00000000 </v>
   <v>       0.42857143       0.28571429       0.00000000 </v>
   <v>      -0.42857143       0.28571429       0.00000000 </v>
   <v>      -0.28571429       0.28571429       0.00000000 </v>
   <v>       0.42857143       0.42857143       0.00000000 </v>
   <v>      -0.42857143       0.42857143       0.00000000 </v>
   <v>       0.00000000      -0.00000000       0.12500000 </v>
   <v>       0.14285714      -0.00000000       0.12500000 </v>
   <v>       0.28571429      -0.00000000       0.12500000 </v>
   <v>       0.42857143      -0.00000000       0.12500000 </v>
   <v>      -0.42857143      -0.00000000       0.12500000 </v>
   <v>      -0.28571429       0.00000000       0.12500000 </v>
   <v>      -0.14285714      -0.00000000       0.12500000 </v>
   <v>       0.14285714       0.14285714       0.12500000 </v>
   <v>       0.28571429       0.14285714       0.12500000 </v>
   <v>       0.42857143       0.14285714       0.12500000 </v>
   <v>      -0.42857143       0.14285714       0.12500000 </v>
   <v>      -0.28571429       0.14285714       0.12500000 </v>
   <v>      -0.14285714       0.14285714       0.12500000 </v>
   <v>       0.28571429       0.28571429       0.12500000 </v>
   <v>       0.42857143       0.28571429       0.12500000 </v>
   <v>      -0.42857143       0.28571429       0.12500000 </v>
   <v>      -0.28571429       0.28571429       0.12500000 </v>
   <v>      -0.14285714       0.28571429       0.12500000 </v>
   <v>       0.42857143       0.42857143       0.12500000 </v>
   <v>      -0.42857143       0.42857143       0.12500000 </v>
   <v>      -0.28571429       0.42857143       0.12500000 </v>
   <v>      -0.14285714       0.42857143       0.12500000 </v>
   <v>      -0.42857143      -0.42857143       0.12500000 </v>
   <v>      -0.28571429      -0.42857143       0.12500000 </v>
   <v>      -0.14285714      -0.42857143       0.12500000 </v>
   <v>      -0.28571429      -0.28571429       0.12500000 </v>
   <v>      -0.14285714      -0.28571429       0.12500000 </v>
   <v>      -0.14285714      -0.14285714       0.12500000 </v>
   <v>       0.00000000      -0.00000000       0.25000000 </v>
   <v>       0.14285714       0.00000000       0.25000000 </v>
   <v>       0.28571429      -0.00000000       0.25000000 </v>
   <v>       0.42857143      -0.00000000       0.25000000 </v>
   <v>      -0.42857143      -0.00000000       0.25000000 </v>
   <v>      -0.28571429      -0.00000000       0.25000000 </v>
   <v>      -0.14285714      -0.00000000       0.25000000 </v>
   <v>       0.14285714       0.14285714       0.25000000 </v>
   <v>       0.28571429       0.14285714       0.25000000 </v>
   <v>       0.42857143       0.14285714       0.25000000 </v>
   <v>      -0.42857143       0.14285714       0.25000000 </v>
   <v>      -0.28571429       0.14285714       0.25000000 </v>
   <v>      -0.14285714       0.14285714       0.25000000 </v>
   <v>       0.28571429       0.28571429       0.25000000 </v>
   <v>       0.42857143       0.28571429       0.25000000 </v>
   <v>      -0.42857143       0.28571429       0.25000000 </v>
   <v>      -0.28571429       0.28571429       0.25000000 </v>
   <v>      -0.14285714       0.28571429       0.25000000 </v>
   <v>       0.42857143       0.42857143       0.25000000 </v>
   <v>      -0.42857143       0.42857143       0.25000000 </v>
   <v>      -0.28571429       0.42857143       0.25000000 </v>
   <v>      -0.14285714       0.42857143       0.25000000 </v>
   <v>      -0.42857143      -0.42857143       0.25000000 </v>
   <v>      -0.28571429      -0.42857143       0.25000000 </v>
   <v>      -0.14285714      -0.42857143       0.25000000 </v>
   <v>      -0.28571429      -0.28571429       0.25000000 </v>
   <v>      -0.14285714      -0.28571429       0.25000000 </v>
   <v>      -0.14285714      -0.14285714       0.25000000 </v>
   <v>      -0.00000000      -0.00000000       0.37500000 </v>
   <v>       0.14285714      -0.00000000       0.37500000 </v>
   <v>       0.28571429      -0.00000000       0.37500000 </v>
   <v>       0.42857143       0.00000000       0.37500000 </v>
   <v>      -0.42857143      -0.00000000       0.37500000 </v>
   <v>      -0.28571429      -0.00000000       0.37500000 </v>
   <v>      -0.14285714      -0.00000000       0.37500000 </v>
   <v>       0.14285714       0.14285714       0.37500000 </v>
   <v>       0.28571429       0.14285714       0.37500000 </v>
   <v>       0.42857143       0.14285714       0.37500000 </v>
   <v>      -0.42857143       0.14285714       0.37500000 </v>
   <v>      -0.28571429       0.14285714       0.37500000 </v>
   <v>      -0.14285714       0.14285714       0.37500000 </v>
   <v>       0.28571429       0.28571429       0.37500000 </v>
   <v>       0.42857143       0.28571429       0.37500000 </v>
   <v>      -0.42857143       0.28571429       0.37500000 </v>
   <v>      -0.28571429       0.28571429       0.37500000 </v>
   <v>      -0.14285714       0.28571429       0.37500000 </v>
   <v>       0.42857143       0.42857143       0.37500000 </v>
   <v>      -0.42857143       0.42857143       0.37500000 </v>
   <v>      -0.28571429       0.42857143       0.37500000 </v>
   <v>      -0.14285714       0.42857143       0.37500000 </v>
   <v>      -0.42857143      -0.42857143       0.37500000 </v>
   <v>      -0.28571429      -0.42857143       0.37500000 </v>
   <v>      -0.14285714      -0.42857143       0.37500000 </v>
   <v>      -0.28571429      -0.28571429       0.37500000 </v>
   <v>      -0.14285714      -0.28571429       0.37500000 </v>
   <v>      -0.14285714      -0.14285714       0.37500000 </v>
   <v>       0.00000000      -0.00000000       0.50000000 </v>
   <v>       0.14285714      -0.00000000       0.50000000 </v>
   <v>       0.28571429      -0.00000000       0.50000000 </v>
   <v>       0.42857143       0.00000000       0.50000000 </v>
   <v>       0.14285714       0.14285714       0.50000000 </v>
   <v>       0.28571429       0.14285714       0.50000000 </v>
   <v>       0.42857143       0.14285714       0.50000000 </v>
   <v>      -0.42857143       0.14285714       0.50000000 </v>
   <v>      -0.28571429       0.14285714       0.50000000 </v>
   <v>      -0.14285714       0.14285714       0.50000000 </v>
   <v>       0.28571429       0.28571429       0.50000000 </v>
   <v>       0.42857143       0.28571429       0.50000000 </v>
   <v>      -0.42857143       0.28571429       0.50000000 </v>
   <v>      -0.28571429       0.28571429       0.50000000 </v>
   <v>       0.42857143       0.42857143       0.50000000 </v>
   <v>      -0.42857143       0.42857143       0.50000000 </v>
  </varray>
  <varray name="weights" >
   <v>       0.00255102 </v>
   <v>       0.01020408 </v>
   <v>       0.01020408 </v>
   <v>       0.01020408 </v>
   <v>       0.00510204 </v>
   <v>       0.01020408 </v>
   <v>       0.01020408 </v>
   <v>       0.01020408 </v>
   <v>       0.01020408 </v>
   <v>       0.00510204 </v>
   <v>       0.00510204 </v>
   <v>       0.01020408 </v>
   <v>       0.01020408 </v>
   <v>       0.00510204 </v>
   <v>       0.00510204 </v>
   <v>       0.00510204 </v>
   <v>       0.00510204 </v>
   <v>       0.01020408 </v>
   <v>       0.01020408 </v>
   <v>       0.01020408 </v>
   <v>       0.01020408 </v>
   <v>       0.01020408 </v>
   <v>       0.01020408 </v>
   <v>       0.00510204 </v>
   <v>       0.01020408 </v>
   <v>       0.01020408 </v>
   <v>       0.01020408 </v>
   <v>       0.01020408 </v>
   <v>       0.01020408 </v>
   <v>       0.00510204 </v>
   <v>       0.01020408 </v>
   <v>       0.01020408 </v>
   <v>       0.01020408 </v>
   <v>       0.01020408 </v>
   <v>       0.00510204 </v>
   <v>       0.01020408 </v>
   <v>       0.01020408 </v>
   <v>       0.01020408 </v>
   <v>       0.00510204 </v>
   <v>       0.01020408 </v>
   <v>       0.01020408 </v>
   <v>       0.00510204 </v>
   <v>       0.01020408 </v>
   <v>       0.00510204 </v>
   <v>       0.00510204 </v>
   <v>       0.01020408 </v>
   <v>       0.01020408 </v>
   <v>       0.01020408 </v>
   <v>       0.01020408 </v>
   <v>       0.01020408 </v>
   <v>       0.01020408 </v>
   <v>       0.00510204 </v>
   <v>       0.01020408 </v>
   <v>       0.01020408 </v>
   <v>       0.01020408 </v>
   <v>       0.01020408 </v>
   <v>       0.01020408 </v>
   <v>       0.00510204 </v>
   <v>       0.01020408 </v>
   <v>       0.01020408 </v>
   <v>       0.01020408 </v>
   <v>       0.01020408 </v>
   <v>       0.00510204 </v>
   <v>       0.01020408 </v>
   <v>       0.01020408 </v>
   <v>       0.01020408 </v>
   <v>       0.00510204 </v>
   <v>       0.01020408 </v>
   <v>       0.01020408 </v>
   <v>       0.00510204 </v>
   <v>       0.01020408 </v>
   <v>       0.00510204 </v>
   <v>       0.00510204 </v>
   <v>       0.01020408 </v>
   <v>       0.01020408 </v>
   <v>       0.01020408 </v>
   <v>       0.01020408 </v>
   <v>       0.01020408 </v>
   <v>       0.01020408 </v>
   <v>       0.00510204 </v>
   <v>       0.01020408 </v>
   <v>       0.01020408 </v>
   <v>       0.01020408 </v>
   <v>       0.01020408 </v>
   <v>       0.01020408 </v>
   <v>       0.00510204 </v>
   <v>       0.01020408 </v>
   <v>       0.01020408 </v>
   <v>       0.01020408 </v>
   <v>       0.01020408 </v>
   <v>       0.00510204 </v>
   <v>       0.01020408 </v>
   <v>       0.01020408 </v>
   <v>       0.01020408 </v>
   <v>       0.00510204 </v>
   <v>       0.01020408 </v>
   <v>       0.01020408 </v>
   <v>       0.00510204 </v>
   <v>       0.01020408 </v>
   <v>       0.00510204 </v>
   <v>       0.00255102 </v>
   <v>       0.01020408 </v>
   <v>       0.01020408 </v>
   <v>       0.01020408 </v>
   <v>       0.00510204 </v>
   <v>       0.01020408 </v>
   <v>       0.01020408 </v>
   <v>       0.01020408 </v>
   <v>       0.01020408 </v>
   <v>       0.00510204 </v>
   <v>       0.00510204 </v>
   <v>       0.01020408 </v>
   <v>       0.01020408 </v>
   <v>       0.00510204 </v>
   <v>       0.00510204 </v>
   <v>       0.00510204 </v>
  </varray>
 </kpoints>
 <parameters>
  <separator name="general" >
   <i type="string" name="SYSTEM">routine with relax: pwdword</i>
   <i type="logical" name="LCOMPAT"> F  </i>
  </separator>
  <separator name="electronic" >
   <i type="string" name="PREC">acc</i>
   <i name="ENMAX">    600.00000000</i>
   <i name="ENAUG">    535.51400000</i>
   <i name="EDIFF">      0.00000000</i>
   <i type="int" name="IALGO">    58</i>
   <i type="int" name="IWAVPR">    10</i>
   <i type="int" name="NBANDS">    60</i>
   <i type="int" name="NBANDSLOW">    -1</i>
   <i type="int" name="NBANDSHIGH">    -1</i>
   <i name="NELECT">     98.00000000</i>
   <i type="int" name="TURBO">     0</i>
   <i type="int" name="IRESTART">     0</i>
   <i type="int" name="NREBOOT">     0</i>
   <i type="int" name="NMIN">     0</i>
   <i name="EREF">      0.00000000</i>
   <separator name="electronic smearing" >
    <i type="int" name="ISMEAR">     0</i>
    <i name="SIGMA">      0.02000000</i>
    <i name="KSPACING">      0.50000000</i>
    <i type="logical" name="KGAMMA"> T  </i>
    <i type="logical" name="KBLOWUP"> F  </i>
   </separator>
   <separator name="electronic projectors" >
    <i type="logical" name="LREAL"> F  </i>
    <v name="ROPT">      0.00000000      0.00000000      0.00000000</v>
    <i type="int" name="LMAXPAW">  -100</i>
    <i type="int" name="LMAXMIX">     2</i>
    <i type="logical" name="NLSPLINE"> F  </i>
   </separator>
   <separator name="electronic startup" >
    <i type="int" name="ISTART">     0</i>
    <i type="int" name="ICHARG">     2</i>
    <i type="int" name="INIWAV">     1</i>
   </separator>
   <separator name="electronic spin" >
    <i type="int" name="ISPIN">     1</i>
    <i type="logical" name="LNONCOLLINEAR"> F  </i>
    <v name="MAGMOM">      1.00000000      1.00000000      1.00000000      1.00000000      1.00000000      1.00000000      1.00000000      1.00000000      1.00000000      1.00000000</v>
    <i name="NUPDOWN">     -1.00000000</i>
    <i type="logical" name="LSORBIT"> F  </i>
    <v name="SAXIS">      0.00000000      0.00000000      1.00000000</v>
    <i type="logical" name="LSPIRAL"> F  </i>
    <v name="QSPIRAL">      0.00000000      0.00000000      0.00000000</v>
    <i type="logical" name="LZEROZ"> F  </i>
   </separator>
   <separator name="electronic exchange-correlation" >
    <i type="logical" name="LASPH"> T  </i>
    <i type="logical" name="LMETAGGA"> F  </i>
   </separator>
   <separator name="electronic convergence" >
    <i type="int" name="NELM">   100</i>
    <i type="int" name="NELMDL">    -5</i>
    <i type="int" name="NELMIN">     6</i>
    <i name="ENINI">    600.00000000</i>
    <separator name="electronic convergence detail" >
     <i type="logical" name="LDIAG"> T  </i>
     <i type="logical" name="LSUBROT"> F  </i>
     <i name="WEIMIN">      0.00000000</i>
     <i name="EBREAK">      0.00000000</i>
     <i name="DEPER">      0.30000000</i>
     <i type="int" name="NRMM">     4</i>
     <i name="TIME">      0.40000000</i>
    </separator>
   </separator>
   <separator name="electronic mixer" >
    <i name="AMIX">      0.40000000</i>
    <i name="BMIX">      1.00000000</i>
    <i name="AMIN">      0.10000000</i>
    <i name="AMIX_MAG">      1.60000000</i>
    <i name="BMIX_MAG">      1.00000000</i>
    <separator name="electronic mixer details" >
     <i type="int" name="IMIX">     4</i>
     <i type="logical" name="MIXFIRST"> F  </i>
     <i type="int" name="MAXMIX">   -45</i>
     <i name="WC">    100.00000000</i>
     <i type="int" name="INIMIX">     1</i>
     <i type="int" name="MIXPRE">     1</i>
     <i type="int" name="MREMOVE">     5</i>
    </separator>
   </separator>
   <separator name="electronic dipolcorrection" >
    <i type="logical" name="LDIPOL"> F  </i>
    <i type="logical" name="LMONO"> F  </i>
    <i type="int" name="IDIPOL">     0</i>
    <i name="EPSILON">      1.00000000</i>
    <v name="DIPOL">   -100.00000000   -100.00000000   -100.00000000</v>
    <i name="EFIELD">      0.00000000</i>
   </separator>
  </separator>
  <separator name="grids" >
   <i type="int" name="NGX">    48</i>
   <i type="int" name="NGY">    48</i>
   <i type="int" name="NGZ">    48</i>
   <i type="int" name="NGXF">    96</i>
   <i type="int" name="NGYF">    96</i>
   <i type="int" name="NGZF">    96</i>
   <i type="logical" name="ADDGRID"> T  </i>
  </separator>
  <separator name="ionic" >
   <i type="int" name="NSW">     0</i>
   <i type="int" name="IBRION">    -1</i>
   <i type="int" name="MDALGO">     0</i>
   <i type="int" name="ISIF">    -1</i>
   <i name="PSTRESS">      0.00000000</i>
   <i name="EDIFFG">      0.00000001</i>
   <i type="int" name="NFREE">     0</i>
   <i name="POTIM">      0.50000000</i>
   <i name="SMASS">     -3.00000000</i>
   <i name="SCALEE">      1.00000000</i>
  </separator>
  <separator name="ionic md" >
   <i name="TEBEG">      0.00010000</i>
   <i name="TEEND">      0.00010000</i>
   <i type="int" name="NBLOCK">     1</i>
   <i type="int" name="KBLOCK">     1</i>
   <i type="int" name="NPACO">   256</i>
   <i name="APACO">     16.00000000</i>
  </separator>
  <separator name="symmetry" >
   <i type="int" name="ISYM">     2</i>
   <i name="SYMPREC">      0.00010000</i>
  </separator>
  <separator name="dos" >
   <i type="int" name="LORBIT">     0</i>
   <v name="RWIGS">     -1.00000000     -1.00000000     -1.00000000</v>
   <i type="int" name="NEDOS">   301</i>
   <i name="EMIN">     10.00000000</i>
   <i name="EMAX">    -10.00000000</i>
   <i name="EFERMI">      0.00000000</i>
  </separator>
  <separator name="writing" >
   <i type="int" name="NWRITE">     2</i>
   <i type="logical" name="LWAVE"> T  </i>
   <i type="logical" name="LDOWNSAMPLE"> F  </i>
   <i type="logical" name="LCHARG"> T  </i>
   <i type="logical" name="LPARD"> F  </i>
   <i type="logical" name="LVTOT"> F  </i>
   <i type="logical" name="LVHAR"> F  </i>
   <i type="logical" name="LELF"> F  </i>
   <i type="logical" name="LOPTICS"> F  </i>
   <v name="STM">      0.00000000      0.00000000      0.00000000      0.00000000      0.00000000      0.00000000      0.00000000</v>
  </separator>
  <separator name="performance" >
   <i type="int" name="NPAR">     6</i>
   <i type="int" name="NSIM">     4</i>
   <i type="int" name="NBLK">    -1</i>
   <i type="logical" name="LPLANE"> T  </i>
   <i type="logical" name="LSCALAPACK"> T  </i>
   <i type="logical" name="LSCAAWARE"> F  </i>
   <i type="logical" name="LSCALU"> F  </i>
   <i type="logical" name="LASYNC"> F  </i>
   <i type="logical" name="LORBITALREAL"> F  </i>
  </separator>
  <separator name="miscellaneous" >
   <i type="int" name="IDIOT">     3</i>
   <i type="int" name="PHON_NSTRUCT">    -1</i>
   <i type="logical" name="LMUSIC"> F  </i>
   <v name="POMASS">     10.81100000     95.94000000     28.08500000</v>
   <v name="DARWINR">      0.00000000      0.00000000      0.00000000</v>
   <v name="DARWINV">      1.00000000      1.00000000      1.00000000</v>
   <i type="logical" name="LCORR"> T  </i>
  </separator>
  <i type="logical" name="GGA_COMPAT"> T  </i>
  <i type="logical" name="LBERRY"> F  </i>
  <i type="int" name="ICORELEVEL">     0</i>
  <i type="logical" name="LDAU"> F  </i>
  <i type="int" name="I_CONSTRAINED_M">     0</i>
  <separator name="electronic exchange-correlation" >
   <i type="string" name="GGA">--</i>
   <i type="int" name="VOSKOWN">     0</i>
   <i type="logical" name="LHFCALC"> F  </i>
   <i type="string" name="PRECFOCK"></i>
   <i type="logical" name="LSYMGRAD"> F  </i>
   <i type="logical" name="LHFONE"> F  </i>
   <i type="logical" name="LRHFCALC"> F  </i>
   <i type="logical" name="LTHOMAS"> F  </i>
   <i type="logical" name="LMODELHF"> F  </i>
   <i type="logical" name="LFOCKACE"> F  </i>
   <i name="ENCUT4O">     -1.00000000</i>
   <i type="int" name="EXXOEP">     0</i>
   <i type="int" name="FOURORBIT">     0</i>
   <i name="AEXX">      0.00000000</i>
   <i name="HFALPHA">      0.00000000</i>
   <i name="MCALPHA">      0.00000000</i>
   <i name="ALDAX">      1.00000000</i>
   <i name="AGGAX">      1.00000000</i>
   <i name="ALDAC">      1.00000000</i>
   <i name="AGGAC">      1.00000000</i>
   <i type="int" name="NKREDX">     1</i>
   <i type="int" name="NKREDY">     1</i>
   <i type="int" name="NKREDZ">     1</i>
   <i type="logical" name="SHIFTRED"> F  </i>
   <i type="logical" name="ODDONLY"> F  </i>
   <i type="logical" name="EVENONLY"> F  </i>
   <i type="int" name="LMAXFOCK">     0</i>
   <i type="int" name="NMAXFOCKAE">     0</i>
   <i type="logical" name="LFOCKAEDFT"> F  </i>
   <i name="HFSCREEN">      0.00000000</i>
   <i name="HFSCREENC">      0.00000000</i>
   <i type="int" name="NBANDSGWLOW">     0</i>
  </separator>
  <separator name="vdW DFT" >
   <i type="logical" name="LUSE_VDW"> F  </i>
   <i name="Zab_VDW">     -0.84910000</i>
   <i name="PARAM1">      0.12340000</i>
   <i name="PARAM2">      1.00000000</i>
   <i name="PARAM3">      0.00000000</i>
  </separator>
  <separator name="model GW" >
   <i type="int" name="MODEL_GW">     0</i>
   <i name="MODEL_EPS0">      8.48232277</i>
   <i name="MODEL_ALPHA">      1.00000000</i>
  </separator>
  <separator name="linear response parameters" >
   <i type="logical" name="LEPSILON"> F  </i>
   <i type="logical" name="LRPA"> F  </i>
   <i type="logical" name="LNABLA"> F  </i>
   <i type="logical" name="LVEL"> F  </i>
   <i type="int" name="KINTER">     0</i>
   <i name="CSHIFT">      0.10000000</i>
   <i name="OMEGAMAX">     -1.00000000</i>
   <i name="DEG_THRESHOLD">      0.00200000</i>
   <i name="RTIME">     -0.10000000</i>
   <i name="WPLASMAI">      0.00000000</i>
   <v name="DFIELD">      0.00000000      0.00000000      0.00000000</v>
   <v name="WPLASMA">      0.00000000      0.00000000      0.00000000      0.00000000      0.00000000      0.00000000      0.00000000      0.00000000      0.00000000</v>
  </separator>
  <separator name="orbital magnetization" >
   <i type="logical" name="NUCIND"> F  </i>
   <v name="MAGPOS">      0.00000000      0.00000000      0.00000000</v>
   <i type="logical" name="LNICSALL"> T  </i>
   <i type="logical" name="ORBITALMAG"> F  </i>
   <i type="logical" name="LMAGBLOCH"> F  </i>
   <i type="logical" name="LCHIMAG"> F  </i>
   <i type="logical" name="LGAUGE"> T  </i>
   <i type="int" name="MAGATOM">     0</i>
   <v name="MAGDIPOL">      0.00000000      0.00000000      0.00000000</v>
   <v name="AVECCONST">      0.00000000      0.00000000      0.00000000</v>
  </separator>
  <separator name="response functions" >
   <i type="logical" name="LFINITE_TEMPERATURE"> F  </i>
   <i type="logical" name="LADDER"> F  </i>
   <i type="logical" name="LRPAFORCE"> F  </i>
   <i type="logical" name="LFXC"> F  </i>
   <i type="logical" name="LHARTREE"> T  </i>
   <i type="int" name="IBSE">     0</i>
   <v type="int" name="KPOINT">    -1     0     0     0</v>
   <i type="logical" name="LTCTC"> F  </i>
   <i type="logical" name="LTCTE"> F  </i>
   <i type="logical" name="LTETE"> F  </i>
   <i type="logical" name="LTRIPLET"> F  </i>
   <i type="logical" name="LFXCEPS"> F  </i>
   <i type="logical" name="LFXHEG"> F  </i>
   <i type="int" name="NATURALO">     2</i>
   <i type="logical" name="LHOLEGF"> F  </i>
   <i type="logical" name="L2ORDER"> F  </i>
   <i type="logical" name="LDMP1"> F  </i>
   <i type="logical" name="LMP2LT"> F  </i>
   <i type="logical" name="LSMP2LT"> F  </i>
   <i type="logical" name="LGWLF"> F  </i>
   <i name="ENCUTGW">     -2.00000000</i>
   <i name="ENCUTGWSOFT">     -2.00000000</i>
   <i name="ENCUTLF">     -1.00000000</i>
   <i type="logical" name="LESF_SPLINES"> F  </i>
   <i type="int" name="LMAXMP2">    -1</i>
   <i name="SCISSOR">      0.00000000</i>
   <i type="int" name="NOMEGA">     0</i>
   <i type="int" name="NOMEGAR">     0</i>
   <i type="int" name="NBANDSGW">    -1</i>
   <i type="int" name="NBANDSO">    -1</i>
   <i type="int" name="NBANDSV">    -1</i>
   <i type="int" name="NELM">   100</i>
   <i type="int" name="NELMHF">     1</i>
   <i type="int" name="DIM">     3</i>
   <i type="int" name="IESPILON">     4</i>
   <i type="int" name="ANTIRES">     0</i>
   <i name="OMEGAMAX">    -30.00000000</i>
   <i name="OMEGAMIN">    -30.00000000</i>
   <i name="OMEGATL">   -200.00000000</i>
   <i type="int" name="OMEGAGRID">     0</i>
   <i name="CSHIFT">     -0.10000000</i>
   <i type="logical" name="LSELFENERGY"> F  </i>
   <i type="logical" name="LSPECTRAL"> F  </i>
   <i type="logical" name="LSPECTRALGW"> F  </i>
   <i type="logical" name="LSINGLES"> F  </i>
   <i type="logical" name="LFERMIGW"> F  </i>
   <i type="logical" name="ODDONLYGW"> F  </i>
   <i type="logical" name="EVENONLYGW"> F  </i>
   <i type="int" name="NKREDLFX">     1</i>
   <i type="int" name="NKREDLFY">     1</i>
   <i type="int" name="NKREDLFZ">     1</i>
   <i type="int" name="MAXMEM">  2800</i>
   <i type="int" name="TELESCOPE">     0</i>
   <i type="int" name="NTAUPAR">    -1</i>
   <i type="int" name="NOMEGAPAR">    -1</i>
   <i name="DAMP_NEWTON">      0.80000001</i>
   <i name="LAMBDA">      1.00000000</i>
  </separator>
  <separator name="External order field" >
   <i name="OFIELD_KAPPA">      0.00000000</i>
   <v name="OFIELD_K">      0.00000000      0.00000000      0.00000000</v>
   <i name="OFIELD_Q6_NEAR">      0.00000000</i>
   <i name="OFIELD_Q6_FAR">      0.00000000</i>
   <i name="OFIELD_A">      0.00000000</i>
  </separator>
 </parameters>
 <atominfo>
  <atoms>      10 </atoms>
  <types>       3 </types>
  <array name="atoms" >
   <dimension dim="1">ion</dimension>
   <field type="string">element</field>
   <field type="int">atomtype</field>
   <set>
    <rc><c>B </c><c>   1</c></rc>
    <rc><c>B </c><c>   1</c></rc>
    <rc><c>Mo</c><c>   2</c></rc>
    <rc><c>Mo</c><c>   2</c></rc>
    <rc><c>Mo</c><c>   2</c></rc>
    <rc><c>Mo</c><c>   2</c></rc>
    <rc><c>Mo</c><c>   2</c></rc>
    <rc><c>Mo</c><c>   2</c></rc>
    <rc><c>Si</c><c>   3</c></rc>
    <rc><c>Si</c><c>   3</c></rc>
   </set>
  </array>
  <array name="atomtypes" >
   <dimension dim="1">type</dimension>
   <field type="int">atomspertype</field>
   <field type="string">element</field>
   <field>mass</field>
   <field>valence</field>
   <field type="string">pseudopotential</field>
   <set>
    <rc><c>   2</c><c>B </c><c>     10.81100000</c><c>      3.00000000</c><c>  PAW_PBE B 06Sep2000                   </c></rc>
    <rc><c>   6</c><c>Mo</c><c>     95.94000000</c><c>     14.00000000</c><c>  PAW_PBE Mo_sv 02Feb2006               </c></rc>
    <rc><c>   2</c><c>Si</c><c>     28.08500000</c><c>      4.00000000</c><c>  PAW_PBE Si 05Jan2001                  </c></rc>
   </set>
  </array>
 </atominfo>
 <structure name="initialpos" >
  <crystal>
   <varray name="basis" >
    <v>       5.14404771       0.00000000      -2.60983724 </v>
    <v>      -1.93930586       4.76448525      -2.60983724 </v>
    <v>       0.00000000       0.00000000       5.76823000 </v>
   </varray>
   <i name="volume">    141.37204613 </i>
   <varray name="rec_basis" >
    <v>       0.19439944       0.07912712       0.00000000 </v>
    <v>       0.00000000       0.20988626       0.00000000 </v>
    <v>       0.08795608       0.13076418       0.17336341 </v>
   </varray>
  </crystal>
  <varray name="positions" >
   <v>       0.75000000       0.25000000       0.50000000 </v>
   <v>       0.25000000       0.75000000       0.50000000 </v>
   <v>       0.72738000       0.22738000       0.95477000 </v>
   <v>       0.25000000       0.25000000       0.00000000 </v>
   <v>       0.27262000       0.77262000       0.04523000 </v>
   <v>       0.75000000       0.75000000       0.00000000 </v>
   <v>       0.22738000       0.27262000       0.50000000 </v>
   <v>       0.77262000       0.72738000       0.50000000 </v>
   <v>       0.50000000       0.00000000       0.50000000 </v>
   <v>       0.00000000       0.50000000       0.50000000 </v>
  </varray>
 </structure>
 <calculation>
  <scstep>
   <time name="total">   16.39   16.54</time>
   <energy>
    <i name="alphaZ">    590.95449164 </i>
    <i name="ewald">  -9387.78311423 </i>
    <i name="hartreedc">  -2319.99422110 </i>
    <i name="XCdc">    467.75448638 </i>
    <i name="pawpsdc">   9166.97638771 </i>
    <i name="pawaedc">  -9126.13493418 </i>
    <i name="eentropy">     -0.00060450 </i>
    <i name="bandstr">    175.11747207 </i>
    <i name="atom">  11522.16744521 </i>
    <i name="e_fr_energy">   1089.05740900 </i>
    <i name="e_wo_entrp">   1089.05801350 </i>
    <i name="e_0_energy">   1089.05771125 </i>
   </energy>
  </scstep>
  <scstep>
   <time name="total">   16.36   16.50</time>
   <energy>
    <i name="e_fr_energy">   -162.02895470 </i>
    <i name="e_wo_entrp">   -162.02712924 </i>
    <i name="e_0_energy">   -162.02804197 </i>
   </energy>
  </scstep>
  <scstep>
   <time name="total">   18.61   18.78</time>
   <energy>
    <i name="e_fr_energy">   -213.59290093 </i>
    <i name="e_wo_entrp">   -213.59133439 </i>
    <i name="e_0_energy">   -213.59211766 </i>
   </energy>
  </scstep>
  <scstep>
   <time name="total">   17.81   17.97</time>
   <energy>
    <i name="e_fr_energy">   -214.69709000 </i>
    <i name="e_wo_entrp">   -214.69558133 </i>
    <i name="e_0_energy">   -214.69633566 </i>
   </energy>
  </scstep>
  <scstep>
   <time name="total">   19.16   19.32</time>
   <energy>
    <i name="e_fr_energy">   -214.72247266 </i>
    <i name="e_wo_entrp">   -214.72096211 </i>
    <i name="e_0_energy">   -214.72171738 </i>
   </energy>
  </scstep>
  <scstep>
   <time name="total">   19.09   19.25</time>
   <energy>
    <i name="e_fr_energy">   -133.07540187 </i>
    <i name="e_wo_entrp">   -133.07359534 </i>
    <i name="e_0_energy">   -133.07449861 </i>
   </energy>
  </scstep>
  <scstep>
   <time name="total">   19.00   19.16</time>
   <energy>
    <i name="e_fr_energy">   -164.22379880 </i>
    <i name="e_wo_entrp">   -164.22143882 </i>
    <i name="e_0_energy">   -164.22261881 </i>
   </energy>
  </scstep>
  <scstep>
   <time name="total">   19.31   19.46</time>
   <energy>
    <i name="e_fr_energy">   -168.33290613 </i>
    <i name="e_wo_entrp">   -168.33074882 </i>
    <i name="e_0_energy">   -168.33182748 </i>
   </energy>
  </scstep>
  <scstep>
   <time name="total">   18.91   19.06</time>
   <energy>
    <i name="e_fr_energy">   -169.27140577 </i>
    <i name="e_wo_entrp">   -169.26938954 </i>
    <i name="e_0_energy">   -169.27039765 </i>
   </energy>
  </scstep>
  <scstep>
   <time name="total">   18.92   19.08</time>
   <energy>
    <i name="e_fr_energy">   -169.75389765 </i>
    <i name="e_wo_entrp">   -169.75200502 </i>
    <i name="e_0_energy">   -169.75295133 </i>
   </energy>
  </scstep>
  <scstep>
   <time name="total">   19.29   19.45</time>
   <energy>
    <i name="e_fr_energy">   -169.91064827 </i>
    <i name="e_wo_entrp">   -169.90873090 </i>
    <i name="e_0_energy">   -169.90968959 </i>
   </energy>
  </scstep>
  <scstep>
   <time name="total">   19.23   19.38</time>
   <energy>
    <i name="e_fr_energy">   -169.98712279 </i>
    <i name="e_wo_entrp">   -169.98520160 </i>
    <i name="e_0_energy">   -169.98616220 </i>
   </energy>
  </scstep>
  <scstep>
   <time name="total">   19.17   19.33</time>
   <energy>
    <i name="e_fr_energy">   -170.03470866 </i>
    <i name="e_wo_entrp">   -170.03299058 </i>
    <i name="e_0_energy">   -170.03384962 </i>
   </energy>
  </scstep>
  <scstep>
   <time name="total">   19.13   19.29</time>
   <energy>
    <i name="e_fr_energy">   -170.05393015 </i>
    <i name="e_wo_entrp">   -170.05217228 </i>
    <i name="e_0_energy">   -170.05305122 </i>
   </energy>
  </scstep>
  <scstep>
   <time name="total">   19.25   19.40</time>
   <energy>
    <i name="e_fr_energy">   -170.06992473 </i>
    <i name="e_wo_entrp">   -170.06803691 </i>
    <i name="e_0_energy">   -170.06898082 </i>
   </energy>
  </scstep>
  <scstep>
   <time name="total">   19.23   19.38</time>
   <energy>
    <i name="e_fr_energy">   -170.07738050 </i>
    <i name="e_wo_entrp">   -170.07549869 </i>
    <i name="e_0_energy">   -170.07643960 </i>
   </energy>
  </scstep>
  <scstep>
   <time name="total">   19.04   19.19</time>
   <energy>
    <i name="e_fr_energy">   -170.08197498 </i>
    <i name="e_wo_entrp">   -170.08007505 </i>
    <i name="e_0_energy">   -170.08102502 </i>
   </energy>
  </scstep>
  <scstep>
   <time name="total">   18.87   19.03</time>
   <energy>
    <i name="e_fr_energy">   -170.08469221 </i>
    <i name="e_wo_entrp">   -170.08275033 </i>
    <i name="e_0_energy">   -170.08372127 </i>
   </energy>
  </scstep>
  <scstep>
   <time name="total">   19.44   19.59</time>
   <energy>
    <i name="e_fr_energy">   -170.08560733 </i>
    <i name="e_wo_entrp">   -170.08367260 </i>
    <i name="e_0_energy">   -170.08463996 </i>
   </energy>
  </scstep>
  <scstep>
   <time name="total">   19.16   19.32</time>
   <energy>
    <i name="e_fr_energy">   -170.08641132 </i>
    <i name="e_wo_entrp">   -170.08449486 </i>
    <i name="e_0_energy">   -170.08545309 </i>
   </energy>
  </scstep>
  <scstep>
   <time name="total">   19.07   19.22</time>
   <energy>
    <i name="e_fr_energy">   -170.08673133 </i>
    <i name="e_wo_entrp">   -170.08480644 </i>
    <i name="e_0_energy">   -170.08576889 </i>
   </energy>
  </scstep>
  <scstep>
   <time name="total">   19.14   19.29</time>
   <energy>
    <i name="e_fr_energy">   -170.08690829 </i>
    <i name="e_wo_entrp">   -170.08498775 </i>
    <i name="e_0_energy">   -170.08594802 </i>
   </energy>
  </scstep>
  <scstep>
   <time name="total">   18.85   19.00</time>
   <energy>
    <i name="e_fr_energy">   -170.08703352 </i>
    <i name="e_wo_entrp">   -170.08512239 </i>
    <i name="e_0_energy">   -170.08607795 </i>
   </energy>
  </scstep>
  <scstep>
   <time name="total">   18.77   18.93</time>
   <energy>
    <i name="e_fr_energy">   -170.08707397 </i>
    <i name="e_wo_entrp">   -170.08516189 </i>
    <i name="e_0_energy">   -170.08611793 </i>
   </energy>
  </scstep>
  <scstep>
   <time name="total">   19.31   19.46</time>
   <energy>
    <i name="e_fr_energy">   -170.08710873 </i>
    <i name="e_wo_entrp">   -170.08519776 </i>
    <i name="e_0_energy">   -170.08615325 </i>
   </energy>
  </scstep>
  <scstep>
   <time name="total">   19.11   19.27</time>
   <energy>
    <i name="e_fr_energy">   -170.08712617 </i>
    <i name="e_wo_entrp">   -170.08521891 </i>
    <i name="e_0_energy">   -170.08617254 </i>
   </energy>
  </scstep>
  <scstep>
   <time name="total">   18.94   19.10</time>
   <energy>
    <i name="e_fr_energy">   -170.08713089 </i>
    <i name="e_wo_entrp">   -170.08522473 </i>
    <i name="e_0_energy">   -170.08617781 </i>
   </energy>
  </scstep>
  <scstep>
   <time name="total">   19.16   19.32</time>
   <energy>
    <i name="e_fr_energy">   -170.08713568 </i>
    <i name="e_wo_entrp">   -170.08522863 </i>
    <i name="e_0_energy">   -170.08618216 </i>
   </energy>
  </scstep>
  <scstep>
   <time name="total">   19.09   19.25</time>
   <energy>
    <i name="e_fr_energy">   -170.08713707 </i>
    <i name="e_wo_entrp">   -170.08523086 </i>
    <i name="e_0_energy">   -170.08618397 </i>
   </energy>
  </scstep>
  <scstep>
   <time name="total">   19.03   19.19</time>
   <energy>
    <i name="e_fr_energy">   -170.08713841 </i>
    <i name="e_wo_entrp">   -170.08523298 </i>
    <i name="e_0_energy">   -170.08618570 </i>
   </energy>
  </scstep>
  <scstep>
   <time name="total">   19.17   19.33</time>
   <energy>
    <i name="e_fr_energy">   -170.08713901 </i>
    <i name="e_wo_entrp">   -170.08523296 </i>
    <i name="e_0_energy">   -170.08618599 </i>
   </energy>
  </scstep>
  <scstep>
   <time name="total">   19.12   19.27</time>
   <energy>
    <i name="e_fr_energy">   -170.08713947 </i>
    <i name="e_wo_entrp">   -170.08523251 </i>
    <i name="e_0_energy">   -170.08618599 </i>
   </energy>
  </scstep>
  <scstep>
   <time name="total">   19.08   19.24</time>
   <energy>
    <i name="e_fr_energy">   -170.08713966 </i>
    <i name="e_wo_entrp">   -170.08523333 </i>
    <i name="e_0_energy">   -170.08618650 </i>
   </energy>
  </scstep>
  <scstep>
   <time name="total">   18.98   19.13</time>
   <energy>
    <i name="e_fr_energy">   -170.08713984 </i>
    <i name="e_wo_entrp">   -170.08523340 </i>
    <i name="e_0_energy">   -170.08618662 </i>
   </energy>
  </scstep>
  <scstep>
   <time name="total">   18.77   18.93</time>
   <energy>
    <i name="e_fr_energy">   -170.08713994 </i>
    <i name="e_wo_entrp">   -170.08523325 </i>
    <i name="e_0_energy">   -170.08618659 </i>
   </energy>
  </scstep>
  <scstep>
   <time name="total">   18.96   19.12</time>
   <energy>
    <i name="e_fr_energy">   -170.08713997 </i>
    <i name="e_wo_entrp">   -170.08523333 </i>
    <i name="e_0_energy">   -170.08618665 </i>
   </energy>
  </scstep>
  <scstep>
   <time name="total">   18.74   18.90</time>
   <energy>
    <i name="e_fr_energy">   -170.08714000 </i>
    <i name="e_wo_entrp">   -170.08523342 </i>
    <i name="e_0_energy">   -170.08618671 </i>
   </energy>
  </scstep>
  <scstep>
   <time name="total">   18.50   18.65</time>
   <energy>
    <i name="e_fr_energy">   -170.08714002 </i>
    <i name="e_wo_entrp">   -170.08523333 </i>
    <i name="e_0_energy">   -170.08618667 </i>
   </energy>
  </scstep>
  <scstep>
   <time name="total">   18.49   18.64</time>
   <energy>
    <i name="e_fr_energy">   -170.08714004 </i>
    <i name="e_wo_entrp">   -170.08523338 </i>
    <i name="e_0_energy">   -170.08618671 </i>
   </energy>
  </scstep>
  <scstep>
   <time name="total">   18.97   19.12</time>
   <energy>
    <i name="e_fr_energy">   -170.08714005 </i>
    <i name="e_wo_entrp">   -170.08523340 </i>
    <i name="e_0_energy">   -170.08618672 </i>
   </energy>
  </scstep>
  <scstep>
   <time name="total">   19.17   19.32</time>
   <energy>
    <i name="e_fr_energy">   -170.08714005 </i>
    <i name="e_wo_entrp">   -170.08523340 </i>
    <i name="e_0_energy">   -170.08618672 </i>
   </energy>
  </scstep>
  <scstep>
   <time name="total">   21.58   21.76</time>
   <energy>
    <i name="alphaZ">    590.95449164 </i>
    <i name="ewald">  -9387.78311423 </i>
    <i name="hartreedc">  -2197.02367457 </i>
    <i name="XCdc">    477.08181256 </i>
    <i name="pawpsdc">  14551.75875154 </i>
    <i name="pawaedc"> -14527.44883463 </i>
    <i name="eentropy">     -0.00190666 </i>
    <i name="bandstr">  -1199.79211092 </i>
    <i name="atom">  11522.16744521 </i>
    <i name="e_fr_energy">   -170.08714005 </i>
    <i name="e_wo_entrp">   -170.08523340 </i>
    <i name="e_0_energy">   -170.08618672 </i>
   </energy>
  </scstep>
  <structure>
   <crystal>
    <varray name="basis" >
     <v>       5.14404771       0.00000000      -2.60983724 </v>
     <v>      -1.93930586       4.76448525      -2.60983724 </v>
     <v>       0.00000000       0.00000000       5.76823000 </v>
    </varray>
    <i name="volume">    141.37204613 </i>
    <varray name="rec_basis" >
     <v>       0.19439944       0.07912712       0.00000000 </v>
     <v>       0.00000000       0.20988626       0.00000000 </v>
     <v>       0.08795608       0.13076418       0.17336341 </v>
    </varray>
   </crystal>
   <varray name="positions" >
    <v>       0.75000000       0.25000000       0.50000000 </v>
    <v>       0.25000000       0.75000000       0.50000000 </v>
    <v>       0.72738000       0.22738000       0.95477000 </v>
    <v>       0.25000000       0.25000000       0.00000000 </v>
    <v>       0.27262000       0.77262000       0.04523000 </v>
    <v>       0.75000000       0.75000000       0.00000000 </v>
    <v>       0.22738000       0.27262000       0.50000000 </v>
    <v>       0.77262000       0.72738000       0.50000000 </v>
    <v>       0.50000000       0.00000000       0.50000000 </v>
    <v>       0.00000000       0.50000000       0.50000000 </v>
   </varray>
  </structure>
  <varray name="forces" >
   <v>       0.00000000       0.00000000       0.00000000 </v>
   <v>       0.00000000       0.00000000       0.00000000 </v>
   <v>       0.00000000       0.00000000       0.00000000 </v>
   <v>       0.00000000       0.00000000       0.00000000 </v>
   <v>       0.00000000       0.00000000       0.00000000 </v>
   <v>       0.00000000       0.00000000       0.00000000 </v>
   <v>       0.00000000       0.00000000       0.00000000 </v>
   <v>       0.00000000       0.00000000       0.00000000 </v>
   <v>       0.00000000       0.00000000       0.00000000 </v>
   <v>       0.00000000       0.00000000       0.00000000 </v>
  </varray>
  <varray name="stress" >
   <v>       0.00000000       0.00000000       0.00000000 </v>
   <v>       0.00000000       0.00000000       0.00000000 </v>
   <v>       0.00000000       0.00000000       0.00000000 </v>
  </varray>
  <energy>
   <i name="e_fr_energy">   -170.08714005 </i>
   <i name="e_wo_entrp">   -170.08523340 </i>
   <i name="e_0_energy">   -170.08618672 </i>
  </energy>
  <time name="totalsc">  798.42  805.04</time>
  <eigenvalues>
   <array>
    <dimension dim="1">band</dimension>
    <dimension dim="2">kpoint</dimension>
    <dimension dim="3">spin</dimension>
    <field>eigene</field>
    <field>occ</field>
    <set>
     <set comment="spin 1">
      <set comment="kpoint 1">
       <r>  -52.4177    1.0000 </r>
       <r>  -52.4022    1.0000 </r>
       <r>  -51.8327    1.0000 </r>
       <r>  -51.7982    1.0000 </r>
       <r>  -51.7981    1.0000 </r>
       <r>  -51.7634    1.0000 </r>
       <r>  -26.1140    1.0000 </r>
       <r>  -26.0240    1.0000 </r>
       <r>  -25.9611    1.0000 </r>
       <r>  -25.9609    1.0000 </r>
       <r>  -25.9096    1.0000 </r>
       <r>  -25.9095    1.0000 </r>
       <r>  -25.8789    1.0000 </r>
       <r>  -25.6986    1.0000 </r>
       <r>  -25.6985    1.0000 </r>
       <r>  -25.5432    1.0000 </r>
       <r>  -25.1551    1.0000 </r>
       <r>  -25.0718    1.0000 </r>
       <r>  -25.0663    1.0000 </r>
       <r>  -25.0662    1.0000 </r>
       <r>  -24.9929    1.0000 </r>
       <r>  -24.9127    1.0000 </r>
       <r>  -24.9125    1.0000 </r>
       <r>  -24.8367    1.0000 </r>
       <r>   -1.9912    1.0000 </r>
       <r>    0.5629    1.0000 </r>
       <r>    2.3499    1.0000 </r>
       <r>    4.5542    1.0000 </r>
       <r>    4.5553    1.0000 </r>
       <r>    4.8197    1.0000 </r>
       <r>    5.3595    1.0000 </r>
       <r>    5.5184    1.0000 </r>
       <r>    6.3565    1.0000 </r>
       <r>    7.1072    1.0000 </r>
       <r>    7.1113    1.0000 </r>
       <r>    7.1117    1.0000 </r>
       <r>    7.2459    1.0000 </r>
       <r>    7.6686    1.0000 </r>
       <r>    7.6687    1.0000 </r>
       <r>    8.0321    1.0000 </r>
       <r>    8.0323    1.0000 </r>
       <r>    8.2830    1.0000 </r>
       <r>    8.2837    1.0000 </r>
       <r>    8.9909    1.0000 </r>
       <r>   10.2142    1.0000 </r>
       <r>   10.2284    1.0000 </r>
       <r>   10.2284    1.0000 </r>
       <r>   11.2348    0.0000 </r>
       <r>   11.2350    0.0000 </r>
       <r>   11.2455    0.0000 </r>
       <r>   11.2853    0.0000 </r>
       <r>   11.3186    0.0000 </r>
       <r>   11.3970    0.0000 </r>
       <r>   11.4189    0.0000 </r>
       <r>   11.5150    0.0000 </r>
       <r>   12.3409    0.0000 </r>
       <r>   12.8148    0.0000 </r>
       <r>   12.8149    0.0000 </r>
       <r>   13.1665    0.0000 </r>
       <r>   13.3157    0.0000 </r>
      </set>
      <set comment="kpoint 2">
       <r>  -52.4162    1.0000 </r>
       <r>  -52.4023    1.0000 </r>
       <r>  -51.8318    1.0000 </r>
       <r>  -51.8006    1.0000 </r>
       <r>  -51.7964    1.0000 </r>
       <r>  -51.7651    1.0000 </r>
       <r>  -26.0997    1.0000 </r>
       <r>  -26.0032    1.0000 </r>
       <r>  -25.9583    1.0000 </r>
       <r>  -25.9409    1.0000 </r>
       <r>  -25.8963    1.0000 </r>
       <r>  -25.8942    1.0000 </r>
       <r>  -25.8658    1.0000 </r>
       <r>  -25.7132    1.0000 </r>
       <r>  -25.6950    1.0000 </r>
       <r>  -25.5531    1.0000 </r>
       <r>  -25.1585    1.0000 </r>
       <r>  -25.0874    1.0000 </r>
       <r>  -25.0827    1.0000 </r>
       <r>  -25.0757    1.0000 </r>
       <r>  -25.0034    1.0000 </r>
       <r>  -24.9343    1.0000 </r>
       <r>  -24.9146    1.0000 </r>
       <r>  -24.8477    1.0000 </r>
       <r>   -1.8603    1.0000 </r>
       <r>    0.5547    1.0000 </r>
       <r>    2.1435    1.0000 </r>
       <r>    4.3822    1.0000 </r>
       <r>    4.6698    1.0000 </r>
       <r>    4.8087    1.0000 </r>
       <r>    5.4091    1.0000 </r>
       <r>    5.9102    1.0000 </r>
       <r>    6.3675    1.0000 </r>
       <r>    6.8881    1.0000 </r>
       <r>    7.1814    1.0000 </r>
       <r>    7.2647    1.0000 </r>
       <r>    7.2693    1.0000 </r>
       <r>    7.6704    1.0000 </r>
       <r>    7.7808    1.0000 </r>
       <r>    7.9413    1.0000 </r>
       <r>    8.0800    1.0000 </r>
       <r>    8.1409    1.0000 </r>
       <r>    8.1475    1.0000 </r>
       <r>    9.0363    1.0000 </r>
       <r>   10.0804    1.0000 </r>
       <r>   10.2735    1.0000 </r>
       <r>   10.4864    1.0000 </r>
       <r>   10.5766    1.0000 </r>
       <r>   11.2081    0.0000 </r>
       <r>   11.2454    0.0000 </r>
       <r>   11.3722    0.0000 </r>
       <r>   11.3739    0.0000 </r>
       <r>   11.6624    0.0000 </r>
       <r>   11.6689    0.0000 </r>
       <r>   11.7785    0.0000 </r>
       <r>   12.3129    0.0000 </r>
       <r>   12.7453    0.0000 </r>
       <r>   12.8352    0.0000 </r>
       <r>   12.9510    0.0000 </r>
       <r>   13.3141    0.0000 </r>
      </set>
      <set comment="kpoint 3">
       <r>  -52.4127    1.0000 </r>
       <r>  -52.4031    1.0000 </r>
       <r>  -51.8287    1.0000 </r>
       <r>  -51.8071    1.0000 </r>
       <r>  -51.7916    1.0000 </r>
       <r>  -51.7699    1.0000 </r>
       <r>  -26.0623    1.0000 </r>
       <r>  -25.9619    1.0000 </r>
       <r>  -25.9551    1.0000 </r>
       <r>  -25.8959    1.0000 </r>
       <r>  -25.8671    1.0000 </r>
       <r>  -25.8393    1.0000 </r>
       <r>  -25.8322    1.0000 </r>
       <r>  -25.7440    1.0000 </r>
       <r>  -25.6849    1.0000 </r>
       <r>  -25.5818    1.0000 </r>
       <r>  -25.1646    1.0000 </r>
       <r>  -25.1390    1.0000 </r>
       <r>  -25.1384    1.0000 </r>
       <r>  -25.1032    1.0000 </r>
       <r>  -25.0138    1.0000 </r>
       <r>  -24.9752    1.0000 </r>
       <r>  -24.9173    1.0000 </r>
       <r>  -24.8730    1.0000 </r>
       <r>   -1.4840    1.0000 </r>
       <r>    0.3344    1.0000 </r>
       <r>    1.9985    1.0000 </r>
       <r>    3.6863    1.0000 </r>
       <r>    4.9308    1.0000 </r>
       <r>    5.1972    1.0000 </r>
       <r>    5.5630    1.0000 </r>
       <r>    6.3816    1.0000 </r>
       <r>    6.4948    1.0000 </r>
       <r>    6.5072    1.0000 </r>
       <r>    7.0667    1.0000 </r>
       <r>    7.4222    1.0000 </r>
       <r>    7.6452    1.0000 </r>
       <r>    7.6465    1.0000 </r>
       <r>    7.8152    1.0000 </r>
       <r>    8.0438    1.0000 </r>
       <r>    8.0550    1.0000 </r>
       <r>    8.0907    1.0000 </r>
       <r>    8.3159    1.0000 </r>
       <r>    9.2000    1.0000 </r>
       <r>    9.5832    1.0000 </r>
       <r>    9.8448    1.0000 </r>
       <r>   10.1894    1.0000 </r>
       <r>   10.5090    1.0000 </r>
       <r>   11.0533    0.0000 </r>
       <r>   11.3467    0.0000 </r>
       <r>   11.3914    0.0000 </r>
       <r>   11.4382    0.0000 </r>
       <r>   11.6899    0.0000 </r>
       <r>   11.9729    0.0000 </r>
       <r>   12.3201    0.0000 </r>
       <r>   12.3637    0.0000 </r>
       <r>   12.4835    0.0000 </r>
       <r>   12.7403    0.0000 </r>
       <r>   12.9843    0.0000 </r>
       <r>   13.4794    0.0000 </r>
      </set>
      <set comment="kpoint 4">
       <r>  -52.4084    1.0000 </r>
       <r>  -52.4050    1.0000 </r>
       <r>  -51.8231    1.0000 </r>
       <r>  -51.8154    1.0000 </r>
       <r>  -51.7846    1.0000 </r>
       <r>  -51.7768    1.0000 </r>
       <r>  -26.0165    1.0000 </r>
       <r>  -25.9809    1.0000 </r>
       <r>  -25.9072    1.0000 </r>
       <r>  -25.8609    1.0000 </r>
       <r>  -25.8429    1.0000 </r>
       <r>  -25.8273    1.0000 </r>
       <r>  -25.7737    1.0000 </r>
       <r>  -25.7481    1.0000 </r>
       <r>  -25.6614    1.0000 </r>
       <r>  -25.6218    1.0000 </r>
       <r>  -25.2024    1.0000 </r>
       <r>  -25.2020    1.0000 </r>
       <r>  -25.1607    1.0000 </r>
       <r>  -25.1378    1.0000 </r>
       <r>  -25.0128    1.0000 </r>
       <r>  -25.0015    1.0000 </r>
       <r>  -24.9132    1.0000 </r>
       <r>  -24.8981    1.0000 </r>
       <r>   -0.9133    1.0000 </r>
       <r>   -0.2433    1.0000 </r>
       <r>    2.3313    1.0000 </r>
       <r>    2.9578    1.0000 </r>
       <r>    5.2295    1.0000 </r>
       <r>    5.3289    1.0000 </r>
       <r>    5.6905    1.0000 </r>
       <r>    6.0485    1.0000 </r>
       <r>    6.7443    1.0000 </r>
       <r>    6.9655    1.0000 </r>
       <r>    6.9802    1.0000 </r>
       <r>    7.3622    1.0000 </r>
       <r>    7.7064    1.0000 </r>
       <r>    7.7881    1.0000 </r>
       <r>    7.9429    1.0000 </r>
       <r>    7.9902    1.0000 </r>
       <r>    8.1393    1.0000 </r>
       <r>    8.4260    1.0000 </r>
       <r>    8.5369    1.0000 </r>
       <r>    8.9653    1.0000 </r>
       <r>    9.5209    1.0000 </r>
       <r>    9.6126    1.0000 </r>
       <r>   10.0079    1.0000 </r>
       <r>   10.1071    1.0000 </r>
       <r>   10.9243    0.9997 </r>
       <r>   11.0656    0.0000 </r>
       <r>   11.4601    0.0000 </r>
       <r>   11.4774    0.0000 </r>
       <r>   11.8963    0.0000 </r>
       <r>   11.9299    0.0000 </r>
       <r>   12.0105    0.0000 </r>
       <r>   12.0866    0.0000 </r>
       <r>   12.2567    0.0000 </r>
       <r>   12.4759    0.0000 </r>
       <r>   13.3677    0.0000 </r>
       <r>   13.4212    0.0000 </r>
      </set>
      <set comment="kpoint 5">
       <r>  -52.4138    1.0000 </r>
       <r>  -52.4028    1.0000 </r>
       <r>  -51.8318    1.0000 </r>
       <r>  -51.7995    1.0000 </r>
       <r>  -51.7983    1.0000 </r>
       <r>  -51.7667    1.0000 </r>
       <r>  -26.0849    1.0000 </r>
       <r>  -25.9711    1.0000 </r>
       <r>  -25.9409    1.0000 </r>
       <r>  -25.9305    1.0000 </r>
       <r>  -25.8828    1.0000 </r>
       <r>  -25.8523    1.0000 </r>
       <r>  -25.8401    1.0000 </r>
       <r>  -25.7139    1.0000 </r>
       <r>  -25.7095    1.0000 </r>
       <r>  -25.5625    1.0000 </r>
       <r>  -25.1631    1.0000 </r>
       <r>  -25.1246    1.0000 </r>
       <r>  -25.1191    1.0000 </r>
       <r>  -25.0876    1.0000 </r>
       <r>  -25.0221    1.0000 </r>
       <r>  -24.9422    1.0000 </r>
       <r>  -24.9362    1.0000 </r>
       <r>  -24.8568    1.0000 </r>
       <r>   -1.6515    1.0000 </r>
       <r>    0.4182    1.0000 </r>
       <r>    2.2400    1.0000 </r>
       <r>    3.7188    1.0000 </r>
       <r>    4.5278    1.0000 </r>
       <r>    5.0363    1.0000 </r>
       <r>    5.6038    1.0000 </r>
       <r>    6.3480    1.0000 </r>
       <r>    6.3860    1.0000 </r>
       <r>    6.9222    1.0000 </r>
       <r>    7.1013    1.0000 </r>
       <r>    7.2078    1.0000 </r>
       <r>    7.5480    1.0000 </r>
       <r>    7.7294    1.0000 </r>
       <r>    7.8263    1.0000 </r>
       <r>    7.8922    1.0000 </r>
       <r>    8.1477    1.0000 </r>
       <r>    8.1796    1.0000 </r>
       <r>    8.2876    1.0000 </r>
       <r>    9.2053    1.0000 </r>
       <r>    9.9197    1.0000 </r>
       <r>    9.9219    1.0000 </r>
       <r>   10.3087    1.0000 </r>
       <r>   10.6129    1.0000 </r>
       <r>   11.0132    0.0022 </r>
       <r>   11.1950    0.0000 </r>
       <r>   11.3417    0.0000 </r>
       <r>   11.4029    0.0000 </r>
       <r>   11.7652    0.0000 </r>
       <r>   11.7794    0.0000 </r>
       <r>   12.1189    0.0000 </r>
       <r>   12.3239    0.0000 </r>
       <r>   12.8040    0.0000 </r>
       <r>   12.9414    0.0000 </r>
       <r>   12.9623    0.0000 </r>
       <r>   13.2513    0.0000 </r>
      </set>
      <set comment="kpoint 6">
       <r>  -52.4100    1.0000 </r>
       <r>  -52.4040    1.0000 </r>
       <r>  -51.8290    1.0000 </r>
       <r>  -51.8051    1.0000 </r>
       <r>  -51.7938    1.0000 </r>
       <r>  -51.7714    1.0000 </r>
       <r>  -26.0461    1.0000 </r>
       <r>  -25.9462    1.0000 </r>
       <r>  -25.9247    1.0000 </r>
       <r>  -25.8837    1.0000 </r>
       <r>  -25.8534    1.0000 </r>
       <r>  -25.8098    1.0000 </r>
       <r>  -25.7946    1.0000 </r>
       <r>  -25.7438    1.0000 </r>
       <r>  -25.7036    1.0000 </r>
       <r>  -25.5903    1.0000 </r>
       <r>  -25.1863    1.0000 </r>
       <r>  -25.1751    1.0000 </r>
       <r>  -25.1608    1.0000 </r>
       <r>  -25.1180    1.0000 </r>
       <r>  -25.0322    1.0000 </r>
       <r>  -24.9747    1.0000 </r>
       <r>  -24.9416    1.0000 </r>
       <r>  -24.8788    1.0000 </r>
       <r>   -1.2147    1.0000 </r>
       <r>    0.0763    1.0000 </r>
       <r>    2.4366    1.0000 </r>
       <r>    3.0327    1.0000 </r>
       <r>    4.6068    1.0000 </r>
       <r>    5.2973    1.0000 </r>
       <r>    5.7088    1.0000 </r>
       <r>    6.2801    1.0000 </r>
       <r>    6.7213    1.0000 </r>
       <r>    6.8727    1.0000 </r>
       <r>    7.1088    1.0000 </r>
       <r>    7.3597    1.0000 </r>
       <r>    7.6834    1.0000 </r>
       <r>    7.8003    1.0000 </r>
       <r>    7.9145    1.0000 </r>
       <r>    8.0520    1.0000 </r>
       <r>    8.1370    1.0000 </r>
       <r>    8.3845    1.0000 </r>
       <r>    8.4553    1.0000 </r>
       <r>    9.1410    1.0000 </r>
       <r>    9.4812    1.0000 </r>
       <r>    9.6496    1.0000 </r>
       <r>   10.1298    1.0000 </r>
       <r>   10.3892    1.0000 </r>
       <r>   10.9219    0.9998 </r>
       <r>   11.1210    0.0000 </r>
       <r>   11.3737    0.0000 </r>
       <r>   11.4166    0.0000 </r>
       <r>   11.7411    0.0000 </r>
       <r>   11.9242    0.0000 </r>
       <r>   12.0717    0.0000 </r>
       <r>   12.3053    0.0000 </r>
       <r>   12.5608    0.0000 </r>
       <r>   12.8890    0.0000 </r>
       <r>   13.2223    0.0000 </r>
       <r>   13.4541    0.0000 </r>
      </set>
      <set comment="kpoint 7">
       <r>  -52.4065    1.0000 </r>
       <r>  -52.4063    1.0000 </r>
       <r>  -51.8229    1.0000 </r>
       <r>  -51.8128    1.0000 </r>
       <r>  -51.7866    1.0000 </r>
       <r>  -51.7784    1.0000 </r>
       <r>  -25.9993    1.0000 </r>
       <r>  -25.9648    1.0000 </r>
       <r>  -25.8847    1.0000 </r>
       <r>  -25.8585    1.0000 </r>
       <r>  -25.8349    1.0000 </r>
       <r>  -25.8167    1.0000 </r>
       <r>  -25.7655    1.0000 </r>
       <r>  -25.7597    1.0000 </r>
       <r>  -25.6771    1.0000 </r>
       <r>  -25.6302    1.0000 </r>
       <r>  -25.2132    1.0000 </r>
       <r>  -25.2088    1.0000 </r>
       <r>  -25.1523    1.0000 </r>
       <r>  -25.1455    1.0000 </r>
       <r>  -25.0304    1.0000 </r>
       <r>  -24.9997    1.0000 </r>
       <r>  -24.9340    1.0000 </r>
       <r>  -24.9007    1.0000 </r>
       <r>   -0.6072    1.0000 </r>
       <r>   -0.4718    1.0000 </r>
       <r>    2.3726    1.0000 </r>
       <r>    2.9192    1.0000 </r>
       <r>    4.8480    1.0000 </r>
       <r>    5.3178    1.0000 </r>
       <r>    5.7843    1.0000 </r>
       <r>    6.0765    1.0000 </r>
       <r>    6.9089    1.0000 </r>
       <r>    6.9743    1.0000 </r>
       <r>    7.1495    1.0000 </r>
       <r>    7.2744    1.0000 </r>
       <r>    7.7327    1.0000 </r>
       <r>    7.8099    1.0000 </r>
       <r>    7.9960    1.0000 </r>
       <r>    8.0536    1.0000 </r>
       <r>    8.1509    1.0000 </r>
       <r>    8.3899    1.0000 </r>
       <r>    8.7280    1.0000 </r>
       <r>    8.8659    1.0000 </r>
       <r>    9.4280    1.0000 </r>
       <r>    9.6153    1.0000 </r>
       <r>    9.9760    1.0000 </r>
       <r>   10.1318    1.0000 </r>
       <r>   10.9038    1.0000 </r>
       <r>   11.0502    0.0000 </r>
       <r>   11.4174    0.0000 </r>
       <r>   11.4623    0.0000 </r>
       <r>   11.7304    0.0000 </r>
       <r>   11.8889    0.0000 </r>
       <r>   12.0324    0.0000 </r>
       <r>   12.1640    0.0000 </r>
       <r>   12.2993    0.0000 </r>
       <r>   12.4864    0.0000 </r>
       <r>   13.2746    0.0000 </r>
       <r>   13.3966    0.0000 </r>
      </set>
      <set comment="kpoint 8">
       <r>  -52.4101    1.0000 </r>
       <r>  -52.4037    1.0000 </r>
       <r>  -51.8200    1.0000 </r>
       <r>  -51.8144    1.0000 </r>
       <r>  -51.7863    1.0000 </r>
       <r>  -51.7787    1.0000 </r>
       <r>  -26.0003    1.0000 </r>
       <r>  -25.9650    1.0000 </r>
       <r>  -25.9057    1.0000 </r>
       <r>  -25.8652    1.0000 </r>
       <r>  -25.8441    1.0000 </r>
       <r>  -25.8361    1.0000 </r>
       <r>  -25.7953    1.0000 </r>
       <r>  -25.7587    1.0000 </r>
       <r>  -25.6701    1.0000 </r>
       <r>  -25.6377    1.0000 </r>
       <r>  -25.1867    1.0000 </r>
       <r>  -25.1780    1.0000 </r>
       <r>  -25.1607    1.0000 </r>
       <r>  -25.1100    1.0000 </r>
       <r>  -25.0167    1.0000 </r>
       <r>  -25.0105    1.0000 </r>
       <r>  -24.9148    1.0000 </r>
       <r>  -24.9132    1.0000 </r>
       <r>   -1.0561    1.0000 </r>
       <r>    0.0706    1.0000 </r>
       <r>    1.8239    1.0000 </r>
       <r>    3.6031    1.0000 </r>
       <r>    5.0979    1.0000 </r>
       <r>    5.2062    1.0000 </r>
       <r>    5.8140    1.0000 </r>
       <r>    6.0302    1.0000 </r>
       <r>    6.5416    1.0000 </r>
       <r>    6.8251    1.0000 </r>
       <r>    6.9391    1.0000 </r>
       <r>    7.3688    1.0000 </r>
       <r>    7.5527    1.0000 </r>
       <r>    7.7392    1.0000 </r>
       <r>    7.8887    1.0000 </r>
       <r>    8.0102    1.0000 </r>
       <r>    8.2375    1.0000 </r>
       <r>    8.4308    1.0000 </r>
       <r>    8.5486    1.0000 </r>
       <r>    8.9962    1.0000 </r>
       <r>    9.2859    1.0000 </r>
       <r>    9.7347    1.0000 </r>
       <r>    9.9499    1.0000 </r>
       <r>   10.5226    1.0000 </r>
       <r>   10.9448    0.9766 </r>
       <r>   11.1930    0.0000 </r>
       <r>   11.4031    0.0000 </r>
       <r>   11.5246    0.0000 </r>
       <r>   11.7506    0.0000 </r>
       <r>   11.8129    0.0000 </r>
       <r>   12.0162    0.0000 </r>
       <r>   12.2918    0.0000 </r>
       <r>   12.3771    0.0000 </r>
       <r>   12.6460    0.0000 </r>
       <r>   13.1890    0.0000 </r>
       <r>   13.5694    0.0000 </r>
      </set>
      <set comment="kpoint 9">
       <r>  -52.4139    1.0000 </r>
       <r>  -52.4026    1.0000 </r>
       <r>  -51.8257    1.0000 </r>
       <r>  -51.8055    1.0000 </r>
       <r>  -51.7936    1.0000 </r>
       <r>  -51.7717    1.0000 </r>
       <r>  -26.0460    1.0000 </r>
       <r>  -25.9683    1.0000 </r>
       <r>  -25.9399    1.0000 </r>
       <r>  -25.9049    1.0000 </r>
       <r>  -25.8908    1.0000 </r>
       <r>  -25.8482    1.0000 </r>
       <r>  -25.8404    1.0000 </r>
       <r>  -25.7421    1.0000 </r>
       <r>  -25.6937    1.0000 </r>
       <r>  -25.5938    1.0000 </r>
       <r>  -25.1684    1.0000 </r>
       <r>  -25.1316    1.0000 </r>
       <r>  -25.1070    1.0000 </r>
       <r>  -25.0773    1.0000 </r>
       <r>  -25.0088    1.0000 </r>
       <r>  -24.9817    1.0000 </r>
       <r>  -24.9200    1.0000 </r>
       <r>  -24.8838    1.0000 </r>
       <r>   -1.5340    1.0000 </r>
       <r>    0.5899    1.0000 </r>
       <r>    1.5799    1.0000 </r>
       <r>    4.3495    1.0000 </r>
       <r>    4.8867    1.0000 </r>
       <r>    5.3488    1.0000 </r>
       <r>    5.5094    1.0000 </r>
       <r>    6.0117    1.0000 </r>
       <r>    6.3437    1.0000 </r>
       <r>    6.5783    1.0000 </r>
       <r>    6.8083    1.0000 </r>
       <r>    7.3399    1.0000 </r>
       <r>    7.4261    1.0000 </r>
       <r>    7.5977    1.0000 </r>
       <r>    7.8380    1.0000 </r>
       <r>    7.9580    1.0000 </r>
       <r>    8.0325    1.0000 </r>
       <r>    8.1541    1.0000 </r>
       <r>    8.4382    1.0000 </r>
       <r>    9.0776    1.0000 </r>
       <r>    9.7697    1.0000 </r>
       <r>    9.9488    1.0000 </r>
       <r>   10.1729    1.0000 </r>
       <r>   10.7629    1.0000 </r>
       <r>   11.0562    0.0000 </r>
       <r>   11.2062    0.0000 </r>
       <r>   11.3913    0.0000 </r>
       <r>   11.4889    0.0000 </r>
       <r>   11.7343    0.0000 </r>
       <r>   11.8326    0.0000 </r>
       <r>   12.1969    0.0000 </r>
       <r>   12.4792    0.0000 </r>
       <r>   12.5873    0.0000 </r>
       <r>   12.7452    0.0000 </r>
       <r>   12.9109    0.0000 </r>
       <r>   13.2992    0.0000 </r>
      </set>
      <set comment="kpoint 10">
       <r>  -52.4163    1.0000 </r>
       <r>  -52.4023    1.0000 </r>
       <r>  -51.8296    1.0000 </r>
       <r>  -51.7994    1.0000 </r>
       <r>  -51.7982    1.0000 </r>
       <r>  -51.7669    1.0000 </r>
       <r>  -26.0843    1.0000 </r>
       <r>  -26.0037    1.0000 </r>
       <r>  -25.9428    1.0000 </r>
       <r>  -25.9412    1.0000 </r>
       <r>  -25.9104    1.0000 </r>
       <r>  -25.8847    1.0000 </r>
       <r>  -25.8653    1.0000 </r>
       <r>  -25.7083    1.0000 </r>
       <r>  -25.7067    1.0000 </r>
       <r>  -25.5636    1.0000 </r>
       <r>  -25.1604    1.0000 </r>
       <r>  -25.0919    1.0000 </r>
       <r>  -25.0819    1.0000 </r>
       <r>  -25.0655    1.0000 </r>
       <r>  -24.9990    1.0000 </r>
       <r>  -24.9397    1.0000 </r>
       <r>  -24.9193    1.0000 </r>
       <r>  -24.8580    1.0000 </r>
       <r>   -1.8176    1.0000 </r>
       <r>    0.6459    1.0000 </r>
       <r>    1.8514    1.0000 </r>
       <r>    4.6744    1.0000 </r>
       <r>    4.9461    1.0000 </r>
       <r>    5.0842    1.0000 </r>
       <r>    5.2046    1.0000 </r>
       <r>    5.6428    1.0000 </r>
       <r>    6.3474    1.0000 </r>
       <r>    6.7862    1.0000 </r>
       <r>    6.9675    1.0000 </r>
       <r>    7.2684    1.0000 </r>
       <r>    7.4421    1.0000 </r>
       <r>    7.6493    1.0000 </r>
       <r>    7.6699    1.0000 </r>
       <r>    7.7792    1.0000 </r>
       <r>    7.9045    1.0000 </r>
       <r>    8.2830    1.0000 </r>
       <r>    8.2845    1.0000 </r>
       <r>    8.9965    1.0000 </r>
       <r>   10.0435    1.0000 </r>
       <r>   10.2320    1.0000 </r>
       <r>   10.5215    1.0000 </r>
       <r>   10.5586    1.0000 </r>
       <r>   11.2775    0.0000 </r>
       <r>   11.2968    0.0000 </r>
       <r>   11.4112    0.0000 </r>
       <r>   11.4303    0.0000 </r>
       <r>   11.4782    0.0000 </r>
       <r>   11.7243    0.0000 </r>
       <r>   11.9334    0.0000 </r>
       <r>   12.4979    0.0000 </r>
       <r>   12.6745    0.0000 </r>
       <r>   12.7355    0.0000 </r>
       <r>   12.8187    0.0000 </r>
       <r>   13.1996    0.0000 </r>
      </set>
      <set comment="kpoint 11">
       <r>  -52.4068    1.0000 </r>
       <r>  -52.4057    1.0000 </r>
       <r>  -51.8257    1.0000 </r>
       <r>  -51.8025    1.0000 </r>
       <r>  -51.7966    1.0000 </r>
       <r>  -51.7763    1.0000 </r>
       <r>  -26.0054    1.0000 </r>
       <r>  -25.9221    1.0000 </r>
       <r>  -25.8892    1.0000 </r>
       <r>  -25.8544    1.0000 </r>
       <r>  -25.8321    1.0000 </r>
       <r>  -25.7908    1.0000 </r>
       <r>  -25.7730    1.0000 </r>
       <r>  -25.7680    1.0000 </r>
       <r>  -25.7238    1.0000 </r>
       <r>  -25.6199    1.0000 </r>
       <r>  -25.2109    1.0000 </r>
       <r>  -25.2000    1.0000 </r>
       <r>  -25.1476    1.0000 </r>
       <r>  -25.1422    1.0000 </r>
       <r>  -25.0483    1.0000 </r>
       <r>  -24.9970    1.0000 </r>
       <r>  -24.9558    1.0000 </r>
       <r>  -24.8990    1.0000 </r>
       <r>   -0.7564    1.0000 </r>
       <r>   -0.2414    1.0000 </r>
       <r>    2.4195    1.0000 </r>
       <r>    2.9611    1.0000 </r>
       <r>    4.3638    1.0000 </r>
       <r>    5.3546    1.0000 </r>
       <r>    5.8162    1.0000 </r>
       <r>    6.1078    1.0000 </r>
       <r>    6.9891    1.0000 </r>
       <r>    7.0775    1.0000 </r>
       <r>    7.2211    1.0000 </r>
       <r>    7.3187    1.0000 </r>
       <r>    7.5821    1.0000 </r>
       <r>    7.7117    1.0000 </r>
       <r>    8.0554    1.0000 </r>
       <r>    8.1615    1.0000 </r>
       <r>    8.2847    1.0000 </r>
       <r>    8.3407    1.0000 </r>
       <r>    8.7857    1.0000 </r>
       <r>    8.9299    1.0000 </r>
       <r>    9.4057    1.0000 </r>
       <r>    9.5975    1.0000 </r>
       <r>    9.9502    1.0000 </r>
       <r>   10.1127    1.0000 </r>
       <r>   10.8948    1.0000 </r>
       <r>   11.1907    0.0000 </r>
       <r>   11.3548    0.0000 </r>
       <r>   11.4618    0.0000 </r>
       <r>   11.6306    0.0000 </r>
       <r>   11.7383    0.0000 </r>
       <r>   12.1473    0.0000 </r>
       <r>   12.2398    0.0000 </r>
       <r>   12.6733    0.0000 </r>
       <r>   12.6954    0.0000 </r>
       <r>   13.0720    0.0000 </r>
       <r>   13.4303    0.0000 </r>
      </set>
      <set comment="kpoint 12">
       <r>  -52.4081    1.0000 </r>
       <r>  -52.4043    1.0000 </r>
       <r>  -51.8187    1.0000 </r>
       <r>  -51.8079    1.0000 </r>
       <r>  -51.7910    1.0000 </r>
       <r>  -51.7837    1.0000 </r>
       <r>  -25.9576    1.0000 </r>
       <r>  -25.9257    1.0000 </r>
       <r>  -25.8620    1.0000 </r>
       <r>  -25.8512    1.0000 </r>
       <r>  -25.8319    1.0000 </r>
       <r>  -25.8001    1.0000 </r>
       <r>  -25.7906    1.0000 </r>
       <r>  -25.7660    1.0000 </r>
       <r>  -25.7150    1.0000 </r>
       <r>  -25.6621    1.0000 </r>
       <r>  -25.2147    1.0000 </r>
       <r>  -25.1851    1.0000 </r>
       <r>  -25.1693    1.0000 </r>
       <r>  -25.1109    1.0000 </r>
       <r>  -25.0517    1.0000 </r>
       <r>  -25.0257    1.0000 </r>
       <r>  -24.9445    1.0000 </r>
       <r>  -24.9203    1.0000 </r>
       <r>   -0.6347    1.0000 </r>
       <r>   -0.1712    1.0000 </r>
       <r>    1.8566    1.0000 </r>
       <r>    3.5609    1.0000 </r>
       <r>    4.3766    1.0000 </r>
       <r>    5.2657    1.0000 </r>
       <r>    5.9015    1.0000 </r>
       <r>    6.0873    1.0000 </r>
       <r>    6.7439    1.0000 </r>
       <r>    7.0143    1.0000 </r>
       <r>    7.1340    1.0000 </r>
       <r>    7.3310    1.0000 </r>
       <r>    7.5129    1.0000 </r>
       <r>    7.8189    1.0000 </r>
       <r>    7.9758    1.0000 </r>
       <r>    8.1401    1.0000 </r>
       <r>    8.3345    1.0000 </r>
       <r>    8.5926    1.0000 </r>
       <r>    8.7374    1.0000 </r>
       <r>    8.8644    1.0000 </r>
       <r>    9.3894    1.0000 </r>
       <r>    9.6209    1.0000 </r>
       <r>    9.7958    1.0000 </r>
       <r>   10.1652    1.0000 </r>
       <r>   10.8305    1.0000 </r>
       <r>   11.1589    0.0000 </r>
       <r>   11.3726    0.0000 </r>
       <r>   11.5383    0.0000 </r>
       <r>   11.5921    0.0000 </r>
       <r>   11.7747    0.0000 </r>
       <r>   11.9207    0.0000 </r>
       <r>   12.1658    0.0000 </r>
       <r>   12.5696    0.0000 </r>
       <r>   12.8574    0.0000 </r>
       <r>   12.9971    0.0000 </r>
       <r>   13.7059    0.0000 </r>
      </set>
      <set comment="kpoint 13">
       <r>  -52.4109    1.0000 </r>
       <r>  -52.4029    1.0000 </r>
       <r>  -51.8148    1.0000 </r>
       <r>  -51.8095    1.0000 </r>
       <r>  -51.7921    1.0000 </r>
       <r>  -51.7833    1.0000 </r>
       <r>  -25.9548    1.0000 </r>
       <r>  -25.9304    1.0000 </r>
       <r>  -25.8978    1.0000 </r>
       <r>  -25.8838    1.0000 </r>
       <r>  -25.8545    1.0000 </r>
       <r>  -25.8166    1.0000 </r>
       <r>  -25.7879    1.0000 </r>
       <r>  -25.7597    1.0000 </r>
       <r>  -25.7038    1.0000 </r>
       <r>  -25.6704    1.0000 </r>
       <r>  -25.1964    1.0000 </r>
       <r>  -25.1874    1.0000 </r>
       <r>  -25.1247    1.0000 </r>
       <r>  -25.0777    1.0000 </r>
       <r>  -25.0393    1.0000 </r>
       <r>  -25.0337    1.0000 </r>
       <r>  -24.9335    1.0000 </r>
       <r>  -24.9225    1.0000 </r>
       <r>   -1.0437    1.0000 </r>
       <r>    0.4505    1.0000 </r>
       <r>    1.3654    1.0000 </r>
       <r>    4.1891    1.0000 </r>
       <r>    4.6177    1.0000 </r>
       <r>    5.1238    1.0000 </r>
       <r>    5.9197    1.0000 </r>
       <r>    6.1313    1.0000 </r>
       <r>    6.4548    1.0000 </r>
       <r>    6.6305    1.0000 </r>
       <r>    6.7531    1.0000 </r>
       <r>    7.3575    1.0000 </r>
       <r>    7.4695    1.0000 </r>
       <r>    7.6987    1.0000 </r>
       <r>    7.9432    1.0000 </r>
       <r>    8.0021    1.0000 </r>
       <r>    8.4341    1.0000 </r>
       <r>    8.5868    1.0000 </r>
       <r>    8.8045    1.0000 </r>
       <r>    8.9318    1.0000 </r>
       <r>    9.3143    1.0000 </r>
       <r>    9.6113    1.0000 </r>
       <r>    9.9092    1.0000 </r>
       <r>   10.7686    1.0000 </r>
       <r>   10.8388    1.0000 </r>
       <r>   11.0914    0.0000 </r>
       <r>   11.3559    0.0000 </r>
       <r>   11.5425    0.0000 </r>
       <r>   11.6115    0.0000 </r>
       <r>   11.6546    0.0000 </r>
       <r>   11.8892    0.0000 </r>
       <r>   12.1954    0.0000 </r>
       <r>   12.4168    0.0000 </r>
       <r>   12.6728    0.0000 </r>
       <r>   12.8431    0.0000 </r>
       <r>   13.3780    0.0000 </r>
      </set>
      <set comment="kpoint 14">
       <r>  -52.4131    1.0000 </r>
       <r>  -52.4024    1.0000 </r>
       <r>  -51.8208    1.0000 </r>
       <r>  -51.8019    1.0000 </r>
       <r>  -51.7984    1.0000 </r>
       <r>  -51.7765    1.0000 </r>
       <r>  -26.0025    1.0000 </r>
       <r>  -25.9546    1.0000 </r>
       <r>  -25.9116    1.0000 </r>
       <r>  -25.8965    1.0000 </r>
       <r>  -25.8964    1.0000 </r>
       <r>  -25.8333    1.0000 </r>
       <r>  -25.8221    1.0000 </r>
       <r>  -25.7281    1.0000 </r>
       <r>  -25.7259    1.0000 </r>
       <r>  -25.6253    1.0000 </r>
       <r>  -25.1789    1.0000 </r>
       <r>  -25.1566    1.0000 </r>
       <r>  -25.0982    1.0000 </r>
       <r>  -25.0656    1.0000 </r>
       <r>  -25.0231    1.0000 </r>
       <r>  -25.0047    1.0000 </r>
       <r>  -24.9341    1.0000 </r>
       <r>  -24.9006    1.0000 </r>
       <r>   -1.3715    1.0000 </r>
       <r>    0.8492    1.0000 </r>
       <r>    1.1447    1.0000 </r>
       <r>    4.6597    1.0000 </r>
       <r>    4.9578    1.0000 </r>
       <r>    5.0193    1.0000 </r>
       <r>    5.4953    1.0000 </r>
       <r>    6.1575    1.0000 </r>
       <r>    6.4074    1.0000 </r>
       <r>    6.4242    1.0000 </r>
       <r>    6.7979    1.0000 </r>
       <r>    6.9990    1.0000 </r>
       <r>    7.4892    1.0000 </r>
       <r>    7.5535    1.0000 </r>
       <r>    7.9194    1.0000 </r>
       <r>    7.9315    1.0000 </r>
       <r>    8.3736    1.0000 </r>
       <r>    8.3746    1.0000 </r>
       <r>    8.5795    1.0000 </r>
       <r>    9.1659    1.0000 </r>
       <r>    9.5636    1.0000 </r>
       <r>    9.6418    1.0000 </r>
       <r>    9.9942    1.0000 </r>
       <r>   10.8274    1.0000 </r>
       <r>   11.2332    0.0000 </r>
       <r>   11.2995    0.0000 </r>
       <r>   11.5114    0.0000 </r>
       <r>   11.5227    0.0000 </r>
       <r>   11.5403    0.0000 </r>
       <r>   11.6811    0.0000 </r>
       <r>   11.7795    0.0000 </r>
       <r>   12.3738    0.0000 </r>
       <r>   12.5418    0.0000 </r>
       <r>   12.8169    0.0000 </r>
       <r>   12.9061    0.0000 </r>
       <r>   13.4067    0.0000 </r>
      </set>
      <set comment="kpoint 15">
       <r>  -52.4096    1.0000 </r>
       <r>  -52.4030    1.0000 </r>
       <r>  -51.8111    1.0000 </r>
       <r>  -51.8050    1.0000 </r>
       <r>  -51.7934    1.0000 </r>
       <r>  -51.7916    1.0000 </r>
       <r>  -25.9153    1.0000 </r>
       <r>  -25.8980    1.0000 </r>
       <r>  -25.8814    1.0000 </r>
       <r>  -25.8553    1.0000 </r>
       <r>  -25.8310    1.0000 </r>
       <r>  -25.8039    1.0000 </r>
       <r>  -25.7711    1.0000 </r>
       <r>  -25.7533    1.0000 </r>
       <r>  -25.7487    1.0000 </r>
       <r>  -25.7002    1.0000 </r>
       <r>  -25.2263    1.0000 </r>
       <r>  -25.1960    1.0000 </r>
       <r>  -25.1328    1.0000 </r>
       <r>  -25.0777    1.0000 </r>
       <r>  -25.0656    1.0000 </r>
       <r>  -25.0562    1.0000 </r>
       <r>  -24.9400    1.0000 </r>
       <r>  -24.9346    1.0000 </r>
       <r>   -0.7781    1.0000 </r>
       <r>    0.3272    1.0000 </r>
       <r>    1.3888    1.0000 </r>
       <r>    4.1194    1.0000 </r>
       <r>    4.1276    1.0000 </r>
       <r>    5.2142    1.0000 </r>
       <r>    6.0654    1.0000 </r>
       <r>    6.1023    1.0000 </r>
       <r>    6.5600    1.0000 </r>
       <r>    6.8103    1.0000 </r>
       <r>    6.9738    1.0000 </r>
       <r>    7.0443    1.0000 </r>
       <r>    7.6993    1.0000 </r>
       <r>    7.7547    1.0000 </r>
       <r>    7.8281    1.0000 </r>
       <r>    8.2977    1.0000 </r>
       <r>    8.4556    1.0000 </r>
       <r>    8.6115    1.0000 </r>
       <r>    8.7232    1.0000 </r>
       <r>    9.0498    1.0000 </r>
       <r>    9.6851    1.0000 </r>
       <r>    9.7499    1.0000 </r>
       <r>    9.8610    1.0000 </r>
       <r>   10.0300    1.0000 </r>
       <r>   10.7332    1.0000 </r>
       <r>   10.9753    0.4347 </r>
       <r>   11.2031    0.0000 </r>
       <r>   11.2945    0.0000 </r>
       <r>   11.5800    0.0000 </r>
       <r>   11.6424    0.0000 </r>
       <r>   11.8633    0.0000 </r>
       <r>   11.9906    0.0000 </r>
       <r>   12.4322    0.0000 </r>
       <r>   12.6864    0.0000 </r>
       <r>   12.9595    0.0000 </r>
       <r>   13.5185    0.0000 </r>
      </set>
      <set comment="kpoint 16">
       <r>  -52.4106    1.0000 </r>
       <r>  -52.4025    1.0000 </r>
       <r>  -51.8088    1.0000 </r>
       <r>  -51.8039    1.0000 </r>
       <r>  -51.7985    1.0000 </r>
       <r>  -51.7892    1.0000 </r>
       <r>  -25.9124    1.0000 </r>
       <r>  -25.9030    1.0000 </r>
       <r>  -25.9012    1.0000 </r>
       <r>  -25.8620    1.0000 </r>
       <r>  -25.8555    1.0000 </r>
       <r>  -25.8052    1.0000 </r>
       <r>  -25.7614    1.0000 </r>
       <r>  -25.7476    1.0000 </r>
       <r>  -25.7462    1.0000 </r>
       <r>  -25.7044    1.0000 </r>
       <r>  -25.2191    1.0000 </r>
       <r>  -25.2010    1.0000 </r>
       <r>  -25.1063    1.0000 </r>
       <r>  -25.0659    1.0000 </r>
       <r>  -25.0618    1.0000 </r>
       <r>  -25.0597    1.0000 </r>
       <r>  -24.9461    1.0000 </r>
       <r>  -24.9245    1.0000 </r>
       <r>   -0.9273    1.0000 </r>
       <r>    0.7362    1.0000 </r>
       <r>    1.0340    1.0000 </r>
       <r>    4.2057    1.0000 </r>
       <r>    4.4067    1.0000 </r>
       <r>    5.1772    1.0000 </r>
       <r>    6.1601    1.0000 </r>
       <r>    6.1791    1.0000 </r>
       <r>    6.2530    1.0000 </r>
       <r>    6.6377    1.0000 </r>
       <r>    6.7287    1.0000 </r>
       <r>    7.1016    1.0000 </r>
       <r>    7.7183    1.0000 </r>
       <r>    7.7372    1.0000 </r>
       <r>    7.8239    1.0000 </r>
       <r>    8.1795    1.0000 </r>
       <r>    8.5302    1.0000 </r>
       <r>    8.6017    1.0000 </r>
       <r>    8.7307    1.0000 </r>
       <r>    9.1721    1.0000 </r>
       <r>    9.4345    1.0000 </r>
       <r>    9.6895    1.0000 </r>
       <r>   10.0450    1.0000 </r>
       <r>   10.6403    1.0000 </r>
       <r>   10.6581    1.0000 </r>
       <r>   10.8184    1.0000 </r>
       <r>   11.0968    0.0000 </r>
       <r>   11.3307    0.0000 </r>
       <r>   11.4161    0.0000 </r>
       <r>   11.7056    0.0000 </r>
       <r>   11.9246    0.0000 </r>
       <r>   11.9857    0.0000 </r>
       <r>   12.2184    0.0000 </r>
       <r>   12.6179    0.0000 </r>
       <r>   12.9111    0.0000 </r>
       <r>   13.3403    0.0000 </r>
      </set>
      <set comment="kpoint 17">
       <r>  -52.4166    1.0000 </r>
       <r>  -52.4023    1.0000 </r>
       <r>  -51.8303    1.0000 </r>
       <r>  -51.7990    1.0000 </r>
       <r>  -51.7983    1.0000 </r>
       <r>  -51.7661    1.0000 </r>
       <r>  -26.0912    1.0000 </r>
       <r>  -26.0082    1.0000 </r>
       <r>  -25.9469    1.0000 </r>
       <r>  -25.9457    1.0000 </r>
       <r>  -25.9101    1.0000 </r>
       <r>  -25.8905    1.0000 </r>
       <r>  -25.8684    1.0000 </r>
       <r>  -25.7063    1.0000 </r>
       <r>  -25.7047    1.0000 </r>
       <r>  -25.5587    1.0000 </r>
       <r>  -25.1591    1.0000 </r>
       <r>  -25.0862    1.0000 </r>
       <r>  -25.0798    1.0000 </r>
       <r>  -25.0655    1.0000 </r>
       <r>  -24.9975    1.0000 </r>
       <r>  -24.9338    1.0000 </r>
       <r>  -24.9176    1.0000 </r>
       <r>  -24.8533    1.0000 </r>
       <r>   -1.8572    1.0000 </r>
       <r>    0.6271    1.0000 </r>
       <r>    1.9447    1.0000 </r>
       <r>    4.6485    1.0000 </r>
       <r>    4.8987    1.0000 </r>
       <r>    5.1024    1.0000 </r>
       <r>    5.1380    1.0000 </r>
       <r>    5.6168    1.0000 </r>
       <r>    6.3475    1.0000 </r>
       <r>    6.8360    1.0000 </r>
       <r>    7.0400    1.0000 </r>
[...]
       <r>    3.6654    1.0000 </r>
       <r>    3.9932    1.0000 </r>
       <r>    4.1098    1.0000 </r>
       <r>    6.3995    1.0000 </r>
       <r>    6.4092    1.0000 </r>
       <r>    6.8299    1.0000 </r>
       <r>    7.0018    1.0000 </r>
       <r>    7.5170    1.0000 </r>
       <r>    7.6242    1.0000 </r>
       <r>    7.9692    1.0000 </r>
       <r>    8.6594    1.0000 </r>
       <r>    8.7420    1.0000 </r>
       <r>    8.8028    1.0000 </r>
       <r>    8.9929    1.0000 </r>
       <r>    9.1570    1.0000 </r>
       <r>    9.2339    1.0000 </r>
       <r>    9.3663    1.0000 </r>
       <r>    9.4498    1.0000 </r>
       <r>   10.0277    1.0000 </r>
       <r>   10.0472    1.0000 </r>
       <r>   10.1814    1.0000 </r>
       <r>   10.5304    1.0000 </r>
       <r>   10.5547    1.0000 </r>
       <r>   10.8064    1.0000 </r>
       <r>   11.0258    0.0001 </r>
       <r>   11.0405    0.0000 </r>
       <r>   11.1823    0.0000 </r>
       <r>   11.6342    0.0000 </r>
       <r>   11.8509    0.0000 </r>
       <r>   12.4918    0.0000 </r>
       <r>   12.7655    0.0000 </r>
       <r>   13.0705    0.0000 </r>
       <r>   13.2841    0.0000 </r>
      </set>
      <set comment="kpoint 116">
       <r>  -52.4040    1.0000 </r>
       <r>  -52.4029    1.0000 </r>
       <r>  -51.8451    1.0000 </r>
       <r>  -51.7998    1.0000 </r>
       <r>  -51.7991    1.0000 </r>
       <r>  -51.7632    1.0000 </r>
       <r>  -26.1109    1.0000 </r>
       <r>  -25.8484    1.0000 </r>
       <r>  -25.8422    1.0000 </r>
       <r>  -25.7640    1.0000 </r>
       <r>  -25.7544    1.0000 </r>
       <r>  -25.7540    1.0000 </r>
       <r>  -25.7413    1.0000 </r>
       <r>  -25.7340    1.0000 </r>
       <r>  -25.7179    1.0000 </r>
       <r>  -25.5378    1.0000 </r>
       <r>  -25.2911    1.0000 </r>
       <r>  -25.2747    1.0000 </r>
       <r>  -25.2018    1.0000 </r>
       <r>  -25.1960    1.0000 </r>
       <r>  -25.1764    1.0000 </r>
       <r>  -25.0101    1.0000 </r>
       <r>  -25.0031    1.0000 </r>
       <r>  -24.8421    1.0000 </r>
       <r>   -0.5753    1.0000 </r>
       <r>    0.0686    1.0000 </r>
       <r>    1.1368    1.0000 </r>
       <r>    3.7758    1.0000 </r>
       <r>    3.9647    1.0000 </r>
       <r>    4.0530    1.0000 </r>
       <r>    6.3855    1.0000 </r>
       <r>    6.3899    1.0000 </r>
       <r>    6.8491    1.0000 </r>
       <r>    7.1167    1.0000 </r>
       <r>    7.5141    1.0000 </r>
       <r>    7.5998    1.0000 </r>
       <r>    7.9738    1.0000 </r>
       <r>    8.7688    1.0000 </r>
       <r>    8.8430    1.0000 </r>
       <r>    8.9722    1.0000 </r>
       <r>    8.9908    1.0000 </r>
       <r>    9.0610    1.0000 </r>
       <r>    9.4106    1.0000 </r>
       <r>    9.6405    1.0000 </r>
       <r>    9.7504    1.0000 </r>
       <r>    9.8350    1.0000 </r>
       <r>    9.9078    1.0000 </r>
       <r>   10.1129    1.0000 </r>
       <r>   10.2566    1.0000 </r>
       <r>   10.6029    1.0000 </r>
       <r>   10.7985    1.0000 </r>
       <r>   10.8578    1.0000 </r>
       <r>   10.9831    0.2360 </r>
       <r>   11.0806    0.0000 </r>
       <r>   11.5543    0.0000 </r>
       <r>   11.8483    0.0000 </r>
       <r>   12.2861    0.0000 </r>
       <r>   12.4897    0.0000 </r>
       <r>   12.7981    0.0000 </r>
       <r>   13.3756    0.0000 </r>
      </set>
     </set>
    </set>
   </array>
  </eigenvalues>
  <separator name="orbital magnetization" >
   <v name="MAGDIPOLOUT">      0.00000000      0.00000000      0.00000000</v>
  </separator>
  <dos>
   <i name="efermi">     10.97294944 </i>
   <total>
    <array>
     <dimension dim="1">gridpoints</dimension>
     <dimension dim="2">spin</dimension>
     <field>energy</field>
     <field>total</field>
     <field>integrated</field>
     <set>
      <set comment="spin 1">
       <r>   -55.7246     0.0000     0.0000 </r>
       <r>   -55.4821     0.0000     0.0000 </r>
       <r>   -55.2396     0.0000     0.0000 </r>
       <r>   -54.9971     0.0000     0.0000 </r>
       <r>   -54.7546     0.0000     0.0000 </r>
       <r>   -54.5121     0.0000     0.0000 </r>
       <r>   -54.2695     0.0000     0.0000 </r>
       <r>   -54.0270     0.0000     0.0000 </r>
       <r>   -53.7845     0.0000     0.0000 </r>
       <r>   -53.5420     0.0000     0.0000 </r>
       <r>   -53.2995     0.0000     0.0000 </r>
       <r>   -53.0570     0.0000     0.0000 </r>
       <r>   -52.8145     0.0000     0.0000 </r>
       <r>   -52.5720     0.0000     0.0000 </r>
       <r>   -52.3295    16.4942     4.0000 </r>
       <r>   -52.0870     0.0000     4.0000 </r>
       <r>   -51.8444     1.1007     4.2669 </r>
       <r>   -51.6019     0.0000    12.0000 </r>
       <r>   -51.3594     0.0000    12.0000 </r>
       <r>   -51.1169     0.0000    12.0000 </r>
       <r>   -50.8744     0.0000    12.0000 </r>
       <r>   -50.6319     0.0000    12.0000 </r>
       <r>   -50.3894     0.0000    12.0000 </r>
       <r>   -50.1469     0.0000    12.0000 </r>
       <r>   -49.9044     0.0000    12.0000 </r>
       <r>   -49.6619     0.0000    12.0000 </r>
       <r>   -49.4193     0.0000    12.0000 </r>
       <r>   -49.1768     0.0000    12.0000 </r>
       <r>   -48.9343     0.0000    12.0000 </r>
       <r>   -48.6918     0.0000    12.0000 </r>
       <r>   -48.4493     0.0000    12.0000 </r>
       <r>   -48.2068     0.0000    12.0000 </r>
       <r>   -47.9643     0.0000    12.0000 </r>
       <r>   -47.7218     0.0000    12.0000 </r>
       <r>   -47.4793     0.0000    12.0000 </r>
       <r>   -47.2368     0.0000    12.0000 </r>
       <r>   -46.9943     0.0000    12.0000 </r>
       <r>   -46.7517     0.0000    12.0000 </r>
       <r>   -46.5092     0.0000    12.0000 </r>
       <r>   -46.2667     0.0000    12.0000 </r>
       <r>   -46.0242     0.0000    12.0000 </r>
       <r>   -45.7817     0.0000    12.0000 </r>
       <r>   -45.5392     0.0000    12.0000 </r>
       <r>   -45.2967     0.0000    12.0000 </r>
       <r>   -45.0542     0.0000    12.0000 </r>
       <r>   -44.8117     0.0000    12.0000 </r>
       <r>   -44.5692     0.0000    12.0000 </r>
       <r>   -44.3266     0.0000    12.0000 </r>
       <r>   -44.0841     0.0000    12.0000 </r>
       <r>   -43.8416     0.0000    12.0000 </r>
       <r>   -43.5991     0.0000    12.0000 </r>
       <r>   -43.3566     0.0000    12.0000 </r>
       <r>   -43.1141     0.0000    12.0000 </r>
       <r>   -42.8716     0.0000    12.0000 </r>
       <r>   -42.6291     0.0000    12.0000 </r>
       <r>   -42.3866     0.0000    12.0000 </r>
       <r>   -42.1441     0.0000    12.0000 </r>
       <r>   -41.9015     0.0000    12.0000 </r>
       <r>   -41.6590     0.0000    12.0000 </r>
       <r>   -41.4165     0.0000    12.0000 </r>
       <r>   -41.1740     0.0000    12.0000 </r>
       <r>   -40.9315     0.0000    12.0000 </r>
       <r>   -40.6890     0.0000    12.0000 </r>
       <r>   -40.4465     0.0000    12.0000 </r>
       <r>   -40.2040     0.0000    12.0000 </r>
       <r>   -39.9615     0.0000    12.0000 </r>
       <r>   -39.7190     0.0000    12.0000 </r>
       <r>   -39.4765     0.0000    12.0000 </r>
       <r>   -39.2339     0.0000    12.0000 </r>
       <r>   -38.9914     0.0000    12.0000 </r>
       <r>   -38.7489     0.0000    12.0000 </r>
       <r>   -38.5064     0.0000    12.0000 </r>
       <r>   -38.2639     0.0000    12.0000 </r>
       <r>   -38.0214     0.0000    12.0000 </r>
       <r>   -37.7789     0.0000    12.0000 </r>
       <r>   -37.5364     0.0000    12.0000 </r>
       <r>   -37.2939     0.0000    12.0000 </r>
       <r>   -37.0514     0.0000    12.0000 </r>
       <r>   -36.8088     0.0000    12.0000 </r>
       <r>   -36.5663     0.0000    12.0000 </r>
       <r>   -36.3238     0.0000    12.0000 </r>
       <r>   -36.0813     0.0000    12.0000 </r>
       <r>   -35.8388     0.0000    12.0000 </r>
       <r>   -35.5963     0.0000    12.0000 </r>
       <r>   -35.3538     0.0000    12.0000 </r>
       <r>   -35.1113     0.0000    12.0000 </r>
       <r>   -34.8688     0.0000    12.0000 </r>
       <r>   -34.6263     0.0000    12.0000 </r>
       <r>   -34.3837     0.0000    12.0000 </r>
       <r>   -34.1412     0.0000    12.0000 </r>
       <r>   -33.8987     0.0000    12.0000 </r>
       <r>   -33.6562     0.0000    12.0000 </r>
       <r>   -33.4137     0.0000    12.0000 </r>
       <r>   -33.1712     0.0000    12.0000 </r>
       <r>   -32.9287     0.0000    12.0000 </r>
       <r>   -32.6862     0.0000    12.0000 </r>
       <r>   -32.4437     0.0000    12.0000 </r>
       <r>   -32.2012     0.0000    12.0000 </r>
       <r>   -31.9586     0.0000    12.0000 </r>
       <r>   -31.7161     0.0000    12.0000 </r>
       <r>   -31.4736     0.0000    12.0000 </r>
       <r>   -31.2311     0.0000    12.0000 </r>
       <r>   -30.9886     0.0000    12.0000 </r>
       <r>   -30.7461     0.0000    12.0000 </r>
       <r>   -30.5036     0.0000    12.0000 </r>
       <r>   -30.2611     0.0000    12.0000 </r>
       <r>   -30.0186     0.0000    12.0000 </r>
       <r>   -29.7761     0.0000    12.0000 </r>
       <r>   -29.5336     0.0000    12.0000 </r>
       <r>   -29.2910     0.0000    12.0000 </r>
       <r>   -29.0485     0.0000    12.0000 </r>
       <r>   -28.8060     0.0000    12.0000 </r>
       <r>   -28.5635     0.0000    12.0000 </r>
       <r>   -28.3210     0.0000    12.0000 </r>
       <r>   -28.0785     0.0000    12.0000 </r>
       <r>   -27.8360     0.0000    12.0000 </r>
       <r>   -27.5935     0.0000    12.0000 </r>
       <r>   -27.3510     0.0000    12.0000 </r>
       <r>   -27.1085     0.0000    12.0000 </r>
       <r>   -26.8659     0.0000    12.0000 </r>
       <r>   -26.6234     0.0000    12.0000 </r>
       <r>   -26.3809     0.0000    12.0000 </r>
       <r>   -26.1384     0.0130    12.0031 </r>
       <r>   -25.8959    19.1446    17.1479 </r>
       <r>   -25.6534    30.7184    30.3883 </r>
       <r>   -25.4109     1.7041    32.0000 </r>
       <r>   -25.1684    16.0620    35.8952 </r>
       <r>   -24.9259    23.6584    45.7680 </r>
       <r>   -24.6834     0.3997    48.0000 </r>
       <r>   -24.4408     0.0000    48.0000 </r>
       <r>   -24.1983     0.0000    48.0000 </r>
       <r>   -23.9558     0.0000    48.0000 </r>
       <r>   -23.7133     0.0000    48.0000 </r>
       <r>   -23.4708     0.0000    48.0000 </r>
       <r>   -23.2283     0.0000    48.0000 </r>
       <r>   -22.9858     0.0000    48.0000 </r>
       <r>   -22.7433     0.0000    48.0000 </r>
       <r>   -22.5008     0.0000    48.0000 </r>
       <r>   -22.2583     0.0000    48.0000 </r>
       <r>   -22.0158     0.0000    48.0000 </r>
       <r>   -21.7732     0.0000    48.0000 </r>
       <r>   -21.5307     0.0000    48.0000 </r>
       <r>   -21.2882     0.0000    48.0000 </r>
       <r>   -21.0457     0.0000    48.0000 </r>
       <r>   -20.8032     0.0000    48.0000 </r>
       <r>   -20.5607     0.0000    48.0000 </r>
       <r>   -20.3182     0.0000    48.0000 </r>
       <r>   -20.0757     0.0000    48.0000 </r>
       <r>   -19.8332     0.0000    48.0000 </r>
       <r>   -19.5907     0.0000    48.0000 </r>
       <r>   -19.3481     0.0000    48.0000 </r>
       <r>   -19.1056     0.0000    48.0000 </r>
       <r>   -18.8631     0.0000    48.0000 </r>
       <r>   -18.6206     0.0000    48.0000 </r>
       <r>   -18.3781     0.0000    48.0000 </r>
       <r>   -18.1356     0.0000    48.0000 </r>
       <r>   -17.8931     0.0000    48.0000 </r>
       <r>   -17.6506     0.0000    48.0000 </r>
       <r>   -17.4081     0.0000    48.0000 </r>
       <r>   -17.1656     0.0000    48.0000 </r>
       <r>   -16.9230     0.0000    48.0000 </r>
       <r>   -16.6805     0.0000    48.0000 </r>
       <r>   -16.4380     0.0000    48.0000 </r>
       <r>   -16.1955     0.0000    48.0000 </r>
       <r>   -15.9530     0.0000    48.0000 </r>
       <r>   -15.7105     0.0000    48.0000 </r>
       <r>   -15.4680     0.0000    48.0000 </r>
       <r>   -15.2255     0.0000    48.0000 </r>
       <r>   -14.9830     0.0000    48.0000 </r>
       <r>   -14.7405     0.0000    48.0000 </r>
       <r>   -14.4979     0.0000    48.0000 </r>
       <r>   -14.2554     0.0000    48.0000 </r>
       <r>   -14.0129     0.0000    48.0000 </r>
       <r>   -13.7704     0.0000    48.0000 </r>
       <r>   -13.5279     0.0000    48.0000 </r>
       <r>   -13.2854     0.0000    48.0000 </r>
       <r>   -13.0429     0.0000    48.0000 </r>
       <r>   -12.8004     0.0000    48.0000 </r>
       <r>   -12.5579     0.0000    48.0000 </r>
       <r>   -12.3154     0.0000    48.0000 </r>
       <r>   -12.0729     0.0000    48.0000 </r>
       <r>   -11.8303     0.0000    48.0000 </r>
       <r>   -11.5878     0.0000    48.0000 </r>
       <r>   -11.3453     0.0000    48.0000 </r>
       <r>   -11.1028     0.0000    48.0000 </r>
       <r>   -10.8603     0.0000    48.0000 </r>
       <r>   -10.6178     0.0000    48.0000 </r>
       <r>   -10.3753     0.0000    48.0000 </r>
       <r>   -10.1328     0.0000    48.0000 </r>
       <r>    -9.8903     0.0000    48.0000 </r>
       <r>    -9.6478     0.0000    48.0000 </r>
       <r>    -9.4052     0.0000    48.0000 </r>
       <r>    -9.1627     0.0000    48.0000 </r>
       <r>    -8.9202     0.0000    48.0000 </r>
       <r>    -8.6777     0.0000    48.0000 </r>
       <r>    -8.4352     0.0000    48.0000 </r>
       <r>    -8.1927     0.0000    48.0000 </r>
       <r>    -7.9502     0.0000    48.0000 </r>
       <r>    -7.7077     0.0000    48.0000 </r>
       <r>    -7.4652     0.0000    48.0000 </r>
       <r>    -7.2227     0.0000    48.0000 </r>
       <r>    -6.9801     0.0000    48.0000 </r>
       <r>    -6.7376     0.0000    48.0000 </r>
       <r>    -6.4951     0.0000    48.0000 </r>
       <r>    -6.2526     0.0000    48.0000 </r>
       <r>    -6.0101     0.0000    48.0000 </r>
       <r>    -5.7676     0.0000    48.0000 </r>
       <r>    -5.5251     0.0000    48.0000 </r>
       <r>    -5.2826     0.0000    48.0000 </r>
       <r>    -5.0401     0.0000    48.0000 </r>
       <r>    -4.7976     0.0000    48.0000 </r>
       <r>    -4.5551     0.0000    48.0000 </r>
       <r>    -4.3125     0.0000    48.0000 </r>
       <r>    -4.0700     0.0000    48.0000 </r>
       <r>    -3.8275     0.0000    48.0000 </r>
       <r>    -3.5850     0.0000    48.0000 </r>
       <r>    -3.3425     0.0000    48.0000 </r>
       <r>    -3.1000     0.0000    48.0000 </r>
       <r>    -2.8575     0.0000    48.0000 </r>
       <r>    -2.6150     0.0000    48.0000 </r>
       <r>    -2.3725     0.0000    48.0000 </r>
       <r>    -2.1300     0.0000    48.0000 </r>
       <r>    -1.8874     0.0481    48.0117 </r>
       <r>    -1.6449     0.2377    48.1342 </r>
       <r>    -1.4024     0.4781    48.3149 </r>
       <r>    -1.1599     0.8821    48.6170 </r>
       <r>    -0.9174     0.9212    48.9224 </r>
       <r>    -0.6749     1.7433    49.4840 </r>
       <r>    -0.4324     1.8713    50.0354 </r>
       <r>    -0.1899     1.4363    50.4810 </r>
       <r>     0.0526     1.1966    50.9535 </r>
       <r>     0.2951     0.8226    51.3628 </r>
       <r>     0.5377     0.8852    51.7453 </r>
       <r>     0.7802     0.2389    51.9304 </r>
       <r>     1.0227     0.4625    52.0918 </r>
       <r>     1.2652     0.2660    52.2431 </r>
       <r>     1.5077     0.5989    52.6911 </r>
       <r>     1.7502     0.2667    52.7943 </r>
       <r>     1.9927     0.9684    53.2910 </r>
       <r>     2.2352     0.3111    53.3867 </r>
       <r>     2.4777     2.0080    53.8900 </r>
       <r>     2.7202     0.1267    53.9797 </r>
       <r>     2.9628     0.8111    54.1967 </r>
       <r>     3.2053     0.4207    54.5714 </r>
       <r>     3.4478     0.7040    54.7421 </r>
       <r>     3.6903     1.1725    55.0599 </r>
       <r>     3.9328     0.3995    55.3418 </r>
       <r>     4.1753     1.6550    55.8401 </r>
       <r>     4.4178     1.9755    56.6678 </r>
       <r>     4.6603     1.8013    57.3552 </r>
       <r>     4.9028     2.3977    58.1427 </r>
       <r>     5.1453     2.0652    58.9141 </r>
       <r>     5.3878     2.5142    60.0077 </r>
       <r>     5.6304     1.0495    60.3719 </r>
       <r>     5.8729     1.8363    60.9657 </r>
       <r>     6.1154     4.3672    62.5897 </r>
       <r>     6.3579     2.3611    63.6542 </r>
       <r>     6.6004     3.4196    64.9517 </r>
       <r>     6.8429     4.9453    66.5615 </r>
       <r>     7.0854     5.8164    68.8187 </r>
       <r>     7.3279     4.5070    70.6542 </r>
       <r>     7.5704     5.6293    72.7172 </r>
       <r>     7.8129     8.1490    75.3180 </r>
       <r>     8.0555     8.2420    78.3355 </r>
       <r>     8.2980     6.3780    80.6386 </r>
       <r>     8.5405     6.4089    82.9675 </r>
       <r>     8.7830     5.9713    85.0705 </r>
       <r>     9.0255     3.3698    86.5417 </r>
       <r>     9.2680     3.4486    88.0047 </r>
       <r>     9.5105     4.1351    89.5538 </r>
       <r>     9.7530     4.6261    91.0913 </r>
       <r>     9.9955     4.6131    92.6953 </r>
       <r>    10.2380     3.9778    94.0871 </r>
       <r>    10.4806     2.9255    95.1840 </r>
       <r>    10.7231     3.5487    96.4167 </r>
       <r>    10.9656     4.6147    97.9303 </r>
       <r>    11.2081     6.6049   100.3058 </r>
       <r>    11.4506     9.1837   103.2731 </r>
       <r>    11.6931     6.1125   105.8395 </r>
       <r>    11.9356     8.4266   108.9568 </r>
       <r>    12.1781     4.5905   110.8326 </r>
       <r>    12.4206     4.5718   112.5781 </r>
       <r>    12.6631     4.5715   114.4199 </r>
       <r>    12.9056     4.4680   116.0733 </r>
       <r>    13.1482     3.0470   117.4175 </r>
       <r>    13.3907     4.8165   119.1374 </r>
       <r>    13.6332     1.3611   119.9219 </r>
       <r>    13.8757     0.0842   120.0000 </r>
       <r>    14.1182     0.0000   120.0000 </r>
       <r>    14.3607     0.0000   120.0000 </r>
       <r>    14.6032     0.0000   120.0000 </r>
       <r>    14.8457     0.0000   120.0000 </r>
       <r>    15.0882     0.0000   120.0000 </r>
       <r>    15.3307     0.0000   120.0000 </r>
       <r>    15.5733     0.0000   120.0000 </r>
       <r>    15.8158     0.0000   120.0000 </r>
       <r>    16.0583     0.0000   120.0000 </r>
       <r>    16.3008     0.0000   120.0000 </r>
       <r>    16.5433     0.0000   120.0000 </r>
       <r>    16.7858     0.0000   120.0000 </r>
       <r>    17.0283     0.0000   120.0000 </r>
      </set>
     </set>
    </array>
   </total>
  </dos>
 </calculation>
 <structure name="finalpos" >
  <crystal>
   <varray name="basis" >
    <v>       5.14404771       0.00000000      -2.60983724 </v>
    <v>      -1.93930586       4.76448525      -2.60983724 </v>
    <v>       0.00000000       0.00000000       5.76823000 </v>
   </varray>
   <i name="volume">    141.37204613 </i>
   <varray name="rec_basis" >
    <v>       0.19439944       0.07912712       0.00000000 </v>
    <v>       0.00000000       0.20988626       0.00000000 </v>
    <v>       0.08795608       0.13076418       0.17336341 </v>
   </varray>
  </crystal>
  <varray name="positions" >
   <v>       0.75000000       0.25000000       0.50000000 </v>
   <v>       0.25000000       0.75000000       0.50000000 </v>
   <v>       0.72738000       0.22738000       0.95477000 </v>
   <v>       0.25000000       0.25000000       0.00000000 </v>
   <v>       0.27262000       0.77262000       0.04523000 </v>
   <v>       0.75000000       0.75000000       0.00000000 </v>
   <v>       0.22738000       0.27262000       0.50000000 </v>
   <v>       0.77262000       0.72738000       0.50000000 </v>
   <v>       0.50000000       0.00000000       0.50000000 </v>
   <v>       0.00000000       0.50000000       0.50000000 </v>
  </varray>
 </structure>
</modeling>
