<?xml version="1.0" encoding="ISO-8859-1"?>
<modeling>
 <generator>
  <i name="program" type="string">vasp </i>
  <i name="version" type="string">6.2.0  </i>
  <i name="subversion" type="string">18Jan21 (build Jan 05 2022 15:41:44) complex                          parallel </i>
  <i name="platform" type="string">LinuxIFC </i>
  <i name="date" type="string">2025 05 07 </i>
  <i name="time" type="string">15:40:48 </i>
 </generator>
 <incar>
  <i type="string" name="SYSTEM">routine with relax: pwdword</i>
  <i type="string" name="PREC">Acc</i>
  <i type="int" name="IALGO">    38</i>
  <i type="string" name="ALGO">A</i>
  <i type="logical" name="ADDGRID"> T  </i>
  <i type="int" name="ICHARG">     2</i>
  <i type="int" name="NELM">   100</i>
  <i type="int" name="NELMIN">     6</i>
  <i name="EDIFF">      0.00000000</i>
  <i type="int" name="NSW">     0</i>
  <i type="int" name="ISIF">    -1</i>
  <i name="ENCUT">    600.00000000</i>
  <i type="logical" name="LREAL"> F  </i>
  <i type="int" name="ISMEAR">     0</i>
  <i name="SIGMA">      0.02000000</i>
  <i type="logical" name="LASPH"> T  </i>
  <i type="string" name="METAGGA">R2SCAN</i>
  <i type="logical" name="LMIXTAU"> F  </i>
 </incar>
 <primitive_cell>
  <structure name="primitive_cell" >
   <crystal>
    <varray name="basis" >
     <v>       3.82035720      -2.70695843       0.00000000 </v>
     <v>       1.91804681       2.70695843       3.30399468 </v>
     <v>      -1.91804681      -2.70695843       3.33125532 </v>
    </varray>
    <i name="volume">    103.06945932 </i>
    <varray name="rec_basis" >
     <v>       0.17426448      -0.12347712       0.00000000 </v>
     <v>       0.08749022       0.12347581       0.15071022 </v>
     <v>      -0.08677426      -0.12246537       0.15071022 </v>
    </varray>
   </crystal>
   <varray name="positions" >
    <v>       0.00000000       0.50000000       0.50000000 </v>
    <v>       0.50000000       0.00000000       0.50000000 </v>
    <v>       0.50000000       0.50000000       0.00000000 </v>
    <v>       0.50000000       0.50000000       0.50000000 </v>
    <v>       0.00000000       0.00000000       0.50000000 </v>
   </varray>
  </structure>
  <varray name="primitive_index" >
   <v type="int" >        1 </v>
   <v type="int" >        2 </v>
   <v type="int" >        5 </v>
   <v type="int" >        6 </v>
   <v type="int" >        9 </v>
  </varray>
 </primitive_cell>
 <kpoints>
  <generation param="Gamma">
   <v type="int" name="divisions">       7        7        8 </v>
   <v name="usershift">      0.00000000       0.00000000       0.00000000 </v>
   <v name="genvec1">      0.14285714       0.00000000       0.00000000 </v>
   <v name="genvec2">      0.00000000       0.14285714       0.00000000 </v>
   <v name="genvec3">      0.00000000       0.00000000       0.12500000 </v>
   <v name="shift">      0.00000000       0.00000000       0.00000000 </v>
  </generation>
  <varray name="kpointlist" >
   <v>       0.00000000       0.00000000       0.00000000 </v>
   <v>       0.14285714       0.00000000       0.00000000 </v>
   <v>       0.28571429       0.00000000       0.00000000 </v>
   <v>       0.42857143       0.00000000       0.00000000 </v>
   <v>       0.14285714       0.14285714       0.00000000 </v>
   <v>       0.28571429       0.14285714       0.00000000 </v>
   <v>       0.42857143       0.14285714       0.00000000 </v>
   <v>      -0.42857143       0.14285714       0.00000000 </v>
   <v>      -0.28571429       0.14285714       0.00000000 </v>
   <v>      -0.14285714       0.14285714       0.00000000 </v>
   <v>       0.28571429       0.28571429       0.00000000 </v>
   <v>       0.42857143       0.28571429       0.00000000 </v>
   <v>      -0.42857143       0.28571429       0.00000000 </v>
   <v>      -0.28571429       0.28571429       0.00000000 </v>
   <v>       0.42857143       0.42857143       0.00000000 </v>
   <v>      -0.42857143       0.42857143       0.00000000 </v>
   <v>      -0.00000000       0.00000000       0.12500000 </v>
   <v>       0.14285714       0.00000000       0.12500000 </v>
   <v>       0.28571429       0.00000000       0.12500000 </v>
   <v>       0.42857143       0.00000000       0.12500000 </v>
   <v>      -0.42857143      -0.00000000       0.12500000 </v>
   <v>      -0.28571429      -0.00000000       0.12500000 </v>
   <v>      -0.14285714       0.00000000       0.12500000 </v>
   <v>       0.14285714       0.14285714       0.12500000 </v>
   <v>       0.28571429       0.14285714       0.12500000 </v>
   <v>       0.42857143       0.14285714       0.12500000 </v>
   <v>      -0.42857143       0.14285714       0.12500000 </v>
   <v>      -0.28571429       0.14285714       0.12500000 </v>
   <v>      -0.14285714       0.14285714       0.12500000 </v>
   <v>       0.28571429       0.28571429       0.12500000 </v>
   <v>       0.42857143       0.28571429       0.12500000 </v>
   <v>      -0.42857143       0.28571429       0.12500000 </v>
   <v>      -0.28571429       0.28571429       0.12500000 </v>
   <v>      -0.14285714       0.28571429       0.12500000 </v>
   <v>       0.42857143       0.42857143       0.12500000 </v>
   <v>      -0.42857143       0.42857143       0.12500000 </v>
   <v>      -0.28571429       0.42857143       0.12500000 </v>
   <v>      -0.14285714       0.42857143       0.12500000 </v>
   <v>      -0.42857143      -0.42857143       0.12500000 </v>
   <v>      -0.28571429      -0.42857143       0.12500000 </v>
   <v>      -0.14285714      -0.42857143       0.12500000 </v>
   <v>      -0.28571429      -0.28571429       0.12500000 </v>
   <v>      -0.14285714      -0.28571429       0.12500000 </v>
   <v>      -0.14285714      -0.14285714       0.12500000 </v>
   <v>      -0.00000000       0.00000000       0.25000000 </v>
   <v>       0.14285714       0.00000000       0.25000000 </v>
   <v>       0.28571429       0.00000000       0.25000000 </v>
   <v>       0.42857143       0.00000000       0.25000000 </v>
   <v>      -0.42857143      -0.00000000       0.25000000 </v>
   <v>      -0.28571429       0.00000000       0.25000000 </v>
   <v>      -0.14285714      -0.00000000       0.25000000 </v>
   <v>       0.14285714       0.14285714       0.25000000 </v>
   <v>       0.28571429       0.14285714       0.25000000 </v>
   <v>       0.42857143       0.14285714       0.25000000 </v>
   <v>      -0.42857143       0.14285714       0.25000000 </v>
   <v>      -0.28571429       0.14285714       0.25000000 </v>
   <v>      -0.14285714       0.14285714       0.25000000 </v>
   <v>       0.28571429       0.28571429       0.25000000 </v>
   <v>       0.42857143       0.28571429       0.25000000 </v>
   <v>      -0.42857143       0.28571429       0.25000000 </v>
   <v>      -0.28571429       0.28571429       0.25000000 </v>
   <v>      -0.14285714       0.28571429       0.25000000 </v>
   <v>       0.42857143       0.42857143       0.25000000 </v>
   <v>      -0.42857143       0.42857143       0.25000000 </v>
   <v>      -0.28571429       0.42857143       0.25000000 </v>
   <v>      -0.14285714       0.42857143       0.25000000 </v>
   <v>      -0.42857143      -0.42857143       0.25000000 </v>
   <v>      -0.28571429      -0.42857143       0.25000000 </v>
   <v>      -0.14285714      -0.42857143       0.25000000 </v>
   <v>      -0.28571429      -0.28571429       0.25000000 </v>
   <v>      -0.14285714      -0.28571429       0.25000000 </v>
   <v>      -0.14285714      -0.14285714       0.25000000 </v>
   <v>      -0.00000000      -0.00000000       0.37500000 </v>
   <v>       0.14285714       0.00000000       0.37500000 </v>
   <v>       0.28571429      -0.00000000       0.37500000 </v>
   <v>       0.42857143       0.00000000       0.37500000 </v>
   <v>      -0.42857143       0.00000000       0.37500000 </v>
   <v>      -0.28571429      -0.00000000       0.37500000 </v>
   <v>      -0.14285714      -0.00000000       0.37500000 </v>
   <v>       0.14285714       0.14285714       0.37500000 </v>
   <v>       0.28571429       0.14285714       0.37500000 </v>
   <v>       0.42857143       0.14285714       0.37500000 </v>
   <v>      -0.42857143       0.14285714       0.37500000 </v>
   <v>      -0.28571429       0.14285714       0.37500000 </v>
   <v>      -0.14285714       0.14285714       0.37500000 </v>
   <v>       0.28571429       0.28571429       0.37500000 </v>
   <v>       0.42857143       0.28571429       0.37500000 </v>
   <v>      -0.42857143       0.28571429       0.37500000 </v>
   <v>      -0.28571429       0.28571429       0.37500000 </v>
   <v>      -0.14285714       0.28571429       0.37500000 </v>
   <v>       0.42857143       0.42857143       0.37500000 </v>
   <v>      -0.42857143       0.42857143       0.37500000 </v>
   <v>      -0.28571429       0.42857143       0.37500000 </v>
   <v>      -0.14285714       0.42857143       0.37500000 </v>
   <v>      -0.42857143      -0.42857143       0.37500000 </v>
   <v>      -0.28571429      -0.42857143       0.37500000 </v>
   <v>      -0.14285714      -0.42857143       0.37500000 </v>
   <v>      -0.28571429      -0.28571429       0.37500000 </v>
   <v>      -0.14285714      -0.28571429       0.37500000 </v>
   <v>      -0.14285714      -0.14285714       0.37500000 </v>
   <v>      -0.00000000       0.00000000       0.50000000 </v>
   <v>       0.14285714       0.00000000       0.50000000 </v>
   <v>       0.28571429      -0.00000000       0.50000000 </v>
   <v>       0.42857143       0.00000000       0.50000000 </v>
   <v>       0.14285714       0.14285714       0.50000000 </v>
   <v>       0.28571429       0.14285714       0.50000000 </v>
   <v>       0.42857143       0.14285714       0.50000000 </v>
   <v>      -0.42857143       0.14285714       0.50000000 </v>
   <v>      -0.28571429       0.14285714       0.50000000 </v>
   <v>      -0.14285714       0.14285714       0.50000000 </v>
   <v>       0.28571429       0.28571429       0.50000000 </v>
   <v>       0.42857143       0.28571429       0.50000000 </v>
   <v>      -0.42857143       0.28571429       0.50000000 </v>
   <v>      -0.28571429       0.28571429       0.50000000 </v>
   <v>       0.42857143       0.42857143       0.50000000 </v>
   <v>      -0.42857143       0.42857143       0.50000000 </v>
  </varray>
  <varray name="weights" >
   <v>       0.00255102 </v>
   <v>       0.01020408 </v>
   <v>       0.01020408 </v>
   <v>       0.01020408 </v>
   <v>       0.00510204 </v>
   <v>       0.01020408 </v>
   <v>       0.01020408 </v>
   <v>       0.01020408 </v>
   <v>       0.01020408 </v>
   <v>       0.00510204 </v>
   <v>       0.00510204 </v>
   <v>       0.01020408 </v>
   <v>       0.01020408 </v>
   <v>       0.00510204 </v>
   <v>       0.00510204 </v>
   <v>       0.00510204 </v>
   <v>       0.00510204 </v>
   <v>       0.01020408 </v>
   <v>       0.01020408 </v>
   <v>       0.01020408 </v>
   <v>       0.01020408 </v>
   <v>       0.01020408 </v>
   <v>       0.01020408 </v>
   <v>       0.00510204 </v>
   <v>       0.01020408 </v>
   <v>       0.01020408 </v>
   <v>       0.01020408 </v>
   <v>       0.01020408 </v>
   <v>       0.01020408 </v>
   <v>       0.00510204 </v>
   <v>       0.01020408 </v>
   <v>       0.01020408 </v>
   <v>       0.01020408 </v>
   <v>       0.01020408 </v>
   <v>       0.00510204 </v>
   <v>       0.01020408 </v>
   <v>       0.01020408 </v>
   <v>       0.01020408 </v>
   <v>       0.00510204 </v>
   <v>       0.01020408 </v>
   <v>       0.01020408 </v>
   <v>       0.00510204 </v>
   <v>       0.01020408 </v>
   <v>       0.00510204 </v>
   <v>       0.00510204 </v>
   <v>       0.01020408 </v>
   <v>       0.01020408 </v>
   <v>       0.01020408 </v>
   <v>       0.01020408 </v>
   <v>       0.01020408 </v>
   <v>       0.01020408 </v>
   <v>       0.00510204 </v>
   <v>       0.01020408 </v>
   <v>       0.01020408 </v>
   <v>       0.01020408 </v>
   <v>       0.01020408 </v>
   <v>       0.01020408 </v>
   <v>       0.00510204 </v>
   <v>       0.01020408 </v>
   <v>       0.01020408 </v>
   <v>       0.01020408 </v>
   <v>       0.01020408 </v>
   <v>       0.00510204 </v>
   <v>       0.01020408 </v>
   <v>       0.01020408 </v>
   <v>       0.01020408 </v>
   <v>       0.00510204 </v>
   <v>       0.01020408 </v>
   <v>       0.01020408 </v>
   <v>       0.00510204 </v>
   <v>       0.01020408 </v>
   <v>       0.00510204 </v>
   <v>       0.00510204 </v>
   <v>       0.01020408 </v>
   <v>       0.01020408 </v>
   <v>       0.01020408 </v>
   <v>       0.01020408 </v>
   <v>       0.01020408 </v>
   <v>       0.01020408 </v>
   <v>       0.00510204 </v>
   <v>       0.01020408 </v>
   <v>       0.01020408 </v>
   <v>       0.01020408 </v>
   <v>       0.01020408 </v>
   <v>       0.01020408 </v>
   <v>       0.00510204 </v>
   <v>       0.01020408 </v>
   <v>       0.01020408 </v>
   <v>       0.01020408 </v>
   <v>       0.01020408 </v>
   <v>       0.00510204 </v>
   <v>       0.01020408 </v>
   <v>       0.01020408 </v>
   <v>       0.01020408 </v>
   <v>       0.00510204 </v>
   <v>       0.01020408 </v>
   <v>       0.01020408 </v>
   <v>       0.00510204 </v>
   <v>       0.01020408 </v>
   <v>       0.00510204 </v>
   <v>       0.00255102 </v>
   <v>       0.01020408 </v>
   <v>       0.01020408 </v>
   <v>       0.01020408 </v>
   <v>       0.00510204 </v>
   <v>       0.01020408 </v>
   <v>       0.01020408 </v>
   <v>       0.01020408 </v>
   <v>       0.01020408 </v>
   <v>       0.00510204 </v>
   <v>       0.00510204 </v>
   <v>       0.01020408 </v>
   <v>       0.01020408 </v>
   <v>       0.00510204 </v>
   <v>       0.00510204 </v>
   <v>       0.00510204 </v>
  </varray>
 </kpoints>
 <parameters>
  <separator name="general" >
   <i type="string" name="SYSTEM">routine with relax: pwdword</i>
   <i type="logical" name="LCOMPAT"> F  </i>
  </separator>
  <separator name="electronic" >
   <i type="string" name="PREC">acc</i>
   <i name="ENMAX">    600.00000000</i>
   <i name="ENAUG">    535.51400000</i>
   <i name="EDIFF">      0.00000000</i>
   <i type="int" name="IALGO">    58</i>
   <i type="int" name="IWAVPR">    10</i>
   <i type="int" name="NBANDS">    48</i>
   <i type="int" name="NBANDSLOW">    -1</i>
   <i type="int" name="NBANDSHIGH">    -1</i>
   <i name="NELECT">     76.00000000</i>
   <i type="int" name="TURBO">     0</i>
   <i type="int" name="IRESTART">     0</i>
   <i type="int" name="NREBOOT">     0</i>
   <i type="int" name="NMIN">     0</i>
   <i name="EREF">      0.00000000</i>
   <separator name="electronic smearing" >
    <i type="int" name="ISMEAR">     0</i>
    <i name="SIGMA">      0.02000000</i>
    <i name="KSPACING">      0.50000000</i>
    <i type="logical" name="KGAMMA"> T  </i>
    <i type="logical" name="KBLOWUP"> F  </i>
   </separator>
   <separator name="electronic projectors" >
    <i type="logical" name="LREAL"> F  </i>
    <v name="ROPT">      0.00000000      0.00000000      0.00000000</v>
    <i type="int" name="LMAXPAW">  -100</i>
    <i type="int" name="LMAXMIX">     2</i>
    <i type="logical" name="NLSPLINE"> F  </i>
   </separator>
   <separator name="electronic startup" >
    <i type="int" name="ISTART">     0</i>
    <i type="int" name="ICHARG">     2</i>
    <i type="int" name="INIWAV">     1</i>
   </separator>
   <separator name="electronic spin" >
    <i type="int" name="ISPIN">     1</i>
    <i type="logical" name="LNONCOLLINEAR"> F  </i>
    <v name="MAGMOM">      1.00000000      1.00000000      1.00000000      1.00000000      1.00000000      1.00000000      1.00000000      1.00000000      1.00000000      1.00000000</v>
    <i name="NUPDOWN">     -1.00000000</i>
    <i type="logical" name="LSORBIT"> F  </i>
    <v name="SAXIS">      0.00000000      0.00000000      1.00000000</v>
    <i type="logical" name="LSPIRAL"> F  </i>
    <v name="QSPIRAL">      0.00000000      0.00000000      0.00000000</v>
    <i type="logical" name="LZEROZ"> F  </i>
   </separator>
   <separator name="electronic exchange-correlation" >
    <i type="logical" name="LASPH"> T  </i>
    <i type="logical" name="LMETAGGA"> F  </i>
   </separator>
   <separator name="electronic convergence" >
    <i type="int" name="NELM">   100</i>
    <i type="int" name="NELMDL">    -5</i>
    <i type="int" name="NELMIN">     6</i>
    <i name="ENINI">    600.00000000</i>
    <separator name="electronic convergence detail" >
     <i type="logical" name="LDIAG"> T  </i>
     <i type="logical" name="LSUBROT"> F  </i>
     <i name="WEIMIN">      0.00000000</i>
     <i name="EBREAK">      0.00000000</i>
     <i name="DEPER">      0.30000000</i>
     <i type="int" name="NRMM">     4</i>
     <i name="TIME">      0.40000000</i>
    </separator>
   </separator>
   <separator name="electronic mixer" >
    <i name="AMIX">      0.40000000</i>
    <i name="BMIX">      1.00000000</i>
    <i name="AMIN">      0.10000000</i>
    <i name="AMIX_MAG">      1.60000000</i>
    <i name="BMIX_MAG">      1.00000000</i>
    <separator name="electronic mixer details" >
     <i type="int" name="IMIX">     4</i>
     <i type="logical" name="MIXFIRST"> F  </i>
     <i type="int" name="MAXMIX">   -45</i>
     <i name="WC">    100.00000000</i>
     <i type="int" name="INIMIX">     1</i>
     <i type="int" name="MIXPRE">     1</i>
     <i type="int" name="MREMOVE">     5</i>
    </separator>
   </separator>
   <separator name="electronic dipolcorrection" >
    <i type="logical" name="LDIPOL"> F  </i>
    <i type="logical" name="LMONO"> F  </i>
    <i type="int" name="IDIPOL">     0</i>
    <i name="EPSILON">      1.00000000</i>
    <v name="DIPOL">   -100.00000000   -100.00000000   -100.00000000</v>
    <i name="EFIELD">      0.00000000</i>
   </separator>
  </separator>
  <separator name="grids" >
   <i type="int" name="NGX">    54</i>
   <i type="int" name="NGY">    54</i>
   <i type="int" name="NGZ">    54</i>
   <i type="int" name="NGXF">   108</i>
   <i type="int" name="NGYF">   108</i>
   <i type="int" name="NGZF">   108</i>
   <i type="logical" name="ADDGRID"> T  </i>
  </separator>
  <separator name="ionic" >
   <i type="int" name="NSW">     0</i>
   <i type="int" name="IBRION">    -1</i>
   <i type="int" name="MDALGO">     0</i>
   <i type="int" name="ISIF">    -1</i>
   <i name="PSTRESS">      0.00000000</i>
   <i name="EDIFFG">      0.00000001</i>
   <i type="int" name="NFREE">     0</i>
   <i name="POTIM">      0.50000000</i>
   <i name="SMASS">     -3.00000000</i>
   <i name="SCALEE">      1.00000000</i>
  </separator>
  <separator name="ionic md" >
   <i name="TEBEG">      0.00010000</i>
   <i name="TEEND">      0.00010000</i>
   <i type="int" name="NBLOCK">     1</i>
   <i type="int" name="KBLOCK">     1</i>
   <i type="int" name="NPACO">   256</i>
   <i name="APACO">     16.00000000</i>
  </separator>
  <separator name="symmetry" >
   <i type="int" name="ISYM">     2</i>
   <i name="SYMPREC">      0.00001000</i>
  </separator>
  <separator name="dos" >
   <i type="int" name="LORBIT">     0</i>
   <v name="RWIGS">     -1.00000000     -1.00000000     -1.00000000</v>
   <i type="int" name="NEDOS">   301</i>
   <i name="EMIN">     10.00000000</i>
   <i name="EMAX">    -10.00000000</i>
   <i name="EFERMI">      0.00000000</i>
  </separator>
  <separator name="writing" >
   <i type="int" name="NWRITE">     2</i>
   <i type="logical" name="LWAVE"> T  </i>
   <i type="logical" name="LDOWNSAMPLE"> F  </i>
   <i type="logical" name="LCHARG"> T  </i>
   <i type="logical" name="LPARD"> F  </i>
   <i type="logical" name="LVTOT"> F  </i>
   <i type="logical" name="LVHAR"> F  </i>
   <i type="logical" name="LELF"> F  </i>
   <i type="logical" name="LOPTICS"> F  </i>
   <v name="STM">      0.00000000      0.00000000      0.00000000      0.00000000      0.00000000      0.00000000      0.00000000</v>
  </separator>
  <separator name="performance" >
   <i type="int" name="NPAR">     6</i>
   <i type="int" name="NSIM">     4</i>
   <i type="int" name="NBLK">    -1</i>
   <i type="logical" name="LPLANE"> T  </i>
   <i type="logical" name="LSCALAPACK"> T  </i>
   <i type="logical" name="LSCAAWARE"> F  </i>
   <i type="logical" name="LSCALU"> F  </i>
   <i type="logical" name="LASYNC"> F  </i>
   <i type="logical" name="LORBITALREAL"> F  </i>
  </separator>
  <separator name="miscellaneous" >
   <i type="int" name="IDIOT">     3</i>
   <i type="int" name="PHON_NSTRUCT">    -1</i>
   <i type="logical" name="LMUSIC"> F  </i>
   <v name="POMASS">     10.81100000     95.94000000     28.08500000</v>
   <v name="DARWINR">      0.00000000      0.00000000      0.00000000</v>
   <v name="DARWINV">      1.00000000      1.00000000      1.00000000</v>
   <i type="logical" name="LCORR"> T  </i>
  </separator>
  <i type="logical" name="GGA_COMPAT"> T  </i>
  <i type="logical" name="LBERRY"> F  </i>
  <i type="int" name="ICORELEVEL">     0</i>
  <i type="logical" name="LDAU"> F  </i>
  <i type="int" name="I_CONSTRAINED_M">     0</i>
  <separator name="electronic exchange-correlation" >
   <i type="string" name="GGA">--</i>
   <i type="int" name="VOSKOWN">     0</i>
   <i type="logical" name="LHFCALC"> F  </i>
   <i type="string" name="PRECFOCK"></i>
   <i type="logical" name="LSYMGRAD"> F  </i>
   <i type="logical" name="LHFONE"> F  </i>
   <i type="logical" name="LRHFCALC"> F  </i>
   <i type="logical" name="LTHOMAS"> F  </i>
   <i type="logical" name="LMODELHF"> F  </i>
   <i type="logical" name="LFOCKACE"> F  </i>
   <i name="ENCUT4O">     -1.00000000</i>
   <i type="int" name="EXXOEP">     0</i>
   <i type="int" name="FOURORBIT">     0</i>
   <i name="AEXX">      0.00000000</i>
   <i name="HFALPHA">      0.00000000</i>
   <i name="MCALPHA">      0.00000000</i>
   <i name="ALDAX">      1.00000000</i>
   <i name="AGGAX">      1.00000000</i>
   <i name="ALDAC">      1.00000000</i>
   <i name="AGGAC">      1.00000000</i>
   <i type="int" name="NKREDX">     1</i>
   <i type="int" name="NKREDY">     1</i>
   <i type="int" name="NKREDZ">     1</i>
   <i type="logical" name="SHIFTRED"> F  </i>
   <i type="logical" name="ODDONLY"> F  </i>
   <i type="logical" name="EVENONLY"> F  </i>
   <i type="int" name="LMAXFOCK">     0</i>
   <i type="int" name="NMAXFOCKAE">     0</i>
   <i type="logical" name="LFOCKAEDFT"> F  </i>
   <i name="HFSCREEN">      0.00000000</i>
   <i name="HFSCREENC">      0.00000000</i>
   <i type="int" name="NBANDSGWLOW">     0</i>
  </separator>
  <separator name="vdW DFT" >
   <i type="logical" name="LUSE_VDW"> F  </i>
   <i name="Zab_VDW">     -0.84910000</i>
   <i name="PARAM1">      0.12340000</i>
   <i name="PARAM2">      1.00000000</i>
   <i name="PARAM3">      0.00000000</i>
  </separator>
  <separator name="model GW" >
   <i type="int" name="MODEL_GW">     0</i>
   <i name="MODEL_EPS0">     12.36833512</i>
   <i name="MODEL_ALPHA">      1.00000000</i>
  </separator>
  <separator name="linear response parameters" >
   <i type="logical" name="LEPSILON"> F  </i>
   <i type="logical" name="LRPA"> F  </i>
   <i type="logical" name="LNABLA"> F  </i>
   <i type="logical" name="LVEL"> F  </i>
   <i type="int" name="KINTER">     0</i>
   <i name="CSHIFT">      0.10000000</i>
   <i name="OMEGAMAX">     -1.00000000</i>
   <i name="DEG_THRESHOLD">      0.00200000</i>
   <i name="RTIME">     -0.10000000</i>
   <i name="WPLASMAI">      0.00000000</i>
   <v name="DFIELD">      0.00000000      0.00000000      0.00000000</v>
   <v name="WPLASMA">      0.00000000      0.00000000      0.00000000      0.00000000      0.00000000      0.00000000      0.00000000      0.00000000      0.00000000</v>
  </separator>
  <separator name="orbital magnetization" >
   <i type="logical" name="NUCIND"> F  </i>
   <v name="MAGPOS">      0.00000000      0.00000000      0.00000000</v>
   <i type="logical" name="LNICSALL"> T  </i>
   <i type="logical" name="ORBITALMAG"> F  </i>
   <i type="logical" name="LMAGBLOCH"> F  </i>
   <i type="logical" name="LCHIMAG"> F  </i>
   <i type="logical" name="LGAUGE"> T  </i>
   <i type="int" name="MAGATOM">     0</i>
   <v name="MAGDIPOL">      0.00000000      0.00000000      0.00000000</v>
   <v name="AVECCONST">      0.00000000      0.00000000      0.00000000</v>
  </separator>
  <separator name="response functions" >
   <i type="logical" name="LFINITE_TEMPERATURE"> F  </i>
   <i type="logical" name="LADDER"> F  </i>
   <i type="logical" name="LRPAFORCE"> F  </i>
   <i type="logical" name="LFXC"> F  </i>
   <i type="logical" name="LHARTREE"> T  </i>
   <i type="int" name="IBSE">     0</i>
   <v type="int" name="KPOINT">    -1     0     0     0</v>
   <i type="logical" name="LTCTC"> F  </i>
   <i type="logical" name="LTCTE"> F  </i>
   <i type="logical" name="LTETE"> F  </i>
   <i type="logical" name="LTRIPLET"> F  </i>
   <i type="logical" name="LFXCEPS"> F  </i>
   <i type="logical" name="LFXHEG"> F  </i>
   <i type="int" name="NATURALO">     2</i>
   <i type="logical" name="LHOLEGF"> F  </i>
   <i type="logical" name="L2ORDER"> F  </i>
   <i type="logical" name="LDMP1"> F  </i>
   <i type="logical" name="LMP2LT"> F  </i>
   <i type="logical" name="LSMP2LT"> F  </i>
   <i type="logical" name="LGWLF"> F  </i>
   <i name="ENCUTGW">     -2.00000000</i>
   <i name="ENCUTGWSOFT">     -2.00000000</i>
   <i name="ENCUTLF">     -1.00000000</i>
   <i type="logical" name="LESF_SPLINES"> F  </i>
   <i type="int" name="LMAXMP2">    -1</i>
   <i name="SCISSOR">      0.00000000</i>
   <i type="int" name="NOMEGA">     0</i>
   <i type="int" name="NOMEGAR">     0</i>
   <i type="int" name="NBANDSGW">    -1</i>
   <i type="int" name="NBANDSO">    -1</i>
   <i type="int" name="NBANDSV">    -1</i>
   <i type="int" name="NELM">   100</i>
   <i type="int" name="NELMHF">     1</i>
   <i type="int" name="DIM">     3</i>
   <i type="int" name="IESPILON">     4</i>
   <i type="int" name="ANTIRES">     0</i>
   <i name="OMEGAMAX">    -30.00000000</i>
   <i name="OMEGAMIN">    -30.00000000</i>
   <i name="OMEGATL">   -200.00000000</i>
   <i type="int" name="OMEGAGRID">     0</i>
   <i name="CSHIFT">     -0.10000000</i>
   <i type="logical" name="LSELFENERGY"> F  </i>
   <i type="logical" name="LSPECTRAL"> F  </i>
   <i type="logical" name="LSPECTRALGW"> F  </i>
   <i type="logical" name="LSINGLES"> F  </i>
   <i type="logical" name="LFERMIGW"> F  </i>
   <i type="logical" name="ODDONLYGW"> F  </i>
   <i type="logical" name="EVENONLYGW"> F  </i>
   <i type="int" name="NKREDLFX">     1</i>
   <i type="int" name="NKREDLFY">     1</i>
   <i type="int" name="NKREDLFZ">     1</i>
   <i type="int" name="MAXMEM">  2800</i>
   <i type="int" name="TELESCOPE">     0</i>
   <i type="int" name="NTAUPAR">    -1</i>
   <i type="int" name="NOMEGAPAR">    -1</i>
   <i name="DAMP_NEWTON">      0.80000001</i>
   <i name="LAMBDA">      1.00000000</i>
  </separator>
  <separator name="External order field" >
   <i name="OFIELD_KAPPA">      0.00000000</i>
   <v name="OFIELD_K">      0.00000000      0.00000000      0.00000000</v>
   <i name="OFIELD_Q6_NEAR">      0.00000000</i>
   <i name="OFIELD_Q6_FAR">      0.00000000</i>
   <i name="OFIELD_A">      0.00000000</i>
  </separator>
 </parameters>
 <atominfo>
  <atoms>      10 </atoms>
  <types>       3 </types>
  <array name="atoms" >
   <dimension dim="1">ion</dimension>
   <field type="string">element</field>
   <field type="int">atomtype</field>
   <set>
    <rc><c>B </c><c>   1</c></rc>
    <rc><c>B </c><c>   1</c></rc>
    <rc><c>B </c><c>   1</c></rc>
    <rc><c>B </c><c>   1</c></rc>
    <rc><c>Mo</c><c>   2</c></rc>
    <rc><c>Mo</c><c>   2</c></rc>
    <rc><c>Mo</c><c>   2</c></rc>
    <rc><c>Mo</c><c>   2</c></rc>
    <rc><c>Si</c><c>   3</c></rc>
    <rc><c>Si</c><c>   3</c></rc>
   </set>
  </array>
  <array name="atomtypes" >
   <dimension dim="1">type</dimension>
   <field type="int">atomspertype</field>
   <field type="string">element</field>
   <field>mass</field>
   <field>valence</field>
   <field type="string">pseudopotential</field>
   <set>
    <rc><c>   4</c><c>B </c><c>     10.81100000</c><c>      3.00000000</c><c>  PAW_PBE B 06Sep2000                   </c></rc>
    <rc><c>   4</c><c>Mo</c><c>     95.94000000</c><c>     14.00000000</c><c>  PAW_PBE Mo_sv 02Feb2006               </c></rc>
    <rc><c>   2</c><c>Si</c><c>     28.08500000</c><c>      4.00000000</c><c>  PAW_PBE Si 05Jan2001                  </c></rc>
   </set>
  </array>
 </atominfo>
 <structure name="initialpos" >
  <crystal>
   <varray name="basis" >
    <v>       5.73840401       0.00000000      -3.33125532 </v>
    <v>      -1.90231039       5.41391686      -3.33125532 </v>
    <v>       0.00000000       0.00000000       6.63525000 </v>
   </varray>
   <i name="volume">    206.13891865 </i>
   <varray name="rec_basis" >
    <v>       0.17426448       0.06123203       0.00000000 </v>
    <v>       0.00000000       0.18470915       0.00000000 </v>
    <v>       0.08749022       0.12347581       0.15071022 </v>
   </varray>
  </crystal>
  <varray name="positions" >
   <v>       0.50000000       0.50000000       0.50000000 </v>
   <v>       0.50000000       0.00000000       0.00000000 </v>
   <v>       0.00000000       0.00000000       0.50000000 </v>
   <v>       0.00000000       0.50000000       0.00000000 </v>
   <v>       0.50000000       0.00000000       0.50000000 </v>
   <v>       0.75000000       0.25000000       0.50000000 </v>
   <v>       0.25000000       0.75000000       0.50000000 </v>
   <v>       0.00000000       0.50000000       0.50000000 </v>
   <v>       0.25000000       0.25000000       0.00000000 </v>
   <v>       0.75000000       0.75000000       0.00000000 </v>
  </varray>
 </structure>
 <calculation>
  <scstep>
   <time name="total">   26.10   26.37</time>
   <energy>
    <i name="alphaZ">    234.14762095 </i>
    <i name="ewald">  -4707.02538809 </i>
    <i name="hartreedc">  -2808.47845306 </i>
    <i name="XCdc">    320.88379326 </i>
    <i name="pawpsdc">   6278.15209018 </i>
    <i name="pawaedc">  -6244.81064237 </i>
    <i name="eentropy">     -0.00091199 </i>
    <i name="bandstr">   -401.37471157 </i>
    <i name="atom">   7939.94160518 </i>
    <i name="e_fr_energy">    611.43500249 </i>
    <i name="e_wo_entrp">    611.43591448 </i>
    <i name="e_0_energy">    611.43545848 </i>
   </energy>
  </scstep>
  <scstep>
   <time name="total">   26.13   26.39</time>
   <energy>
    <i name="e_fr_energy">   -130.26059548 </i>
    <i name="e_wo_entrp">   -130.25852607 </i>
    <i name="e_0_energy">   -130.25956077 </i>
   </energy>
  </scstep>
  <scstep>
   <time name="total">   29.63   29.91</time>
   <energy>
    <i name="e_fr_energy">   -162.96025290 </i>
    <i name="e_wo_entrp">   -162.95817745 </i>
    <i name="e_0_energy">   -162.95921518 </i>
   </energy>
  </scstep>
  <scstep>
   <time name="total">   28.49   28.76</time>
   <energy>
    <i name="e_fr_energy">   -163.91641711 </i>
    <i name="e_wo_entrp">   -163.91457515 </i>
    <i name="e_0_energy">   -163.91549613 </i>
   </energy>
  </scstep>
  <scstep>
   <time name="total">   32.20   32.50</time>
   <energy>
    <i name="e_fr_energy">   -163.94970572 </i>
    <i name="e_wo_entrp">   -163.94790167 </i>
    <i name="e_0_energy">   -163.94880370 </i>
   </energy>
  </scstep>
  <scstep>
   <time name="total">   30.49   30.79</time>
   <energy>
    <i name="e_fr_energy">    -94.72259038 </i>
    <i name="e_wo_entrp">    -94.72047011 </i>
    <i name="e_0_energy">    -94.72153024 </i>
   </energy>
  </scstep>
  <scstep>
   <time name="total">   33.57   33.85</time>
   <energy>
    <i name="e_fr_energy">   -126.11230853 </i>
    <i name="e_wo_entrp">   -126.10980421 </i>
    <i name="e_0_energy">   -126.11105637 </i>
   </energy>
  </scstep>
  <scstep>
   <time name="total">   35.02   35.30</time>
   <energy>
    <i name="e_fr_energy">   -129.09575729 </i>
    <i name="e_wo_entrp">   -129.09329066 </i>
    <i name="e_0_energy">   -129.09452398 </i>
   </energy>
  </scstep>
  <scstep>
   <time name="total">   34.58   34.86</time>
   <energy>
    <i name="e_fr_energy">   -130.32051887 </i>
    <i name="e_wo_entrp">   -130.31806158 </i>
    <i name="e_0_energy">   -130.31929022 </i>
   </energy>
  </scstep>
  <scstep>
   <time name="total">   33.30   33.57</time>
   <energy>
    <i name="e_fr_energy">   -130.76379011 </i>
    <i name="e_wo_entrp">   -130.76150126 </i>
    <i name="e_0_energy">   -130.76264568 </i>
   </energy>
  </scstep>
  <scstep>
   <time name="total">   34.87   35.15</time>
   <energy>
    <i name="e_fr_energy">   -131.00370221 </i>
    <i name="e_wo_entrp">   -131.00168242 </i>
    <i name="e_0_energy">   -131.00269232 </i>
   </energy>
  </scstep>
  <scstep>
   <time name="total">   35.45   35.72</time>
   <energy>
    <i name="e_fr_energy">   -131.08858271 </i>
    <i name="e_wo_entrp">   -131.08656802 </i>
    <i name="e_0_energy">   -131.08757537 </i>
   </energy>
  </scstep>
  <scstep>
   <time name="total">   34.89   35.17</time>
   <energy>
    <i name="e_fr_energy">   -131.14564310 </i>
    <i name="e_wo_entrp">   -131.14365040 </i>
    <i name="e_0_energy">   -131.14464675 </i>
   </energy>
  </scstep>
  <scstep>
   <time name="total">   36.94   37.23</time>
   <energy>
    <i name="e_fr_energy">   -131.18049217 </i>
    <i name="e_wo_entrp">   -131.17864833 </i>
    <i name="e_0_energy">   -131.17957025 </i>
   </energy>
  </scstep>
  <scstep>
   <time name="total">   35.68   35.97</time>
   <energy>
    <i name="e_fr_energy">   -131.20030636 </i>
    <i name="e_wo_entrp">   -131.19856873 </i>
    <i name="e_0_energy">   -131.19943754 </i>
   </energy>
  </scstep>
  <scstep>
   <time name="total">   33.90   34.18</time>
   <energy>
    <i name="e_fr_energy">   -131.21653883 </i>
    <i name="e_wo_entrp">   -131.21481087 </i>
    <i name="e_0_energy">   -131.21567485 </i>
   </energy>
  </scstep>
  <scstep>
   <time name="total">   34.62   34.90</time>
   <energy>
    <i name="e_fr_energy">   -131.22472714 </i>
    <i name="e_wo_entrp">   -131.22308072 </i>
    <i name="e_0_energy">   -131.22390393 </i>
   </energy>
  </scstep>
  <scstep>
   <time name="total">   34.84   35.11</time>
   <energy>
    <i name="e_fr_energy">   -131.23071950 </i>
    <i name="e_wo_entrp">   -131.22911547 </i>
    <i name="e_0_energy">   -131.22991748 </i>
   </energy>
  </scstep>
  <scstep>
   <time name="total">   34.88   35.17</time>
   <energy>
    <i name="e_fr_energy">   -131.23413487 </i>
    <i name="e_wo_entrp">   -131.23248304 </i>
    <i name="e_0_energy">   -131.23330895 </i>
   </energy>
  </scstep>
  <scstep>
   <time name="total">   35.72   36.01</time>
   <energy>
    <i name="e_fr_energy">   -131.23574717 </i>
    <i name="e_wo_entrp">   -131.23408133 </i>
    <i name="e_0_energy">   -131.23491425 </i>
   </energy>
  </scstep>
  <scstep>
   <time name="total">   36.51   36.82</time>
   <energy>
    <i name="e_fr_energy">   -131.23700261 </i>
    <i name="e_wo_entrp">   -131.23533535 </i>
    <i name="e_0_energy">   -131.23616898 </i>
   </energy>
  </scstep>
  <scstep>
   <time name="total">   35.84   36.13</time>
   <energy>
    <i name="e_fr_energy">   -131.23751254 </i>
    <i name="e_wo_entrp">   -131.23581551 </i>
    <i name="e_0_energy">   -131.23666402 </i>
   </energy>
  </scstep>
  <scstep>
   <time name="total">   36.34   36.63</time>
   <energy>
    <i name="e_fr_energy">   -131.23786573 </i>
    <i name="e_wo_entrp">   -131.23616415 </i>
    <i name="e_0_energy">   -131.23701494 </i>
   </energy>
  </scstep>
  <scstep>
   <time name="total">   36.52   36.81</time>
   <energy>
    <i name="e_fr_energy">   -131.23810638 </i>
    <i name="e_wo_entrp">   -131.23641407 </i>
    <i name="e_0_energy">   -131.23726022 </i>
   </energy>
  </scstep>
  <scstep>
   <time name="total">   36.07   36.35</time>
   <energy>
    <i name="e_fr_energy">   -131.23821075 </i>
    <i name="e_wo_entrp">   -131.23651281 </i>
    <i name="e_0_energy">   -131.23736178 </i>
   </energy>
  </scstep>
  <scstep>
   <time name="total">   35.98   36.26</time>
   <energy>
    <i name="e_fr_energy">   -131.23829601 </i>
    <i name="e_wo_entrp">   -131.23659831 </i>
    <i name="e_0_energy">   -131.23744716 </i>
   </energy>
  </scstep>
  <scstep>
   <time name="total">   35.79   36.08</time>
   <energy>
    <i name="e_fr_energy">   -131.23834905 </i>
    <i name="e_wo_entrp">   -131.23665820 </i>
    <i name="e_0_energy">   -131.23750363 </i>
   </energy>
  </scstep>
  <scstep>
   <time name="total">   33.93   34.21</time>
   <energy>
    <i name="e_fr_energy">   -131.23837059 </i>
    <i name="e_wo_entrp">   -131.23667899 </i>
    <i name="e_0_energy">   -131.23752479 </i>
   </energy>
  </scstep>
  <scstep>
   <time name="total">   35.49   35.77</time>
   <energy>
    <i name="e_fr_energy">   -131.23839094 </i>
    <i name="e_wo_entrp">   -131.23669640 </i>
    <i name="e_0_energy">   -131.23754367 </i>
   </energy>
  </scstep>
  <scstep>
   <time name="total">   36.38   36.67</time>
   <energy>
    <i name="e_fr_energy">   -131.23839995 </i>
    <i name="e_wo_entrp">   -131.23670725 </i>
    <i name="e_0_energy">   -131.23755360 </i>
   </energy>
  </scstep>
  <scstep>
   <time name="total">   34.32   34.60</time>
   <energy>
    <i name="e_fr_energy">   -131.23840450 </i>
    <i name="e_wo_entrp">   -131.23671176 </i>
    <i name="e_0_energy">   -131.23755813 </i>
   </energy>
  </scstep>
  <scstep>
   <time name="total">   36.01   36.30</time>
   <energy>
    <i name="e_fr_energy">   -131.23840791 </i>
    <i name="e_wo_entrp">   -131.23671370 </i>
    <i name="e_0_energy">   -131.23756081 </i>
   </energy>
  </scstep>
  <scstep>
   <time name="total">   34.85   35.12</time>
   <energy>
    <i name="e_fr_energy">   -131.23840957 </i>
    <i name="e_wo_entrp">   -131.23671555 </i>
    <i name="e_0_energy">   -131.23756256 </i>
   </energy>
  </scstep>
  <scstep>
   <time name="total">   34.10   34.37</time>
   <energy>
    <i name="e_fr_energy">   -131.23841091 </i>
    <i name="e_wo_entrp">   -131.23671636 </i>
    <i name="e_0_energy">   -131.23756363 </i>
   </energy>
  </scstep>
  <scstep>
   <time name="total">   32.75   33.02</time>
   <energy>
    <i name="e_fr_energy">   -131.23841179 </i>
    <i name="e_wo_entrp">   -131.23671678 </i>
    <i name="e_0_energy">   -131.23756428 </i>
   </energy>
  </scstep>
  <scstep>
   <time name="total">   35.97   36.25</time>
   <energy>
    <i name="e_fr_energy">   -131.23841206 </i>
    <i name="e_wo_entrp">   -131.23671743 </i>
    <i name="e_0_energy">   -131.23756474 </i>
   </energy>
  </scstep>
  <scstep>
   <time name="total">   35.03   35.32</time>
   <energy>
    <i name="e_fr_energy">   -131.23841229 </i>
    <i name="e_wo_entrp">   -131.23671851 </i>
    <i name="e_0_energy">   -131.23756540 </i>
   </energy>
  </scstep>
  <scstep>
   <time name="total">   33.38   33.65</time>
   <energy>
    <i name="e_fr_energy">   -131.23841223 </i>
    <i name="e_wo_entrp">   -131.23671794 </i>
    <i name="e_0_energy">   -131.23756509 </i>
   </energy>
  </scstep>
  <scstep>
   <time name="total">   36.06   36.35</time>
   <energy>
    <i name="e_fr_energy">   -131.23841256 </i>
    <i name="e_wo_entrp">   -131.23671860 </i>
    <i name="e_0_energy">   -131.23756558 </i>
   </energy>
  </scstep>
  <scstep>
   <time name="total">   61.04   61.51</time>
   <energy>
    <i name="e_fr_energy">   -131.23841264 </i>
    <i name="e_wo_entrp">   -131.23671943 </i>
    <i name="e_0_energy">   -131.23756603 </i>
   </energy>
  </scstep>
  <scstep>
   <time name="total">   33.40   33.67</time>
   <energy>
    <i name="e_fr_energy">   -131.23841206 </i>
    <i name="e_wo_entrp">   -131.23671785 </i>
    <i name="e_0_energy">   -131.23756496 </i>
   </energy>
  </scstep>
  <scstep>
   <time name="total">   33.72   34.00</time>
   <energy>
    <i name="e_fr_energy">   -131.23841256 </i>
    <i name="e_wo_entrp">   -131.23671877 </i>
    <i name="e_0_energy">   -131.23756566 </i>
   </energy>
  </scstep>
  <scstep>
   <time name="total">   34.92   35.21</time>
   <energy>
    <i name="e_fr_energy">   -131.23841274 </i>
    <i name="e_wo_entrp">   -131.23671904 </i>
    <i name="e_0_energy">   -131.23756589 </i>
   </energy>
  </scstep>
  <scstep>
   <time name="total">   35.80   36.09</time>
   <energy>
    <i name="e_fr_energy">   -131.23841277 </i>
    <i name="e_wo_entrp">   -131.23671898 </i>
    <i name="e_0_energy">   -131.23756587 </i>
   </energy>
  </scstep>
  <scstep>
   <time name="total">   35.48   35.78</time>
   <energy>
    <i name="e_fr_energy">   -131.23841277 </i>
    <i name="e_wo_entrp">   -131.23671896 </i>
    <i name="e_0_energy">   -131.23756587 </i>
   </energy>
  </scstep>
  <scstep>
   <time name="total">   40.80   41.13</time>
   <energy>
    <i name="alphaZ">    234.14762095 </i>
    <i name="ewald">  -4707.02538809 </i>
    <i name="hartreedc">  -2764.67079635 </i>
    <i name="XCdc">    328.14834565 </i>
    <i name="pawpsdc">   7696.70053514 </i>
    <i name="pawaedc">  -7672.42044139 </i>
    <i name="eentropy">     -0.00169379 </i>
    <i name="bandstr">  -1186.05820005 </i>
    <i name="atom">   7939.94160518 </i>
    <i name="e_fr_energy">   -131.23841277 </i>
    <i name="e_wo_entrp">   -131.23671898 </i>
    <i name="e_0_energy">   -131.23756587 </i>
   </energy>
  </scstep>
  <structure>
   <crystal>
    <varray name="basis" >
     <v>       5.73840401       0.00000000      -3.33125532 </v>
     <v>      -1.90231039       5.41391686      -3.33125532 </v>
     <v>       0.00000000       0.00000000       6.63525000 </v>
    </varray>
    <i name="volume">    206.13891865 </i>
    <varray name="rec_basis" >
     <v>       0.17426448       0.06123203       0.00000000 </v>
     <v>       0.00000000       0.18470915       0.00000000 </v>
     <v>       0.08749022       0.12347581       0.15071022 </v>
    </varray>
   </crystal>
   <varray name="positions" >
    <v>       0.50000000       0.50000000       0.50000000 </v>
    <v>       0.50000000       0.00000000       0.00000000 </v>
    <v>       0.00000000       0.00000000       0.50000000 </v>
    <v>       0.00000000       0.50000000       0.00000000 </v>
    <v>       0.50000000       0.00000000       0.50000000 </v>
    <v>       0.75000000       0.25000000       0.50000000 </v>
    <v>       0.25000000       0.75000000       0.50000000 </v>
    <v>       0.00000000       0.50000000       0.50000000 </v>
    <v>       0.25000000       0.25000000       0.00000000 </v>
    <v>       0.75000000       0.75000000       0.00000000 </v>
   </varray>
  </structure>
  <varray name="forces" >
   <v>       0.00000000       0.00000000       0.00000000 </v>
   <v>       0.00000000       0.00000000       0.00000000 </v>
   <v>       0.00000000       0.00000000       0.00000000 </v>
   <v>       0.00000000       0.00000000       0.00000000 </v>
   <v>       0.00000000       0.00000000       0.00000000 </v>
   <v>       0.00000000       0.00000000       0.00000000 </v>
   <v>       0.00000000       0.00000000       0.00000000 </v>
   <v>       0.00000000       0.00000000       0.00000000 </v>
   <v>       0.00000000       0.00000000       0.00000000 </v>
   <v>       0.00000000       0.00000000       0.00000000 </v>
  </varray>
  <varray name="stress" >
   <v>       0.00000000       0.00000000       0.00000000 </v>
   <v>       0.00000000       0.00000000       0.00000000 </v>
   <v>       0.00000000       0.00000000       0.00000000 </v>
  </varray>
  <energy>
   <i name="e_fr_energy">   -131.23841277 </i>
   <i name="e_wo_entrp">   -131.23671898 </i>
   <i name="e_0_energy">   -131.23756587 </i>
  </energy>
  <time name="totalsc"> 1612.95 1626.22</time>
  <eigenvalues>
   <array>
    <dimension dim="1">band</dimension>
    <dimension dim="2">kpoint</dimension>
    <dimension dim="3">spin</dimension>
    <field>eigene</field>
    <field>occ</field>
    <set>
     <set comment="spin 1">
      <set comment="kpoint 1">
       <r>  -58.6125    1.0000 </r>
       <r>  -58.4090    1.0000 </r>
       <r>  -58.2202    1.0000 </r>
       <r>  -57.9995    1.0000 </r>
       <r>  -33.4531    1.0000 </r>
       <r>  -32.0036    1.0000 </r>
       <r>  -31.9095    1.0000 </r>
       <r>  -31.9094    1.0000 </r>
       <r>  -31.8148    1.0000 </r>
       <r>  -31.7643    1.0000 </r>
       <r>  -31.7643    1.0000 </r>
       <r>  -31.5955    1.0000 </r>
       <r>  -31.5955    1.0000 </r>
       <r>  -31.4398    1.0000 </r>
       <r>  -31.4398    1.0000 </r>
       <r>  -30.1645    1.0000 </r>
       <r>   -6.0782    1.0000 </r>
       <r>   -4.0733    1.0000 </r>
       <r>   -2.5604    1.0000 </r>
       <r>   -2.5604    1.0000 </r>
       <r>   -2.0215    1.0000 </r>
       <r>    0.0936    1.0000 </r>
       <r>    0.6652    1.0000 </r>
       <r>    0.7353    1.0000 </r>
       <r>    0.7353    1.0000 </r>
       <r>    1.2208    1.0000 </r>
       <r>    1.2209    1.0000 </r>
       <r>    1.5384    1.0000 </r>
       <r>    1.8802    1.0000 </r>
       <r>    1.8803    1.0000 </r>
       <r>    2.4493    1.0000 </r>
       <r>    2.5952    1.0000 </r>
       <r>    2.9354    1.0000 </r>
       <r>    3.3641    1.0000 </r>
       <r>    4.2753    1.0000 </r>
       <r>    4.2754    1.0000 </r>
       <r>    4.5433    0.9636 </r>
       <r>    4.5488    0.9202 </r>
       <r>    4.6292    0.0000 </r>
       <r>    4.8398    0.0000 </r>
       <r>    4.9256    0.0000 </r>
       <r>    5.0223    0.0000 </r>
       <r>    5.3499    0.0000 </r>
       <r>    5.8849    0.0000 </r>
       <r>    5.8850    0.0000 </r>
       <r>    5.8901    0.0000 </r>
       <r>    6.2246    0.0000 </r>
       <r>    6.4160    0.0000 </r>
      </set>
      <set comment="kpoint 2">
       <r>  -58.6060    1.0000 </r>
       <r>  -58.4287    1.0000 </r>
       <r>  -58.1996    1.0000 </r>
       <r>  -58.0069    1.0000 </r>
       <r>  -33.4163    1.0000 </r>
       <r>  -32.2785    1.0000 </r>
       <r>  -31.9047    1.0000 </r>
       <r>  -31.9046    1.0000 </r>
       <r>  -31.7772    1.0000 </r>
       <r>  -31.7772    1.0000 </r>
       <r>  -31.5821    1.0000 </r>
       <r>  -31.5821    1.0000 </r>
       <r>  -31.5301    1.0000 </r>
       <r>  -31.4452    1.0000 </r>
       <r>  -31.4451    1.0000 </r>
       <r>  -30.2115    1.0000 </r>
       <r>   -6.0017    1.0000 </r>
       <r>   -4.2179    1.0000 </r>
       <r>   -2.5456    1.0000 </r>
       <r>   -2.4703    1.0000 </r>
       <r>   -2.0706    1.0000 </r>
       <r>    0.1626    1.0000 </r>
       <r>    0.2762    1.0000 </r>
       <r>    0.8436    1.0000 </r>
       <r>    0.8447    1.0000 </r>
       <r>    1.1681    1.0000 </r>
       <r>    1.2580    1.0000 </r>
       <r>    1.5617    1.0000 </r>
       <r>    1.6759    1.0000 </r>
       <r>    1.8214    1.0000 </r>
       <r>    2.5898    1.0000 </r>
       <r>    2.9293    1.0000 </r>
       <r>    3.1263    1.0000 </r>
       <r>    3.4995    1.0000 </r>
       <r>    3.6658    1.0000 </r>
       <r>    4.3792    1.0000 </r>
       <r>    4.4075    1.0000 </r>
       <r>    4.5553    0.8276 </r>
       <r>    4.8285    0.0000 </r>
       <r>    4.8397    0.0000 </r>
       <r>    4.9557    0.0000 </r>
       <r>    5.2076    0.0000 </r>
       <r>    5.3647    0.0000 </r>
       <r>    5.4799    0.0000 </r>
       <r>    5.7827    0.0000 </r>
       <r>    5.8793    0.0000 </r>
       <r>    5.9698    0.0000 </r>
       <r>    6.5044    0.0000 </r>
      </set>
      <set comment="kpoint 3">
       <r>  -58.5867    1.0000 </r>
       <r>  -58.4707    1.0000 </r>
       <r>  -58.1552    1.0000 </r>
       <r>  -58.0285    1.0000 </r>
       <r>  -33.3075    1.0000 </r>
       <r>  -32.6038    1.0000 </r>
       <r>  -31.8905    1.0000 </r>
       <r>  -31.8904    1.0000 </r>
       <r>  -31.8062    1.0000 </r>
       <r>  -31.8062    1.0000 </r>
       <r>  -31.5517    1.0000 </r>
       <r>  -31.5516    1.0000 </r>
       <r>  -31.4609    1.0000 </r>
       <r>  -31.4608    1.0000 </r>
       <r>  -31.1775    1.0000 </r>
       <r>  -30.3487    1.0000 </r>
       <r>   -5.7797    1.0000 </r>
       <r>   -4.5743    1.0000 </r>
       <r>   -2.5004    1.0000 </r>
       <r>   -2.2186    1.0000 </r>
       <r>   -2.1862    1.0000 </r>
       <r>   -0.5591    1.0000 </r>
       <r>    0.5215    1.0000 </r>
       <r>    1.0476    1.0000 </r>
       <r>    1.0598    1.0000 </r>
       <r>    1.1431    1.0000 </r>
       <r>    1.4197    1.0000 </r>
       <r>    1.5093    1.0000 </r>
       <r>    1.5362    1.0000 </r>
       <r>    1.8095    1.0000 </r>
       <r>    2.6846    1.0000 </r>
       <r>    2.7103    1.0000 </r>
       <r>    3.2008    1.0000 </r>
       <r>    3.4199    1.0000 </r>
       <r>    4.0565    1.0000 </r>
       <r>    4.3088    1.0000 </r>
       <r>    4.4213    1.0000 </r>
       <r>    4.4443    1.0000 </r>
       <r>    4.7208    0.0000 </r>
       <r>    4.8174    0.0000 </r>
       <r>    4.8728    0.0000 </r>
       <r>    5.0667    0.0000 </r>
       <r>    5.3119    0.0000 </r>
       <r>    5.4737    0.0000 </r>
       <r>    5.6110    0.0000 </r>
       <r>    5.8557    0.0000 </r>
       <r>    5.8737    0.0000 </r>
       <r>    6.7285    0.0000 </r>
      </set>
      <set comment="kpoint 4">
       <r>  -58.5560    1.0000 </r>
       <r>  -58.5160    1.0000 </r>
       <r>  -58.1065    1.0000 </r>
       <r>  -58.0627    1.0000 </r>
       <r>  -33.1306    1.0000 </r>
       <r>  -32.8928    1.0000 </r>
       <r>  -31.8679    1.0000 </r>
       <r>  -31.8678    1.0000 </r>
       <r>  -31.8387    1.0000 </r>
       <r>  -31.8386    1.0000 </r>
       <r>  -31.5171    1.0000 </r>
       <r>  -31.5171    1.0000 </r>
       <r>  -31.4856    1.0000 </r>
       <r>  -31.4855    1.0000 </r>
       <r>  -30.8487    1.0000 </r>
       <r>  -30.5662    1.0000 </r>
       <r>   -5.4361    1.0000 </r>
       <r>   -5.0127    1.0000 </r>
       <r>   -2.4231    1.0000 </r>
       <r>   -2.3147    1.0000 </r>
       <r>   -1.8171    1.0000 </r>
       <r>   -1.2615    1.0000 </r>
       <r>    0.9012    1.0000 </r>
       <r>    1.0000    1.0000 </r>
       <r>    1.1079    1.0000 </r>
       <r>    1.2141    1.0000 </r>
       <r>    1.3566    1.0000 </r>
       <r>    1.7055    1.0000 </r>
       <r>    1.7306    1.0000 </r>
       <r>    1.8527    1.0000 </r>
       <r>    2.2417    1.0000 </r>
       <r>    2.8316    1.0000 </r>
       <r>    3.0779    1.0000 </r>
       <r>    3.3598    1.0000 </r>
       <r>    4.1471    1.0000 </r>
       <r>    4.2097    1.0000 </r>
       <r>    4.3212    1.0000 </r>
       <r>    4.3331    1.0000 </r>
       <r>    4.5337    0.9933 </r>
       <r>    4.6121    0.0011 </r>
       <r>    4.6477    0.0000 </r>
       <r>    4.7303    0.0000 </r>
       <r>    5.8545    0.0000 </r>
       <r>    5.9393    0.0000 </r>
       <r>    6.0173    0.0000 </r>
       <r>    6.4160    0.0000 </r>
       <r>    6.4905    0.0000 </r>
       <r>    6.5078    0.0000 </r>
      </set>
      <set comment="kpoint 5">
       <r>  -58.5867    1.0000 </r>
       <r>  -58.4707    1.0000 </r>
       <r>  -58.1552    1.0000 </r>
       <r>  -58.0285    1.0000 </r>
       <r>  -33.3075    1.0000 </r>
       <r>  -32.6038    1.0000 </r>
       <r>  -31.8905    1.0000 </r>
       <r>  -31.8901    1.0000 </r>
       <r>  -31.8066    1.0000 </r>
       <r>  -31.8061    1.0000 </r>
       <r>  -31.5519    1.0000 </r>
       <r>  -31.5515    1.0000 </r>
       <r>  -31.4608    1.0000 </r>
       <r>  -31.4607    1.0000 </r>
       <r>  -31.1774    1.0000 </r>
       <r>  -30.3487    1.0000 </r>
       <r>   -5.9101    1.0000 </r>
       <r>   -4.3182    1.0000 </r>
       <r>   -2.8186    1.0000 </r>
       <r>   -2.1470    1.0000 </r>
       <r>   -2.1355    1.0000 </r>
       <r>    0.2232    1.0000 </r>
       <r>    0.5263    1.0000 </r>
       <r>    0.6155    1.0000 </r>
       <r>    0.9207    1.0000 </r>
       <r>    1.1298    1.0000 </r>
       <r>    1.3890    1.0000 </r>
       <r>    1.4643    1.0000 </r>
       <r>    1.5038    1.0000 </r>
       <r>    1.7919    1.0000 </r>
       <r>    2.3908    1.0000 </r>
       <r>    2.6788    1.0000 </r>
       <r>    3.3036    1.0000 </r>
       <r>    3.3663    1.0000 </r>
       <r>    3.5753    1.0000 </r>
       <r>    4.3578    1.0000 </r>
       <r>    4.4030    1.0000 </r>
       <r>    4.5922    0.0479 </r>
       <r>    4.7955    0.0000 </r>
       <r>    4.9918    0.0000 </r>
       <r>    5.0236    0.0000 </r>
       <r>    5.0953    0.0000 </r>
       <r>    5.3582    0.0000 </r>
       <r>    5.6388    0.0000 </r>
       <r>    5.7119    0.0000 </r>
       <r>    5.8509    0.0000 </r>
       <r>    5.9394    0.0000 </r>
       <r>    6.6959    0.0000 </r>
      </set>
      <set comment="kpoint 6">
       <r>  -58.5560    1.0000 </r>
       <r>  -58.5160    1.0000 </r>
       <r>  -58.1065    1.0000 </r>
       <r>  -58.0627    1.0000 </r>
       <r>  -33.1307    1.0000 </r>
       <r>  -32.8927    1.0000 </r>
       <r>  -31.8679    1.0000 </r>
       <r>  -31.8672    1.0000 </r>
       <r>  -31.8393    1.0000 </r>
       <r>  -31.8385    1.0000 </r>
       <r>  -31.5174    1.0000 </r>
       <r>  -31.5169    1.0000 </r>
       <r>  -31.4856    1.0000 </r>
       <r>  -31.4853    1.0000 </r>
       <r>  -30.8486    1.0000 </r>
       <r>  -30.5662    1.0000 </r>
       <r>   -5.6814    1.0000 </r>
       <r>   -4.5999    1.0000 </r>
       <r>   -2.9364    1.0000 </r>
       <r>   -2.3505    1.0000 </r>
       <r>   -1.7674    1.0000 </r>
       <r>   -0.2852    1.0000 </r>
       <r>    0.8386    1.0000 </r>
       <r>    0.9490    1.0000 </r>
       <r>    0.9872    1.0000 </r>
       <r>    1.1370    1.0000 </r>
       <r>    1.2347    1.0000 </r>
       <r>    1.3606    1.0000 </r>
       <r>    1.6552    1.0000 </r>
       <r>    1.7673    1.0000 </r>
       <r>    2.1526    1.0000 </r>
       <r>    2.4810    1.0000 </r>
       <r>    3.5235    1.0000 </r>
       <r>    3.5343    1.0000 </r>
       <r>    3.7448    1.0000 </r>
       <r>    4.1274    1.0000 </r>
       <r>    4.2092    1.0000 </r>
       <r>    4.2486    1.0000 </r>
       <r>    4.7511    0.0000 </r>
       <r>    4.7589    0.0000 </r>
       <r>    5.0264    0.0000 </r>
       <r>    5.3164    0.0000 </r>
       <r>    5.5946    0.0000 </r>
       <r>    5.9171    0.0000 </r>
       <r>    5.9367    0.0000 </r>
       <r>    6.0780    0.0000 </r>
       <r>    6.2647    0.0000 </r>
       <r>    6.5301    0.0000 </r>
      </set>
      <set comment="kpoint 7">
       <r>  -58.5560    1.0000 </r>
       <r>  -58.5160    1.0000 </r>
       <r>  -58.1065    1.0000 </r>
       <r>  -58.0627    1.0000 </r>
       <r>  -33.1305    1.0000 </r>
       <r>  -32.8929    1.0000 </r>
       <r>  -31.8687    1.0000 </r>
       <r>  -31.8677    1.0000 </r>
       <r>  -31.8387    1.0000 </r>
       <r>  -31.8379    1.0000 </r>
       <r>  -31.5172    1.0000 </r>
       <r>  -31.5167    1.0000 </r>
       <r>  -31.4859    1.0000 </r>
       <r>  -31.4854    1.0000 </r>
       <r>  -30.8488    1.0000 </r>
       <r>  -30.5661    1.0000 </r>
       <r>   -5.3434    1.0000 </r>
       <r>   -5.0025    1.0000 </r>
       <r>   -2.8517    1.0000 </r>
       <r>   -2.5894    1.0000 </r>
       <r>   -1.3841    1.0000 </r>
       <r>   -0.8535    1.0000 </r>
       <r>    0.7948    1.0000 </r>
       <r>    0.9437    1.0000 </r>
       <r>    1.0570    1.0000 </r>
       <r>    1.2595    1.0000 </r>
       <r>    1.2745    1.0000 </r>
       <r>    1.4518    1.0000 </r>
       <r>    1.7582    1.0000 </r>
       <r>    1.8013    1.0000 </r>
       <r>    2.6468    1.0000 </r>
       <r>    2.6984    1.0000 </r>
       <r>    3.4006    1.0000 </r>
       <r>    3.4028    1.0000 </r>
       <r>    3.4654    1.0000 </r>
       <r>    3.6988    1.0000 </r>
       <r>    4.1876    1.0000 </r>
       <r>    4.3703    1.0000 </r>
       <r>    4.4756    1.0000 </r>
       <r>    4.6345    0.0000 </r>
       <r>    5.2419    0.0000 </r>
       <r>    5.3959    0.0000 </r>
       <r>    5.7702    0.0000 </r>
       <r>    5.7769    0.0000 </r>
       <r>    6.2678    0.0000 </r>
       <r>    6.4422    0.0000 </r>
       <r>    6.4634    0.0000 </r>
       <r>    6.9456    0.0000 </r>
      </set>
      <set comment="kpoint 8">
       <r>  -58.5867    1.0000 </r>
       <r>  -58.4708    1.0000 </r>
       <r>  -58.1552    1.0000 </r>
       <r>  -58.0285    1.0000 </r>
       <r>  -33.3073    1.0000 </r>
       <r>  -32.6040    1.0000 </r>
       <r>  -31.8914    1.0000 </r>
       <r>  -31.8903    1.0000 </r>
       <r>  -31.8062    1.0000 </r>
       <r>  -31.8055    1.0000 </r>
       <r>  -31.5517    1.0000 </r>
       <r>  -31.5512    1.0000 </r>
       <r>  -31.4612    1.0000 </r>
       <r>  -31.4607    1.0000 </r>
       <r>  -31.1776    1.0000 </r>
       <r>  -30.3487    1.0000 </r>
       <r>   -5.4101    1.0000 </r>
       <r>   -4.9432    1.0000 </r>
       <r>   -2.7934    1.0000 </r>
       <r>   -2.6454    1.0000 </r>
       <r>   -1.3281    1.0000 </r>
       <r>   -0.9197    1.0000 </r>
       <r>    0.5232    1.0000 </r>
       <r>    0.7557    1.0000 </r>
       <r>    1.0871    1.0000 </r>
       <r>    1.1722    1.0000 </r>
       <r>    1.3627    1.0000 </r>
       <r>    1.4570    1.0000 </r>
       <r>    1.8065    1.0000 </r>
       <r>    2.3721    1.0000 </r>
       <r>    2.7699    1.0000 </r>
       <r>    3.1870    1.0000 </r>
       <r>    3.2884    1.0000 </r>
       <r>    3.4009    1.0000 </r>
       <r>    3.4946    1.0000 </r>
       <r>    3.6835    1.0000 </r>
       <r>    4.0816    1.0000 </r>
       <r>    4.4115    1.0000 </r>
       <r>    4.5527    0.8703 </r>
       <r>    4.6845    0.0000 </r>
       <r>    5.2228    0.0000 </r>
       <r>    5.3093    0.0000 </r>
       <r>    5.3715    0.0000 </r>
       <r>    5.7715    0.0000 </r>
       <r>    5.7887    0.0000 </r>
       <r>    6.0633    0.0000 </r>
       <r>    6.3774    0.0000 </r>
       <r>    6.5698    0.0000 </r>
      </set>
      <set comment="kpoint 9">
       <r>  -58.6060    1.0000 </r>
       <r>  -58.4287    1.0000 </r>
       <r>  -58.1996    1.0000 </r>
       <r>  -58.0069    1.0000 </r>
       <r>  -33.4162    1.0000 </r>
       <r>  -32.2786    1.0000 </r>
       <r>  -31.9054    1.0000 </r>
       <r>  -31.9045    1.0000 </r>
       <r>  -31.7772    1.0000 </r>
       <r>  -31.7766    1.0000 </r>
       <r>  -31.5822    1.0000 </r>
       <r>  -31.5817    1.0000 </r>
       <r>  -31.5302    1.0000 </r>
       <r>  -31.4454    1.0000 </r>
       <r>  -31.4451    1.0000 </r>
       <r>  -30.2114    1.0000 </r>
       <r>   -5.7392    1.0000 </r>
       <r>   -4.5569    1.0000 </r>
       <r>   -2.8908    1.0000 </r>
       <r>   -2.3958    1.0000 </r>
       <r>   -1.7352    1.0000 </r>
       <r>   -0.3373    1.0000 </r>
       <r>    0.2143    1.0000 </r>
       <r>    0.8090    1.0000 </r>
       <r>    0.8931    1.0000 </r>
       <r>    1.2141    1.0000 </r>
       <r>    1.2419    1.0000 </r>
       <r>    1.4274    1.0000 </r>
       <r>    1.7890    1.0000 </r>
       <r>    2.0909    1.0000 </r>
       <r>    3.1456    1.0000 </r>
       <r>    3.4418    1.0000 </r>
       <r>    3.4928    1.0000 </r>
       <r>    3.6625    1.0000 </r>
       <r>    3.7185    1.0000 </r>
       <r>    4.0150    1.0000 </r>
       <r>    4.2006    1.0000 </r>
       <r>    4.5602    0.7249 </r>
       <r>    4.6276    0.0000 </r>
       <r>    4.8650    0.0000 </r>
       <r>    4.8754    0.0000 </r>
       <r>    5.0329    0.0000 </r>
       <r>    5.0888    0.0000 </r>
       <r>    5.1686    0.0000 </r>
       <r>    5.5576    0.0000 </r>
       <r>    5.7354    0.0000 </r>
       <r>    5.9670    0.0000 </r>
       <r>    6.3048    0.0000 </r>
      </set>
      <set comment="kpoint 10">
       <r>  -58.6125    1.0000 </r>
       <r>  -58.4090    1.0000 </r>
       <r>  -58.2202    1.0000 </r>
       <r>  -57.9995    1.0000 </r>
       <r>  -33.4530    1.0000 </r>
       <r>  -32.0037    1.0000 </r>
       <r>  -31.9099    1.0000 </r>
       <r>  -31.9094    1.0000 </r>
       <r>  -31.8148    1.0000 </r>
       <r>  -31.7643    1.0000 </r>
       <r>  -31.7640    1.0000 </r>
       <r>  -31.5955    1.0000 </r>
       <r>  -31.5953    1.0000 </r>
       <r>  -31.4400    1.0000 </r>
       <r>  -31.4397    1.0000 </r>
       <r>  -30.1645    1.0000 </r>
       <r>   -5.9436    1.0000 </r>
       <r>   -4.2936    1.0000 </r>
       <r>   -2.7991    1.0000 </r>
       <r>   -2.1741    1.0000 </r>
       <r>   -2.1228    1.0000 </r>
       <r>    0.0674    1.0000 </r>
       <r>    0.2558    1.0000 </r>
       <r>    0.6351    1.0000 </r>
       <r>    0.9709    1.0000 </r>
       <r>    0.9782    1.0000 </r>
       <r>    1.2278    1.0000 </r>
       <r>    1.6594    1.0000 </r>
       <r>    1.6655    1.0000 </r>
       <r>    1.9502    1.0000 </r>
       <r>    2.9448    1.0000 </r>
       <r>    3.2386    1.0000 </r>
       <r>    3.2986    1.0000 </r>
       <r>    3.5134    1.0000 </r>
       <r>    4.1780    1.0000 </r>
       <r>    4.3741    1.0000 </r>
       <r>    4.5290    0.9975 </r>
       <r>    4.6259    0.0000 </r>
       <r>    4.7149    0.0000 </r>
       <r>    4.7173    0.0000 </r>
       <r>    4.8208    0.0000 </r>
       <r>    4.9376    0.0000 </r>
       <r>    5.0340    0.0000 </r>
       <r>    5.2112    0.0000 </r>
       <r>    5.3395    0.0000 </r>
       <r>    5.7847    0.0000 </r>
       <r>    5.9553    0.0000 </r>
       <r>    6.4093    0.0000 </r>
      </set>
      <set comment="kpoint 11">
       <r>  -58.5560    1.0000 </r>
       <r>  -58.5160    1.0000 </r>
       <r>  -58.1065    1.0000 </r>
       <r>  -58.0627    1.0000 </r>
       <r>  -33.1305    1.0000 </r>
       <r>  -32.8930    1.0000 </r>
       <r>  -31.8691    1.0000 </r>
       <r>  -31.8677    1.0000 </r>
       <r>  -31.8387    1.0000 </r>
       <r>  -31.8375    1.0000 </r>
       <r>  -31.5173    1.0000 </r>
       <r>  -31.5166    1.0000 </r>
       <r>  -31.4861    1.0000 </r>
       <r>  -31.4854    1.0000 </r>
       <r>  -30.8488    1.0000 </r>
       <r>  -30.5661    1.0000 </r>
       <r>   -5.4615    1.0000 </r>
       <r>   -4.6827    1.0000 </r>
       <r>   -3.3184    1.0000 </r>
       <r>   -2.6969    1.0000 </r>
       <r>   -1.2127    1.0000 </r>
       <r>    0.2031    1.0000 </r>
       <r>    0.4927    1.0000 </r>
       <r>    0.7624    1.0000 </r>
       <r>    0.9288    1.0000 </r>
       <r>    1.0495    1.0000 </r>
       <r>    1.0858    1.0000 </r>
       <r>    1.3001    1.0000 </r>
       <r>    1.7404    1.0000 </r>
       <r>    2.0055    1.0000 </r>
       <r>    2.4380    1.0000 </r>
       <r>    2.7081    1.0000 </r>
       <r>    3.0671    1.0000 </r>
       <r>    3.1880    1.0000 </r>
       <r>    3.9235    1.0000 </r>
       <r>    4.0435    1.0000 </r>
       <r>    4.0807    1.0000 </r>
       <r>    4.1185    1.0000 </r>
       <r>    4.5966    0.0244 </r>
       <r>    4.9100    0.0000 </r>
       <r>    5.2619    0.0000 </r>
       <r>    5.5989    0.0000 </r>
       <r>    5.7578    0.0000 </r>
       <r>    5.9002    0.0000 </r>
       <r>    5.9547    0.0000 </r>
       <r>    6.3669    0.0000 </r>
       <r>    6.7129    0.0000 </r>
       <r>    6.8150    0.0000 </r>
      </set>
      <set comment="kpoint 12">
       <r>  -58.5867    1.0000 </r>
       <r>  -58.4708    1.0000 </r>
       <r>  -58.1552    1.0000 </r>
       <r>  -58.0285    1.0000 </r>
       <r>  -33.3072    1.0000 </r>
       <r>  -32.6040    1.0000 </r>
       <r>  -31.8921    1.0000 </r>
       <r>  -31.8902    1.0000 </r>
       <r>  -31.8063    1.0000 </r>
       <r>  -31.8049    1.0000 </r>
       <r>  -31.5519    1.0000 </r>
       <r>  -31.5509    1.0000 </r>
       <r>  -31.4614    1.0000 </r>
       <r>  -31.4606    1.0000 </r>
       <r>  -31.1776    1.0000 </r>
       <r>  -30.3486    1.0000 </r>
       <r>   -5.1564    1.0000 </r>
       <r>   -4.9277    1.0000 </r>
       <r>   -3.3785    1.0000 </r>
       <r>   -3.0291    1.0000 </r>
       <r>   -0.7109    1.0000 </r>
       <r>   -0.1369    1.0000 </r>
       <r>    0.5264    1.0000 </r>
       <r>    0.5740    1.0000 </r>
       <r>    0.9417    1.0000 </r>
       <r>    1.0192    1.0000 </r>
       <r>    1.1293    1.0000 </r>
       <r>    1.2514    1.0000 </r>
       <r>    2.1742    1.0000 </r>
       <r>    2.2941    1.0000 </r>
       <r>    2.5449    1.0000 </r>
       <r>    2.6412    1.0000 </r>
       <r>    2.8519    1.0000 </r>
       <r>    3.3490    1.0000 </r>
       <r>    3.8052    1.0000 </r>
       <r>    3.9376    1.0000 </r>
       <r>    4.1312    1.0000 </r>
       <r>    4.4123    1.0000 </r>
       <r>    4.4655    1.0000 </r>
       <r>    4.8216    0.0000 </r>
       <r>    5.2164    0.0000 </r>
       <r>    5.4650    0.0000 </r>
       <r>    5.7174    0.0000 </r>
       <r>    5.9519    0.0000 </r>
       <r>    6.0513    0.0000 </r>
       <r>    6.2846    0.0000 </r>
       <r>    6.3621    0.0000 </r>
       <r>    6.6459    0.0000 </r>
      </set>
      <set comment="kpoint 13">
       <r>  -58.6060    1.0000 </r>
       <r>  -58.4287    1.0000 </r>
       <r>  -58.1996    1.0000 </r>
       <r>  -58.0069    1.0000 </r>
       <r>  -33.4161    1.0000 </r>
       <r>  -32.2787    1.0000 </r>
       <r>  -31.9063    1.0000 </r>
       <r>  -31.9044    1.0000 </r>
       <r>  -31.7773    1.0000 </r>
       <r>  -31.7759    1.0000 </r>
       <r>  -31.5824    1.0000 </r>
       <r>  -31.5812    1.0000 </r>
       <r>  -31.5303    1.0000 </r>
       <r>  -31.4457    1.0000 </r>
       <r>  -31.4450    1.0000 </r>
       <r>  -30.2114    1.0000 </r>
       <r>   -5.2665    1.0000 </r>
       <r>   -4.8343    1.0000 </r>
       <r>   -3.2401    1.0000 </r>
       <r>   -3.1540    1.0000 </r>
       <r>   -0.6255    1.0000 </r>
       <r>   -0.2473    1.0000 </r>
       <r>    0.2132    1.0000 </r>
       <r>    0.5203    1.0000 </r>
       <r>    0.8565    1.0000 </r>
       <r>    1.1625    1.0000 </r>
       <r>    1.2489    1.0000 </r>
       <r>    1.2632    1.0000 </r>
       <r>    2.1662    1.0000 </r>
       <r>    2.4603    1.0000 </r>
       <r>    2.4959    1.0000 </r>
       <r>    2.7396    1.0000 </r>
       <r>    3.6347    1.0000 </r>
       <r>    3.8021    1.0000 </r>
       <r>    3.8042    1.0000 </r>
       <r>    3.8718    1.0000 </r>
       <r>    4.0134    1.0000 </r>
       <r>    4.4165    1.0000 </r>
       <r>    4.7012    0.0000 </r>
       <r>    4.7689    0.0000 </r>
       <r>    4.9502    0.0000 </r>
       <r>    5.3169    0.0000 </r>
       <r>    5.4657    0.0000 </r>
       <r>    5.6428    0.0000 </r>
       <r>    5.8098    0.0000 </r>
       <r>    5.8790    0.0000 </r>
       <r>    6.1143    0.0000 </r>
       <r>    6.1345    0.0000 </r>
      </set>
      <set comment="kpoint 14">
       <r>  -58.6125    1.0000 </r>
       <r>  -58.4090    1.0000 </r>
       <r>  -58.2201    1.0000 </r>
       <r>  -57.9995    1.0000 </r>
       <r>  -33.4529    1.0000 </r>
       <r>  -32.0037    1.0000 </r>
       <r>  -31.9108    1.0000 </r>
       <r>  -31.9093    1.0000 </r>
       <r>  -31.8150    1.0000 </r>
       <r>  -31.7644    1.0000 </r>
       <r>  -31.7634    1.0000 </r>
       <r>  -31.5957    1.0000 </r>
       <r>  -31.5948    1.0000 </r>
       <r>  -31.4403    1.0000 </r>
       <r>  -31.4397    1.0000 </r>
       <r>  -30.1645    1.0000 </r>
       <r>   -5.5601    1.0000 </r>
       <r>   -4.6132    1.0000 </r>
       <r>   -3.2109    1.0000 </r>
       <r>   -2.7858    1.0000 </r>
       <r>   -1.1580    1.0000 </r>
       <r>    0.0358    1.0000 </r>
       <r>    0.1689    1.0000 </r>
       <r>    0.4391    1.0000 </r>
       <r>    0.6135    1.0000 </r>
       <r>    1.2066    1.0000 </r>
       <r>    1.2434    1.0000 </r>
       <r>    1.3585    1.0000 </r>
       <r>    2.1378    1.0000 </r>
       <r>    2.2508    1.0000 </r>
       <r>    3.0102    1.0000 </r>
       <r>    3.2224    1.0000 </r>
       <r>    3.6478    1.0000 </r>
       <r>    3.7783    1.0000 </r>
       <r>    3.8432    1.0000 </r>
       <r>    4.1626    1.0000 </r>
       <r>    4.3923    1.0000 </r>
       <r>    4.5211    0.9996 </r>
       <r>    4.6438    0.0000 </r>
       <r>    4.6464    0.0000 </r>
       <r>    4.9519    0.0000 </r>
       <r>    5.0362    0.0000 </r>
       <r>    5.1070    0.0000 </r>
       <r>    5.1644    0.0000 </r>
       <r>    5.5422    0.0000 </r>
       <r>    5.6070    0.0000 </r>
       <r>    5.9645    0.0000 </r>
       <r>    6.2067    0.0000 </r>
      </set>
      <set comment="kpoint 15">
       <r>  -58.6060    1.0000 </r>
       <r>  -58.4287    1.0000 </r>
       <r>  -58.1996    1.0000 </r>
       <r>  -58.0069    1.0000 </r>
       <r>  -33.4160    1.0000 </r>
       <r>  -32.2788    1.0000 </r>
       <r>  -31.9067    1.0000 </r>
       <r>  -31.9044    1.0000 </r>
       <r>  -31.7773    1.0000 </r>
       <r>  -31.7756    1.0000 </r>
       <r>  -31.5825    1.0000 </r>
       <r>  -31.5810    1.0000 </r>
       <r>  -31.5304    1.0000 </r>
       <r>  -31.4458    1.0000 </r>
       <r>  -31.4449    1.0000 </r>
       <r>  -30.2114    1.0000 </r>
       <r>   -4.9336    1.0000 </r>
       <r>   -4.8978    1.0000 </r>
       <r>   -3.6701    1.0000 </r>
       <r>   -3.3712    1.0000 </r>
       <r>   -0.0773    1.0000 </r>
       <r>    0.2122    1.0000 </r>
       <r>    0.4128    1.0000 </r>
       <r>    0.4604    1.0000 </r>
       <r>    0.8203    1.0000 </r>
       <r>    1.0676    1.0000 </r>
       <r>    1.0861    1.0000 </r>
       <r>    1.2561    1.0000 </r>
       <r>    1.7036    1.0000 </r>
       <r>    1.7343    1.0000 </r>
       <r>    2.4575    1.0000 </r>
       <r>    2.6567    1.0000 </r>
       <r>    3.6194    1.0000 </r>
       <r>    3.7351    1.0000 </r>
       <r>    3.9475    1.0000 </r>
       <r>    4.2451    1.0000 </r>
       <r>    4.3175    1.0000 </r>
       <r>    4.3371    1.0000 </r>
       <r>    4.6273    0.0000 </r>
       <r>    4.9312    0.0000 </r>
       <r>    5.0216    0.0000 </r>
       <r>    5.1236    0.0000 </r>
       <r>    5.3920    0.0000 </r>
       <r>    5.5817    0.0000 </r>
       <r>    6.0514    0.0000 </r>
       <r>    6.0557    0.0000 </r>
       <r>    6.3383    0.0000 </r>
       <r>    6.5145    0.0000 </r>
      </set>
      <set comment="kpoint 16">
       <r>  -58.6125    1.0000 </r>
       <r>  -58.4091    1.0000 </r>
       <r>  -58.2201    1.0000 </r>
       <r>  -57.9995    1.0000 </r>
       <r>  -33.4528    1.0000 </r>
       <r>  -32.0038    1.0000 </r>
       <r>  -31.9116    1.0000 </r>
       <r>  -31.9092    1.0000 </r>
       <r>  -31.8151    1.0000 </r>
       <r>  -31.7644    1.0000 </r>
       <r>  -31.7628    1.0000 </r>
       <r>  -31.5959    1.0000 </r>
       <r>  -31.5944    1.0000 </r>
       <r>  -31.4405    1.0000 </r>
       <r>  -31.4396    1.0000 </r>
       <r>  -30.1645    1.0000 </r>
       <r>   -5.0495    1.0000 </r>
       <r>   -4.7965    1.0000 </r>
       <r>   -3.5563    1.0000 </r>
       <r>   -3.4714    1.0000 </r>
       <r>    0.0433    1.0000 </r>
       <r>    0.1014    1.0000 </r>
       <r>    0.3026    1.0000 </r>
       <r>    0.3968    1.0000 </r>
       <r>    0.6911    1.0000 </r>
       <r>    1.1811    1.0000 </r>
       <r>    1.2331    1.0000 </r>
       <r>    1.2561    1.0000 </r>
       <r>    1.7237    1.0000 </r>
       <r>    1.7464    1.0000 </r>
       <r>    2.3474    1.0000 </r>
       <r>    2.7554    1.0000 </r>
       <r>    3.6873    1.0000 </r>
       <r>    4.1530    1.0000 </r>
       <r>    4.2264    1.0000 </r>
       <r>    4.3289    1.0000 </r>
       <r>    4.4602    1.0000 </r>
       <r>    4.4961    1.0000 </r>
       <r>    4.6742    0.0000 </r>
       <r>    4.7163    0.0000 </r>
       <r>    4.7497    0.0000 </r>
       <r>    4.9713    0.0000 </r>
       <r>    5.1105    0.0000 </r>
       <r>    5.4405    0.0000 </r>
       <r>    5.7854    0.0000 </r>
       <r>    5.8919    0.0000 </r>
       <r>    6.2906    0.0000 </r>
       <r>    6.4140    0.0000 </r>
      </set>
      <set comment="kpoint 17">
       <r>  -58.6125    1.0000 </r>
       <r>  -58.4090    1.0000 </r>
       <r>  -58.2202    1.0000 </r>
       <r>  -57.9995    1.0000 </r>
       <r>  -33.4530    1.0000 </r>
       <r>  -32.0037    1.0000 </r>
       <r>  -31.9098    1.0000 </r>
       <r>  -31.9095    1.0000 </r>
       <r>  -31.8148    1.0000 </r>
       <r>  -31.7644    1.0000 </r>
       <r>  -31.7641    1.0000 </r>
       <r>  -31.5956    1.0000 </r>
       <r>  -31.5953    1.0000 </r>
       <r>  -31.4399    1.0000 </r>
       <r>  -31.4398    1.0000 </r>
       <r>  -30.1645    1.0000 </r>
       <r>   -5.9749    1.0000 </r>
       <r>   -4.2516    1.0000 </r>
       <r>   -2.7501    1.0000 </r>
       <r>   -2.2157    1.0000 </r>
       <r>   -2.1333    1.0000 </r>
       <r>    0.0773    1.0000 </r>
       <r>    0.3165    1.0000 </r>
       <r>    0.6565    1.0000 </r>
       <r>    0.9157    1.0000 </r>
       <r>    1.0250    1.0000 </r>
       <r>    1.2262    1.0000 </r>
       <r>    1.6237    1.0000 </r>
       <r>    1.7059    1.0000 </r>
       <r>    1.9342    1.0000 </r>
       <r>    2.8726    1.0000 </r>
       <r>    3.1593    1.0000 </r>
       <r>    3.1778    1.0000 </r>
       <r>    3.4807    1.0000 </r>
       <r>    4.2080    1.0000 </r>
       <r>    4.3504    1.0000 </r>
       <r>    4.5330    0.9942 </r>
       <r>    4.6181    0.0002 </r>
       <r>    4.6915    0.0000 </r>
       <r>    4.7497    0.0000 </r>
       <r>    4.8877    0.0000 </r>
       <r>    4.9338    0.0000 </r>
       <r>    5.1571    0.0000 </r>
       <r>    5.2666    0.0000 </r>
       <r>    5.4168    0.0000 </r>
       <r>    5.7949    0.0000 </r>
       <r>    5.8432    0.0000 </r>
       <r>    6.3475    0.0000 </r>
      </set>
      <set comment="kpoint 18">
       <r>  -58.6060    1.0000 </r>
       <r>  -58.4287    1.0000 </r>
       <r>  -58.1996    1.0000 </r>
       <r>  -58.0069    1.0000 </r>
       <r>  -33.4162    1.0000 </r>
       <r>  -32.2786    1.0000 </r>
       <r>  -31.9052    1.0000 </r>
       <r>  -31.9046    1.0000 </r>
       <r>  -31.7772    1.0000 </r>
       <r>  -31.7767    1.0000 </r>
       <r>  -31.5822    1.0000 </r>
       <r>  -31.5817    1.0000 </r>
       <r>  -31.5302    1.0000 </r>
       <r>  -31.4453    1.0000 </r>
       <r>  -31.4451    1.0000 </r>
       <r>  -30.2114    1.0000 </r>
       <r>   -5.7854    1.0000 </r>
       <r>   -4.5132    1.0000 </r>
       <r>   -2.8389    1.0000 </r>
       <r>   -2.3257    1.0000 </r>
       <r>   -1.8548    1.0000 </r>
       <r>   -0.3047    1.0000 </r>
       <r>    0.2146    1.0000 </r>
       <r>    0.8458    1.0000 </r>
       <r>    0.9120    1.0000 </r>
       <r>    1.1895    1.0000 </r>
       <r>    1.2422    1.0000 </r>
       <r>    1.4598    1.0000 </r>
       <r>    1.7406    1.0000 </r>
       <r>    2.0329    1.0000 </r>
       <r>    3.0656    1.0000 </r>
       <r>    3.3985    1.0000 </r>
       <r>    3.4477    1.0000 </r>
       <r>    3.6628    1.0000 </r>
       <r>    3.7856    1.0000 </r>
       <r>    4.1214    1.0000 </r>
       <r>    4.2516    1.0000 </r>
       <r>    4.6085    0.0024 </r>
       <r>    4.6193    0.0002 </r>
       <r>    4.8284    0.0000 </r>
       <r>    4.8476    0.0000 </r>
       <r>    5.0295    0.0000 </r>
       <r>    5.1126    0.0000 </r>
       <r>    5.1169    0.0000 </r>
       <r>    5.5653    0.0000 </r>
       <r>    5.8053    0.0000 </r>
       <r>    5.9997    0.0000 </r>
       <r>    6.4899    0.0000 </r>
      </set>
      <set comment="kpoint 19">
       <r>  -58.5867    1.0000 </r>
       <r>  -58.4708    1.0000 </r>
       <r>  -58.1552    1.0000 </r>
       <r>  -58.0285    1.0000 </r>
       <r>  -33.3073    1.0000 </r>
       <r>  -32.6039    1.0000 </r>
       <r>  -31.8912    1.0000 </r>
       <r>  -31.8904    1.0000 </r>
       <r>  -31.8063    1.0000 </r>
       <r>  -31.8055    1.0000 </r>
       <r>  -31.5518    1.0000 </r>
       <r>  -31.5512    1.0000 </r>
       <r>  -31.4611    1.0000 </r>
       <r>  -31.4608    1.0000 </r>
       <r>  -31.1776    1.0000 </r>
       <r>  -30.3487    1.0000 </r>
       <r>   -5.4672    1.0000 </r>
       <r>   -4.9033    1.0000 </r>
       <r>   -2.7511    1.0000 </r>
       <r>   -2.5557    1.0000 </r>
       <r>   -1.4649    1.0000 </r>
       <r>   -0.9222    1.0000 </r>
       <r>    0.5230    1.0000 </r>
       <r>    0.7902    1.0000 </r>
       <r>    1.1042    1.0000 </r>
       <r>    1.1631    1.0000 </r>
       <r>    1.3837    1.0000 </r>
       <r>    1.4793    1.0000 </r>
       <r>    1.7682    1.0000 </r>
       <r>    2.3087    1.0000 </r>
       <r>    2.7468    1.0000 </r>
       <r>    3.1782    1.0000 </r>
       <r>    3.2547    1.0000 </r>
       <r>    3.4418    1.0000 </r>
       <r>    3.5789    1.0000 </r>
       <r>    3.7989    1.0000 </r>
       <r>    4.0940    1.0000 </r>
       <r>    4.4175    1.0000 </r>
       <r>    4.5404    0.9772 </r>
       <r>    4.6940    0.0000 </r>
       <r>    5.1855    0.0000 </r>
       <r>    5.2539    0.0000 </r>
       <r>    5.3044    0.0000 </r>
       <r>    5.7308    0.0000 </r>
       <r>    5.7473    0.0000 </r>
       <r>    5.9946    0.0000 </r>
       <r>    6.4216    0.0000 </r>
       <r>    6.4776    0.0000 </r>
      </set>
      <set comment="kpoint 20">
       <r>  -58.5560    1.0000 </r>
       <r>  -58.5160    1.0000 </r>
       <r>  -58.1065    1.0000 </r>
       <r>  -58.0627    1.0000 </r>
       <r>  -33.1305    1.0000 </r>
       <r>  -32.8929    1.0000 </r>
       <r>  -31.8686    1.0000 </r>
       <r>  -31.8678    1.0000 </r>
       <r>  -31.8387    1.0000 </r>
       <r>  -31.8379    1.0000 </r>
       <r>  -31.5172    1.0000 </r>
       <r>  -31.5167    1.0000 </r>
       <r>  -31.4858    1.0000 </r>
       <r>  -31.4855    1.0000 </r>
       <r>  -30.8488    1.0000 </r>
       <r>  -30.5661    1.0000 </r>
       <r>   -5.3126    1.0000 </r>
       <r>   -5.0618    1.0000 </r>
       <r>   -2.7601    1.0000 </r>
       <r>   -2.5631    1.0000 </r>
       <r>   -1.4104    1.0000 </r>
       <r>   -0.9974    1.0000 </r>
       <r>    0.8084    1.0000 </r>
       <r>    0.9538    1.0000 </r>
       <r>    1.0599    1.0000 </r>
       <r>    1.2521    1.0000 </r>
       <r>    1.3250    1.0000 </r>
       <r>    1.5153    1.0000 </r>
       <r>    1.7639    1.0000 </r>
       <r>    1.7827    1.0000 </r>
       <r>    2.6469    1.0000 </r>
       <r>    2.7229    1.0000 </r>
       <r>    3.3191    1.0000 </r>
       <r>    3.3972    1.0000 </r>
       <r>    3.5613    1.0000 </r>
       <r>    3.7129    1.0000 </r>
       <r>    4.2072    1.0000 </r>
       <r>    4.3975    1.0000 </r>
       <r>    4.4535    1.0000 </r>
       <r>    4.5955    0.0292 </r>
       <r>    5.1653    0.0000 </r>
       <r>    5.3065    0.0000 </r>
       <r>    5.7833    0.0000 </r>
       <r>    5.8347    0.0000 </r>
       <r>    6.2337    0.0000 </r>
       <r>    6.4181    0.0000 </r>
       <r>    6.5021    0.0000 </r>
       <r>    6.9666    0.0000 </r>
      </set>
      <set comment="kpoint 21">
       <r>  -58.5560    1.0000 </r>
       <r>  -58.5160    1.0000 </r>
       <r>  -58.1065    1.0000 </r>
       <r>  -58.0627    1.0000 </r>
       <r>  -33.1307    1.0000 </r>
       <r>  -32.8927    1.0000 </r>
       <r>  -31.8679    1.0000 </r>
       <r>  -31.8672    1.0000 </r>
       <r>  -31.8392    1.0000 </r>
       <r>  -31.8386    1.0000 </r>
       <r>  -31.5173    1.0000 </r>
       <r>  -31.5170    1.0000 </r>
       <r>  -31.4857    1.0000 </r>
       <r>  -31.4853    1.0000 </r>
       <r>  -30.8486    1.0000 </r>
       <r>  -30.5662    1.0000 </r>
       <r>   -5.6637    1.0000 </r>
       <r>   -4.6436    1.0000 </r>
[...]
       <r>  -58.0069    1.0000 </r>
       <r>  -33.4157    1.0000 </r>
       <r>  -32.2790    1.0000 </r>
       <r>  -31.9065    1.0000 </r>
       <r>  -31.9063    1.0000 </r>
       <r>  -31.7758    1.0000 </r>
       <r>  -31.7757    1.0000 </r>
       <r>  -31.5814    1.0000 </r>
       <r>  -31.5814    1.0000 </r>
       <r>  -31.5306    1.0000 </r>
       <r>  -31.4456    1.0000 </r>
       <r>  -31.4455    1.0000 </r>
       <r>  -30.2113    1.0000 </r>
       <r>   -5.8644    1.0000 </r>
       <r>   -4.2702    1.0000 </r>
       <r>   -2.6857    1.0000 </r>
       <r>   -2.4844    1.0000 </r>
       <r>   -1.8956    1.0000 </r>
       <r>    0.1893    1.0000 </r>
       <r>    0.5266    1.0000 </r>
       <r>    0.5582    1.0000 </r>
       <r>    0.5872    1.0000 </r>
       <r>    0.6377    1.0000 </r>
       <r>    0.6486    1.0000 </r>
       <r>    0.7126    1.0000 </r>
       <r>    1.4294    1.0000 </r>
       <r>    2.7276    1.0000 </r>
       <r>    3.0574    1.0000 </r>
       <r>    3.0987    1.0000 </r>
       <r>    3.5006    1.0000 </r>
       <r>    3.6415    1.0000 </r>
       <r>    3.8439    1.0000 </r>
       <r>    4.0931    1.0000 </r>
       <r>    4.3181    1.0000 </r>
       <r>    4.3873    1.0000 </r>
       <r>    4.6459    0.0000 </r>
       <r>    4.9460    0.0000 </r>
       <r>    5.1360    0.0000 </r>
       <r>    5.4142    0.0000 </r>
       <r>    5.4999    0.0000 </r>
       <r>    6.0136    0.0000 </r>
       <r>    6.4465    0.0000 </r>
       <r>    6.4816    0.0000 </r>
       <r>    6.8697    0.0000 </r>
       <r>    6.8932    0.0000 </r>
      </set>
      <set comment="kpoint 116">
       <r>  -58.6125    1.0000 </r>
       <r>  -58.4091    1.0000 </r>
       <r>  -58.2201    1.0000 </r>
       <r>  -57.9995    1.0000 </r>
       <r>  -33.4524    1.0000 </r>
       <r>  -32.0039    1.0000 </r>
       <r>  -31.9113    1.0000 </r>
       <r>  -31.9113    1.0000 </r>
       <r>  -31.8154    1.0000 </r>
       <r>  -31.7629    1.0000 </r>
       <r>  -31.7628    1.0000 </r>
       <r>  -31.5948    1.0000 </r>
       <r>  -31.5946    1.0000 </r>
       <r>  -31.4402    1.0000 </r>
       <r>  -31.4402    1.0000 </r>
       <r>  -30.1644    1.0000 </r>
       <r>   -5.8545    1.0000 </r>
       <r>   -4.2767    1.0000 </r>
       <r>   -2.6886    1.0000 </r>
       <r>   -2.4864    1.0000 </r>
       <r>   -1.8867    1.0000 </r>
       <r>    0.0788    1.0000 </r>
       <r>    0.5329    1.0000 </r>
       <r>    0.5420    1.0000 </r>
       <r>    0.5607    1.0000 </r>
       <r>    0.5787    1.0000 </r>
       <r>    0.6495    1.0000 </r>
       <r>    0.6515    1.0000 </r>
       <r>    1.4221    1.0000 </r>
       <r>    2.8089    1.0000 </r>
       <r>    3.2014    1.0000 </r>
       <r>    3.5191    1.0000 </r>
       <r>    3.5981    1.0000 </r>
       <r>    3.6838    1.0000 </r>
       <r>    3.9087    1.0000 </r>
       <r>    4.1507    1.0000 </r>
       <r>    4.2490    1.0000 </r>
       <r>    4.4350    1.0000 </r>
       <r>    4.5381    0.9848 </r>
       <r>    4.8119    0.0000 </r>
       <r>    5.1559    0.0000 </r>
       <r>    5.1560    0.0000 </r>
       <r>    5.1988    0.0000 </r>
       <r>    6.0113    0.0000 </r>
       <r>    6.4396    0.0000 </r>
       <r>    6.8238    0.0000 </r>
       <r>    6.8828    0.0000 </r>
       <r>    6.9679    0.0000 </r>
      </set>
     </set>
    </set>
   </array>
  </eigenvalues>
  <separator name="orbital magnetization" >
   <v name="MAGDIPOLOUT">      0.00000000      0.00000000      0.00000000</v>
  </separator>
  <dos>
   <i name="efermi">      4.56868824 </i>
   <total>
    <array>
     <dimension dim="1">gridpoints</dimension>
     <dimension dim="2">spin</dimension>
     <field>energy</field>
     <field>total</field>
     <field>integrated</field>
     <set>
      <set comment="spin 1">
       <r>   -61.9024     0.0000     0.0000 </r>
       <r>   -61.6612     0.0000     0.0000 </r>
       <r>   -61.4199     0.0000     0.0000 </r>
       <r>   -61.1787     0.0000     0.0000 </r>
       <r>   -60.9374     0.0000     0.0000 </r>
       <r>   -60.6961     0.0000     0.0000 </r>
       <r>   -60.4549     0.0000     0.0000 </r>
       <r>   -60.2136     0.0000     0.0000 </r>
       <r>   -59.9724     0.0000     0.0000 </r>
       <r>   -59.7311     0.0000     0.0000 </r>
       <r>   -59.4898     0.0000     0.0000 </r>
       <r>   -59.2486     0.0000     0.0000 </r>
       <r>   -59.0073     0.0000     0.0000 </r>
       <r>   -58.7660     0.0000     0.0000 </r>
       <r>   -58.5248     8.8909     2.1450 </r>
       <r>   -58.2835     3.5528     4.0000 </r>
       <r>   -58.0423     9.7045     6.6270 </r>
       <r>   -57.8010     0.0000     8.0000 </r>
       <r>   -57.5597     0.0000     8.0000 </r>
       <r>   -57.3185     0.0000     8.0000 </r>
       <r>   -57.0772     0.0000     8.0000 </r>
       <r>   -56.8360     0.0000     8.0000 </r>
       <r>   -56.5947     0.0000     8.0000 </r>
       <r>   -56.3534     0.0000     8.0000 </r>
       <r>   -56.1122     0.0000     8.0000 </r>
       <r>   -55.8709     0.0000     8.0000 </r>
       <r>   -55.6297     0.0000     8.0000 </r>
       <r>   -55.3884     0.0000     8.0000 </r>
       <r>   -55.1471     0.0000     8.0000 </r>
       <r>   -54.9059     0.0000     8.0000 </r>
       <r>   -54.6646     0.0000     8.0000 </r>
       <r>   -54.4233     0.0000     8.0000 </r>
       <r>   -54.1821     0.0000     8.0000 </r>
       <r>   -53.9408     0.0000     8.0000 </r>
       <r>   -53.6996     0.0000     8.0000 </r>
       <r>   -53.4583     0.0000     8.0000 </r>
       <r>   -53.2170     0.0000     8.0000 </r>
       <r>   -52.9758     0.0000     8.0000 </r>
       <r>   -52.7345     0.0000     8.0000 </r>
       <r>   -52.4933     0.0000     8.0000 </r>
       <r>   -52.2520     0.0000     8.0000 </r>
       <r>   -52.0107     0.0000     8.0000 </r>
       <r>   -51.7695     0.0000     8.0000 </r>
       <r>   -51.5282     0.0000     8.0000 </r>
       <r>   -51.2870     0.0000     8.0000 </r>
       <r>   -51.0457     0.0000     8.0000 </r>
       <r>   -50.8044     0.0000     8.0000 </r>
       <r>   -50.5632     0.0000     8.0000 </r>
       <r>   -50.3219     0.0000     8.0000 </r>
       <r>   -50.0807     0.0000     8.0000 </r>
       <r>   -49.8394     0.0000     8.0000 </r>
       <r>   -49.5981     0.0000     8.0000 </r>
       <r>   -49.3569     0.0000     8.0000 </r>
       <r>   -49.1156     0.0000     8.0000 </r>
       <r>   -48.8743     0.0000     8.0000 </r>
       <r>   -48.6331     0.0000     8.0000 </r>
       <r>   -48.3918     0.0000     8.0000 </r>
       <r>   -48.1506     0.0000     8.0000 </r>
       <r>   -47.9093     0.0000     8.0000 </r>
       <r>   -47.6680     0.0000     8.0000 </r>
       <r>   -47.4268     0.0000     8.0000 </r>
       <r>   -47.1855     0.0000     8.0000 </r>
       <r>   -46.9443     0.0000     8.0000 </r>
       <r>   -46.7030     0.0000     8.0000 </r>
       <r>   -46.4617     0.0000     8.0000 </r>
       <r>   -46.2205     0.0000     8.0000 </r>
       <r>   -45.9792     0.0000     8.0000 </r>
       <r>   -45.7380     0.0000     8.0000 </r>
       <r>   -45.4967     0.0000     8.0000 </r>
       <r>   -45.2554     0.0000     8.0000 </r>
       <r>   -45.0142     0.0000     8.0000 </r>
       <r>   -44.7729     0.0000     8.0000 </r>
       <r>   -44.5316     0.0000     8.0000 </r>
       <r>   -44.2904     0.0000     8.0000 </r>
       <r>   -44.0491     0.0000     8.0000 </r>
       <r>   -43.8079     0.0000     8.0000 </r>
       <r>   -43.5666     0.0000     8.0000 </r>
       <r>   -43.3253     0.0000     8.0000 </r>
       <r>   -43.0841     0.0000     8.0000 </r>
       <r>   -42.8428     0.0000     8.0000 </r>
       <r>   -42.6016     0.0000     8.0000 </r>
       <r>   -42.3603     0.0000     8.0000 </r>
       <r>   -42.1190     0.0000     8.0000 </r>
       <r>   -41.8778     0.0000     8.0000 </r>
       <r>   -41.6365     0.0000     8.0000 </r>
       <r>   -41.3953     0.0000     8.0000 </r>
       <r>   -41.1540     0.0000     8.0000 </r>
       <r>   -40.9127     0.0000     8.0000 </r>
       <r>   -40.6715     0.0000     8.0000 </r>
       <r>   -40.4302     0.0000     8.0000 </r>
       <r>   -40.1889     0.0000     8.0000 </r>
       <r>   -39.9477     0.0000     8.0000 </r>
       <r>   -39.7064     0.0000     8.0000 </r>
       <r>   -39.4652     0.0000     8.0000 </r>
       <r>   -39.2239     0.0000     8.0000 </r>
       <r>   -38.9826     0.0000     8.0000 </r>
       <r>   -38.7414     0.0000     8.0000 </r>
       <r>   -38.5001     0.0000     8.0000 </r>
       <r>   -38.2589     0.0000     8.0000 </r>
       <r>   -38.0176     0.0000     8.0000 </r>
       <r>   -37.7763     0.0000     8.0000 </r>
       <r>   -37.5351     0.0000     8.0000 </r>
       <r>   -37.2938     0.0000     8.0000 </r>
       <r>   -37.0526     0.0000     8.0000 </r>
       <r>   -36.8113     0.0000     8.0000 </r>
       <r>   -36.5700     0.0000     8.0000 </r>
       <r>   -36.3288     0.0000     8.0000 </r>
       <r>   -36.0875     0.0000     8.0000 </r>
       <r>   -35.8463     0.0000     8.0000 </r>
       <r>   -35.6050     0.0000     8.0000 </r>
       <r>   -35.3637     0.0000     8.0000 </r>
       <r>   -35.1225     0.0000     8.0000 </r>
       <r>   -34.8812     0.0000     8.0000 </r>
       <r>   -34.6399     0.0000     8.0000 </r>
       <r>   -34.3987     0.0000     8.0000 </r>
       <r>   -34.1574     0.0000     8.0000 </r>
       <r>   -33.9162     0.0000     8.0000 </r>
       <r>   -33.6749     0.0000     8.0000 </r>
       <r>   -33.4336     1.3322     8.3214 </r>
       <r>   -33.1924     2.3685     9.4286 </r>
       <r>   -32.9511     0.0000    10.0000 </r>
       <r>   -32.7099     0.0000    10.5714 </r>
       <r>   -32.4686     2.3685    11.1429 </r>
       <r>   -32.2273     2.3682    11.7142 </r>
       <r>   -31.9861     1.0596    11.9699 </r>
       <r>   -31.7448    28.2273    20.2183 </r>
       <r>   -31.5036    18.5603    24.7636 </r>
       <r>   -31.2623     0.0000    28.8571 </r>
       <r>   -31.0210     2.3685    29.4286 </r>
       <r>   -30.7798     2.3685    30.0000 </r>
       <r>   -30.5385     2.3085    30.5570 </r>
       <r>   -30.2972     2.3682    31.1428 </r>
       <r>   -30.0560     3.5528    32.0000 </r>
       <r>   -29.8147     0.0000    32.0000 </r>
       <r>   -29.5735     0.0000    32.0000 </r>
       <r>   -29.3322     0.0000    32.0000 </r>
       <r>   -29.0909     0.0000    32.0000 </r>
       <r>   -28.8497     0.0000    32.0000 </r>
       <r>   -28.6084     0.0000    32.0000 </r>
       <r>   -28.3672     0.0000    32.0000 </r>
       <r>   -28.1259     0.0000    32.0000 </r>
       <r>   -27.8846     0.0000    32.0000 </r>
       <r>   -27.6434     0.0000    32.0000 </r>
       <r>   -27.4021     0.0000    32.0000 </r>
       <r>   -27.1609     0.0000    32.0000 </r>
       <r>   -26.9196     0.0000    32.0000 </r>
       <r>   -26.6783     0.0000    32.0000 </r>
       <r>   -26.4371     0.0000    32.0000 </r>
       <r>   -26.1958     0.0000    32.0000 </r>
       <r>   -25.9545     0.0000    32.0000 </r>
       <r>   -25.7133     0.0000    32.0000 </r>
       <r>   -25.4720     0.0000    32.0000 </r>
       <r>   -25.2308     0.0000    32.0000 </r>
       <r>   -24.9895     0.0000    32.0000 </r>
       <r>   -24.7482     0.0000    32.0000 </r>
       <r>   -24.5070     0.0000    32.0000 </r>
       <r>   -24.2657     0.0000    32.0000 </r>
       <r>   -24.0245     0.0000    32.0000 </r>
       <r>   -23.7832     0.0000    32.0000 </r>
       <r>   -23.5419     0.0000    32.0000 </r>
       <r>   -23.3007     0.0000    32.0000 </r>
       <r>   -23.0594     0.0000    32.0000 </r>
       <r>   -22.8182     0.0000    32.0000 </r>
       <r>   -22.5769     0.0000    32.0000 </r>
       <r>   -22.3356     0.0000    32.0000 </r>
       <r>   -22.0944     0.0000    32.0000 </r>
       <r>   -21.8531     0.0000    32.0000 </r>
       <r>   -21.6119     0.0000    32.0000 </r>
       <r>   -21.3706     0.0000    32.0000 </r>
       <r>   -21.1293     0.0000    32.0000 </r>
       <r>   -20.8881     0.0000    32.0000 </r>
       <r>   -20.6468     0.0000    32.0000 </r>
       <r>   -20.4055     0.0000    32.0000 </r>
       <r>   -20.1643     0.0000    32.0000 </r>
       <r>   -19.9230     0.0000    32.0000 </r>
       <r>   -19.6818     0.0000    32.0000 </r>
       <r>   -19.4405     0.0000    32.0000 </r>
       <r>   -19.1992     0.0000    32.0000 </r>
       <r>   -18.9580     0.0000    32.0000 </r>
       <r>   -18.7167     0.0000    32.0000 </r>
       <r>   -18.4755     0.0000    32.0000 </r>
       <r>   -18.2342     0.0000    32.0000 </r>
       <r>   -17.9929     0.0000    32.0000 </r>
       <r>   -17.7517     0.0000    32.0000 </r>
       <r>   -17.5104     0.0000    32.0000 </r>
       <r>   -17.2692     0.0000    32.0000 </r>
       <r>   -17.0279     0.0000    32.0000 </r>
       <r>   -16.7866     0.0000    32.0000 </r>
       <r>   -16.5454     0.0000    32.0000 </r>
       <r>   -16.3041     0.0000    32.0000 </r>
       <r>   -16.0628     0.0000    32.0000 </r>
       <r>   -15.8216     0.0000    32.0000 </r>
       <r>   -15.5803     0.0000    32.0000 </r>
       <r>   -15.3391     0.0000    32.0000 </r>
       <r>   -15.0978     0.0000    32.0000 </r>
       <r>   -14.8565     0.0000    32.0000 </r>
       <r>   -14.6153     0.0000    32.0000 </r>
       <r>   -14.3740     0.0000    32.0000 </r>
       <r>   -14.1328     0.0000    32.0000 </r>
       <r>   -13.8915     0.0000    32.0000 </r>
       <r>   -13.6502     0.0000    32.0000 </r>
       <r>   -13.4090     0.0000    32.0000 </r>
       <r>   -13.1677     0.0000    32.0000 </r>
       <r>   -12.9265     0.0000    32.0000 </r>
       <r>   -12.6852     0.0000    32.0000 </r>
       <r>   -12.4439     0.0000    32.0000 </r>
       <r>   -12.2027     0.0000    32.0000 </r>
       <r>   -11.9614     0.0000    32.0000 </r>
       <r>   -11.7201     0.0000    32.0000 </r>
       <r>   -11.4789     0.0000    32.0000 </r>
       <r>   -11.2376     0.0000    32.0000 </r>
       <r>   -10.9964     0.0000    32.0000 </r>
       <r>   -10.7551     0.0000    32.0000 </r>
       <r>   -10.5138     0.0000    32.0000 </r>
       <r>   -10.2726     0.0000    32.0000 </r>
       <r>   -10.0313     0.0000    32.0000 </r>
       <r>    -9.7901     0.0000    32.0000 </r>
       <r>    -9.5488     0.0000    32.0000 </r>
       <r>    -9.3075     0.0000    32.0000 </r>
       <r>    -9.0663     0.0000    32.0000 </r>
       <r>    -8.8250     0.0000    32.0000 </r>
       <r>    -8.5838     0.0000    32.0000 </r>
       <r>    -8.3425     0.0000    32.0000 </r>
       <r>    -8.1012     0.0000    32.0000 </r>
       <r>    -7.8600     0.0000    32.0000 </r>
       <r>    -7.6187     0.0000    32.0000 </r>
       <r>    -7.3775     0.0000    32.0000 </r>
       <r>    -7.1362     0.0000    32.0000 </r>
       <r>    -6.8949     0.0000    32.0000 </r>
       <r>    -6.6537     0.0000    32.0000 </r>
       <r>    -6.4124     0.0000    32.0000 </r>
       <r>    -6.1711     0.0000    32.0000 </r>
       <r>    -5.9299     0.5130    32.1238 </r>
       <r>    -5.6886     1.5010    32.5917 </r>
       <r>    -5.4474     1.8560    33.1468 </r>
       <r>    -5.2061     1.4619    33.6435 </r>
       <r>    -4.9648     1.5852    34.2753 </r>
       <r>    -4.7236     2.6875    35.1994 </r>
       <r>    -4.4823     1.3046    35.6056 </r>
       <r>    -4.2411     0.6969    35.8977 </r>
       <r>    -3.9998     0.0634    36.0000 </r>
       <r>    -3.7585     0.0001    36.0000 </r>
       <r>    -3.5173     0.6432    36.1705 </r>
       <r>    -3.2760     1.2002    36.5957 </r>
       <r>    -3.0348     1.6314    37.1589 </r>
       <r>    -2.7935     1.7054    37.7380 </r>
       <r>    -2.5522     2.8181    38.6595 </r>
       <r>    -2.3110     2.1154    39.4899 </r>
       <r>    -2.0697     2.0381    40.2468 </r>
       <r>    -1.8284     1.0641    40.7108 </r>
       <r>    -1.5872     0.6476    40.9981 </r>
       <r>    -1.3459     0.7853    41.2354 </r>
       <r>    -1.1047     0.8560    41.6198 </r>
       <r>    -0.8634     0.7386    41.8466 </r>
       <r>    -0.6221     0.9133    42.2356 </r>
       <r>    -0.3809     0.5489    42.5355 </r>
       <r>    -0.1396     1.2296    42.9548 </r>
       <r>     0.1016     1.7383    43.5367 </r>
       <r>     0.3429     3.3218    44.6229 </r>
       <r>     0.5842     5.4716    46.1415 </r>
       <r>     0.8254     5.3431    48.1003 </r>
       <r>     1.0667     9.7156    51.3083 </r>
       <r>     1.3079     7.7878    54.3177 </r>
       <r>     1.5492     4.8374    55.9375 </r>
       <r>     1.7905     5.3941    57.5769 </r>
       <r>     2.0317     2.0245    58.5292 </r>
       <r>     2.2730     2.9666    59.5729 </r>
       <r>     2.5143     4.2010    60.8911 </r>
       <r>     2.7555     4.8146    62.4320 </r>
       <r>     2.9968     2.3658    63.3871 </r>
       <r>     3.2380     3.5929    64.5046 </r>
       <r>     3.4793     4.9074    66.0360 </r>
       <r>     3.7206     6.5798    68.0772 </r>
       <r>     3.9618     5.5206    70.2350 </r>
       <r>     4.2031     6.3419    72.3005 </r>
       <r>     4.4443     6.7651    74.5097 </r>
       <r>     4.6856     8.3673    77.5646 </r>
       <r>     4.9269     6.9504    80.3095 </r>
       <r>     5.1681     5.7821    82.7368 </r>
       <r>     5.4094     3.9779    84.5209 </r>
       <r>     5.6506     6.1191    86.5835 </r>
       <r>     5.8919     7.7164    88.9994 </r>
       <r>     6.1332     5.6484    91.3576 </r>
       <r>     6.3744     5.3184    93.1709 </r>
       <r>     6.6157     4.4780    94.8355 </r>
       <r>     6.8569     2.2271    95.6598 </r>
       <r>     7.0982     0.6344    95.9898 </r>
       <r>     7.3395     0.0423    96.0000 </r>
       <r>     7.5807     0.0000    96.0000 </r>
       <r>     7.8220     0.0000    96.0000 </r>
       <r>     8.0633     0.0000    96.0000 </r>
       <r>     8.3045     0.0000    96.0000 </r>
       <r>     8.5458     0.0000    96.0000 </r>
       <r>     8.7870     0.0000    96.0000 </r>
       <r>     9.0283     0.0000    96.0000 </r>
       <r>     9.2696     0.0000    96.0000 </r>
       <r>     9.5108     0.0000    96.0000 </r>
       <r>     9.7521     0.0000    96.0000 </r>
       <r>     9.9933     0.0000    96.0000 </r>
       <r>    10.2346     0.0000    96.0000 </r>
       <r>    10.4759     0.0000    96.0000 </r>
      </set>
     </set>
    </array>
   </total>
  </dos>
 </calculation>
 <structure name="finalpos" >
  <crystal>
   <varray name="basis" >
    <v>       5.73840401       0.00000000      -3.33125532 </v>
    <v>      -1.90231039       5.41391686      -3.33125532 </v>
    <v>       0.00000000       0.00000000       6.63525000 </v>
   </varray>
   <i name="volume">    206.13891865 </i>
   <varray name="rec_basis" >
    <v>       0.17426448       0.06123203       0.00000000 </v>
    <v>       0.00000000       0.18470915       0.00000000 </v>
    <v>       0.08749022       0.12347581       0.15071022 </v>
   </varray>
  </crystal>
  <varray name="positions" >
   <v>       0.50000000       0.50000000       0.50000000 </v>
   <v>       0.50000000       0.00000000       0.00000000 </v>
   <v>       0.00000000       0.00000000       0.50000000 </v>
   <v>       0.00000000       0.50000000       0.00000000 </v>
   <v>       0.50000000       0.00000000       0.50000000 </v>
   <v>       0.75000000       0.25000000       0.50000000 </v>
   <v>       0.25000000       0.75000000       0.50000000 </v>
   <v>       0.00000000       0.50000000       0.50000000 </v>
   <v>       0.25000000       0.25000000       0.00000000 </v>
   <v>       0.75000000       0.75000000       0.00000000 </v>
  </varray>
 </structure>
</modeling>
