<?xml version="1.0" encoding="ISO-8859-1"?>
<modeling>
 <generator>
  <i name="program" type="string">vasp </i>
  <i name="version" type="string">6.2.0  </i>
  <i name="subversion" type="string">18Jan21 (build Jan 05 2022 15:41:44) complex                          parallel </i>
  <i name="platform" type="string">LinuxIFC </i>
  <i name="date" type="string">2025 05 07 </i>
  <i name="time" type="string">18:54:55 </i>
 </generator>
 <incar>
  <i type="string" name="SYSTEM">routine with relax: pwdword</i>
  <i type="string" name="PREC">Acc</i>
  <i type="int" name="IALGO">    38</i>
  <i type="string" name="ALGO">A</i>
  <i type="logical" name="ADDGRID"> T  </i>
  <i type="int" name="ICHARG">     2</i>
  <i type="int" name="NELM">   100</i>
  <i type="int" name="NELMIN">     6</i>
  <i name="EDIFF">      0.00000000</i>
  <i type="int" name="NSW">     0</i>
  <i type="int" name="ISIF">    -1</i>
  <i name="SYMPREC">      0.00010000</i>
  <i name="ENCUT">    600.00000000</i>
  <i type="logical" name="LREAL"> F  </i>
  <i type="int" name="ISMEAR">     0</i>
  <i name="SIGMA">      0.02000000</i>
  <i type="logical" name="LASPH"> T  </i>
  <i type="string" name="METAGGA">R2SCAN</i>
  <i type="logical" name="LMIXTAU"> F  </i>
 </incar>
 <primitive_cell>
  <structure name="primitive_cell" >
   <crystal>
    <varray name="basis" >
     <v>       5.44483833       0.00000000      -3.01092191 </v>
     <v>      -1.89368244       5.10492225      -3.01092191 </v>
     <v>       0.00000000       0.00000000       6.22189000 </v>
    </varray>
    <i name="volume">    172.94039637 </i>
    <varray name="rec_basis" >
     <v>       0.18366018       0.06812916       0.00000000 </v>
     <v>       0.00000000       0.19588937       0.00000000 </v>
     <v>       0.08887757       0.12776490       0.16072287 </v>
    </varray>
   </crystal>
   <varray name="positions" >
    <v>       0.63504000       0.13504000       0.19049000 </v>
    <v>       0.36496000       0.86496000       0.80951000 </v>
    <v>       0.13504000       0.94455000       0.50000000 </v>
    <v>       0.86496000       0.05545000       0.50000000 </v>
    <v>       0.94455000       0.44455000       0.80951000 </v>
    <v>       0.05545000       0.55545000       0.19049000 </v>
    <v>       0.44455000       0.63504000       0.50000000 </v>
    <v>       0.55545000       0.36496000       0.50000000 </v>
    <v>       0.13892000       0.36108000       0.50000000 </v>
    <v>       0.25000000       0.25000000       1.00000000 </v>
    <v>       0.86108000       0.63892000       0.50000000 </v>
    <v>       0.75000000       0.75000000       1.00000000 </v>
    <v>       0.36108000       0.86108000       0.22215000 </v>
    <v>       0.63892000       0.13892000       0.77785000 </v>
    <v>       0.50000000       0.50000000       1.00000000 </v>
    <v>       0.00000000       0.00000000       0.00000000 </v>
   </varray>
  </structure>
  <varray name="primitive_index" >
   <v type="int" >        1 </v>
   <v type="int" >        2 </v>
   <v type="int" >        3 </v>
   <v type="int" >        4 </v>
   <v type="int" >        5 </v>
   <v type="int" >        6 </v>
   <v type="int" >        7 </v>
   <v type="int" >        8 </v>
   <v type="int" >        9 </v>
   <v type="int" >       10 </v>
   <v type="int" >       11 </v>
   <v type="int" >       12 </v>
   <v type="int" >       13 </v>
   <v type="int" >       14 </v>
   <v type="int" >       15 </v>
   <v type="int" >       16 </v>
  </varray>
 </primitive_cell>
 <kpoints>
  <generation param="Gamma">
   <v type="int" name="divisions">       7        7        8 </v>
   <v name="usershift">      0.00000000       0.00000000       0.00000000 </v>
   <v name="genvec1">      0.14285714       0.00000000       0.00000000 </v>
   <v name="genvec2">      0.00000000       0.14285714       0.00000000 </v>
   <v name="genvec3">      0.00000000      -0.00000000       0.12500000 </v>
   <v name="shift">      0.00000000       0.00000000       0.00000000 </v>
  </generation>
  <varray name="kpointlist" >
   <v>       0.00000000       0.00000000       0.00000000 </v>
   <v>       0.14285714       0.00000000       0.00000000 </v>
   <v>       0.28571429       0.00000000       0.00000000 </v>
   <v>       0.42857143       0.00000000       0.00000000 </v>
   <v>       0.14285714       0.14285714       0.00000000 </v>
   <v>       0.28571429       0.14285714       0.00000000 </v>
   <v>       0.42857143       0.14285714       0.00000000 </v>
   <v>      -0.42857143       0.14285714       0.00000000 </v>
   <v>      -0.28571429       0.14285714       0.00000000 </v>
   <v>      -0.14285714       0.14285714       0.00000000 </v>
   <v>       0.28571429       0.28571429       0.00000000 </v>
   <v>       0.42857143       0.28571429       0.00000000 </v>
   <v>      -0.42857143       0.28571429       0.00000000 </v>
   <v>      -0.28571429       0.28571429       0.00000000 </v>
   <v>       0.42857143       0.42857143       0.00000000 </v>
   <v>      -0.42857143       0.42857143       0.00000000 </v>
   <v>       0.00000000      -0.00000000       0.12500000 </v>
   <v>       0.14285714       0.00000000       0.12500000 </v>
   <v>       0.28571429       0.00000000       0.12500000 </v>
   <v>       0.42857143       0.00000000       0.12500000 </v>
   <v>      -0.42857143       0.00000000       0.12500000 </v>
   <v>      -0.28571429      -0.00000000       0.12500000 </v>
   <v>      -0.14285714      -0.00000000       0.12500000 </v>
   <v>       0.14285714       0.14285714       0.12500000 </v>
   <v>       0.28571429       0.14285714       0.12500000 </v>
   <v>       0.42857143       0.14285714       0.12500000 </v>
   <v>      -0.42857143       0.14285714       0.12500000 </v>
   <v>      -0.28571429       0.14285714       0.12500000 </v>
   <v>      -0.14285714       0.14285714       0.12500000 </v>
   <v>       0.28571429       0.28571429       0.12500000 </v>
   <v>       0.42857143       0.28571429       0.12500000 </v>
   <v>      -0.42857143       0.28571429       0.12500000 </v>
   <v>      -0.28571429       0.28571429       0.12500000 </v>
   <v>      -0.14285714       0.28571429       0.12500000 </v>
   <v>       0.42857143       0.42857143       0.12500000 </v>
   <v>      -0.42857143       0.42857143       0.12500000 </v>
   <v>      -0.28571429       0.42857143       0.12500000 </v>
   <v>      -0.14285714       0.42857143       0.12500000 </v>
   <v>      -0.42857143      -0.42857143       0.12500000 </v>
   <v>      -0.28571429      -0.42857143       0.12500000 </v>
   <v>      -0.14285714      -0.42857143       0.12500000 </v>
   <v>      -0.28571429      -0.28571429       0.12500000 </v>
   <v>      -0.14285714      -0.28571429       0.12500000 </v>
   <v>      -0.14285714      -0.14285714       0.12500000 </v>
   <v>       0.00000000      -0.00000000       0.25000000 </v>
   <v>       0.14285714      -0.00000000       0.25000000 </v>
   <v>       0.28571429       0.00000000       0.25000000 </v>
   <v>       0.42857143      -0.00000000       0.25000000 </v>
   <v>      -0.42857143      -0.00000000       0.25000000 </v>
   <v>      -0.28571429       0.00000000       0.25000000 </v>
   <v>      -0.14285714       0.00000000       0.25000000 </v>
   <v>       0.14285714       0.14285714       0.25000000 </v>
   <v>       0.28571429       0.14285714       0.25000000 </v>
   <v>       0.42857143       0.14285714       0.25000000 </v>
   <v>      -0.42857143       0.14285714       0.25000000 </v>
   <v>      -0.28571429       0.14285714       0.25000000 </v>
   <v>      -0.14285714       0.14285714       0.25000000 </v>
   <v>       0.28571429       0.28571429       0.25000000 </v>
   <v>       0.42857143       0.28571429       0.25000000 </v>
   <v>      -0.42857143       0.28571429       0.25000000 </v>
   <v>      -0.28571429       0.28571429       0.25000000 </v>
   <v>      -0.14285714       0.28571429       0.25000000 </v>
   <v>       0.42857143       0.42857143       0.25000000 </v>
   <v>      -0.42857143       0.42857143       0.25000000 </v>
   <v>      -0.28571429       0.42857143       0.25000000 </v>
   <v>      -0.14285714       0.42857143       0.25000000 </v>
   <v>      -0.42857143      -0.42857143       0.25000000 </v>
   <v>      -0.28571429      -0.42857143       0.25000000 </v>
   <v>      -0.14285714      -0.42857143       0.25000000 </v>
   <v>      -0.28571429      -0.28571429       0.25000000 </v>
   <v>      -0.14285714      -0.28571429       0.25000000 </v>
   <v>      -0.14285714      -0.14285714       0.25000000 </v>
   <v>       0.00000000      -0.00000000       0.37500000 </v>
   <v>       0.14285714       0.00000000       0.37500000 </v>
   <v>       0.28571429      -0.00000000       0.37500000 </v>
   <v>       0.42857143       0.00000000       0.37500000 </v>
   <v>      -0.42857143      -0.00000000       0.37500000 </v>
   <v>      -0.28571429      -0.00000000       0.37500000 </v>
   <v>      -0.14285714      -0.00000000       0.37500000 </v>
   <v>       0.14285714       0.14285714       0.37500000 </v>
   <v>       0.28571429       0.14285714       0.37500000 </v>
   <v>       0.42857143       0.14285714       0.37500000 </v>
   <v>      -0.42857143       0.14285714       0.37500000 </v>
   <v>      -0.28571429       0.14285714       0.37500000 </v>
   <v>      -0.14285714       0.14285714       0.37500000 </v>
   <v>       0.28571429       0.28571429       0.37500000 </v>
   <v>       0.42857143       0.28571429       0.37500000 </v>
   <v>      -0.42857143       0.28571429       0.37500000 </v>
   <v>      -0.28571429       0.28571429       0.37500000 </v>
   <v>      -0.14285714       0.28571429       0.37500000 </v>
   <v>       0.42857143       0.42857143       0.37500000 </v>
   <v>      -0.42857143       0.42857143       0.37500000 </v>
   <v>      -0.28571429       0.42857143       0.37500000 </v>
   <v>      -0.14285714       0.42857143       0.37500000 </v>
   <v>      -0.42857143      -0.42857143       0.37500000 </v>
   <v>      -0.28571429      -0.42857143       0.37500000 </v>
   <v>      -0.14285714      -0.42857143       0.37500000 </v>
   <v>      -0.28571429      -0.28571429       0.37500000 </v>
   <v>      -0.14285714      -0.28571429       0.37500000 </v>
   <v>      -0.14285714      -0.14285714       0.37500000 </v>
   <v>       0.00000000      -0.00000000       0.50000000 </v>
   <v>       0.14285714       0.00000000       0.50000000 </v>
   <v>       0.28571429      -0.00000000       0.50000000 </v>
   <v>       0.42857143      -0.00000000       0.50000000 </v>
   <v>       0.14285714       0.14285714       0.50000000 </v>
   <v>       0.28571429       0.14285714       0.50000000 </v>
   <v>       0.42857143       0.14285714       0.50000000 </v>
   <v>      -0.42857143       0.14285714       0.50000000 </v>
   <v>      -0.28571429       0.14285714       0.50000000 </v>
   <v>      -0.14285714       0.14285714       0.50000000 </v>
   <v>       0.28571429       0.28571429       0.50000000 </v>
   <v>       0.42857143       0.28571429       0.50000000 </v>
   <v>      -0.42857143       0.28571429       0.50000000 </v>
   <v>      -0.28571429       0.28571429       0.50000000 </v>
   <v>       0.42857143       0.42857143       0.50000000 </v>
   <v>      -0.42857143       0.42857143       0.50000000 </v>
  </varray>
  <varray name="weights" >
   <v>       0.00255102 </v>
   <v>       0.01020408 </v>
   <v>       0.01020408 </v>
   <v>       0.01020408 </v>
   <v>       0.00510204 </v>
   <v>       0.01020408 </v>
   <v>       0.01020408 </v>
   <v>       0.01020408 </v>
   <v>       0.01020408 </v>
   <v>       0.00510204 </v>
   <v>       0.00510204 </v>
   <v>       0.01020408 </v>
   <v>       0.01020408 </v>
   <v>       0.00510204 </v>
   <v>       0.00510204 </v>
   <v>       0.00510204 </v>
   <v>       0.00510204 </v>
   <v>       0.01020408 </v>
   <v>       0.01020408 </v>
   <v>       0.01020408 </v>
   <v>       0.01020408 </v>
   <v>       0.01020408 </v>
   <v>       0.01020408 </v>
   <v>       0.00510204 </v>
   <v>       0.01020408 </v>
   <v>       0.01020408 </v>
   <v>       0.01020408 </v>
   <v>       0.01020408 </v>
   <v>       0.01020408 </v>
   <v>       0.00510204 </v>
   <v>       0.01020408 </v>
   <v>       0.01020408 </v>
   <v>       0.01020408 </v>
   <v>       0.01020408 </v>
   <v>       0.00510204 </v>
   <v>       0.01020408 </v>
   <v>       0.01020408 </v>
   <v>       0.01020408 </v>
   <v>       0.00510204 </v>
   <v>       0.01020408 </v>
   <v>       0.01020408 </v>
   <v>       0.00510204 </v>
   <v>       0.01020408 </v>
   <v>       0.00510204 </v>
   <v>       0.00510204 </v>
   <v>       0.01020408 </v>
   <v>       0.01020408 </v>
   <v>       0.01020408 </v>
   <v>       0.01020408 </v>
   <v>       0.01020408 </v>
   <v>       0.01020408 </v>
   <v>       0.00510204 </v>
   <v>       0.01020408 </v>
   <v>       0.01020408 </v>
   <v>       0.01020408 </v>
   <v>       0.01020408 </v>
   <v>       0.01020408 </v>
   <v>       0.00510204 </v>
   <v>       0.01020408 </v>
   <v>       0.01020408 </v>
   <v>       0.01020408 </v>
   <v>       0.01020408 </v>
   <v>       0.00510204 </v>
   <v>       0.01020408 </v>
   <v>       0.01020408 </v>
   <v>       0.01020408 </v>
   <v>       0.00510204 </v>
   <v>       0.01020408 </v>
   <v>       0.01020408 </v>
   <v>       0.00510204 </v>
   <v>       0.01020408 </v>
   <v>       0.00510204 </v>
   <v>       0.00510204 </v>
   <v>       0.01020408 </v>
   <v>       0.01020408 </v>
   <v>       0.01020408 </v>
   <v>       0.01020408 </v>
   <v>       0.01020408 </v>
   <v>       0.01020408 </v>
   <v>       0.00510204 </v>
   <v>       0.01020408 </v>
   <v>       0.01020408 </v>
   <v>       0.01020408 </v>
   <v>       0.01020408 </v>
   <v>       0.01020408 </v>
   <v>       0.00510204 </v>
   <v>       0.01020408 </v>
   <v>       0.01020408 </v>
   <v>       0.01020408 </v>
   <v>       0.01020408 </v>
   <v>       0.00510204 </v>
   <v>       0.01020408 </v>
   <v>       0.01020408 </v>
   <v>       0.01020408 </v>
   <v>       0.00510204 </v>
   <v>       0.01020408 </v>
   <v>       0.01020408 </v>
   <v>       0.00510204 </v>
   <v>       0.01020408 </v>
   <v>       0.00510204 </v>
   <v>       0.00255102 </v>
   <v>       0.01020408 </v>
   <v>       0.01020408 </v>
   <v>       0.01020408 </v>
   <v>       0.00510204 </v>
   <v>       0.01020408 </v>
   <v>       0.01020408 </v>
   <v>       0.01020408 </v>
   <v>       0.01020408 </v>
   <v>       0.00510204 </v>
   <v>       0.00510204 </v>
   <v>       0.01020408 </v>
   <v>       0.01020408 </v>
   <v>       0.00510204 </v>
   <v>       0.00510204 </v>
   <v>       0.00510204 </v>
  </varray>
 </kpoints>
 <parameters>
  <separator name="general" >
   <i type="string" name="SYSTEM">routine with relax: pwdword</i>
   <i type="logical" name="LCOMPAT"> F  </i>
  </separator>
  <separator name="electronic" >
   <i type="string" name="PREC">acc</i>
   <i name="ENMAX">    600.00000000</i>
   <i name="ENAUG">    535.51400000</i>
   <i name="EDIFF">      0.00000000</i>
   <i type="int" name="IALGO">    58</i>
   <i type="int" name="IWAVPR">    10</i>
   <i type="int" name="NBANDS">    72</i>
   <i type="int" name="NBANDSLOW">    -1</i>
   <i type="int" name="NBANDSHIGH">    -1</i>
   <i name="NELECT">    116.00000000</i>
   <i type="int" name="TURBO">     0</i>
   <i type="int" name="IRESTART">     0</i>
   <i type="int" name="NREBOOT">     0</i>
   <i type="int" name="NMIN">     0</i>
   <i name="EREF">      0.00000000</i>
   <separator name="electronic smearing" >
    <i type="int" name="ISMEAR">     0</i>
    <i name="SIGMA">      0.02000000</i>
    <i name="KSPACING">      0.50000000</i>
    <i type="logical" name="KGAMMA"> T  </i>
    <i type="logical" name="KBLOWUP"> F  </i>
   </separator>
   <separator name="electronic projectors" >
    <i type="logical" name="LREAL"> F  </i>
    <v name="ROPT">      0.00000000      0.00000000      0.00000000</v>
    <i type="int" name="LMAXPAW">  -100</i>
    <i type="int" name="LMAXMIX">     2</i>
    <i type="logical" name="NLSPLINE"> F  </i>
   </separator>
   <separator name="electronic startup" >
    <i type="int" name="ISTART">     0</i>
    <i type="int" name="ICHARG">     2</i>
    <i type="int" name="INIWAV">     1</i>
   </separator>
   <separator name="electronic spin" >
    <i type="int" name="ISPIN">     1</i>
    <i type="logical" name="LNONCOLLINEAR"> F  </i>
    <v name="MAGMOM">      1.00000000      1.00000000      1.00000000      1.00000000      1.00000000      1.00000000      1.00000000      1.00000000      1.00000000      1.00000000      1.00000000      1.00000000      1.00000000      1.00000000      1.00000000      1.00000000</v>
    <i name="NUPDOWN">     -1.00000000</i>
    <i type="logical" name="LSORBIT"> F  </i>
    <v name="SAXIS">      0.00000000      0.00000000      1.00000000</v>
    <i type="logical" name="LSPIRAL"> F  </i>
    <v name="QSPIRAL">      0.00000000      0.00000000      0.00000000</v>
    <i type="logical" name="LZEROZ"> F  </i>
   </separator>
   <separator name="electronic exchange-correlation" >
    <i type="logical" name="LASPH"> T  </i>
    <i type="logical" name="LMETAGGA"> F  </i>
   </separator>
   <separator name="electronic convergence" >
    <i type="int" name="NELM">   100</i>
    <i type="int" name="NELMDL">    -5</i>
    <i type="int" name="NELMIN">     6</i>
    <i name="ENINI">    600.00000000</i>
    <separator name="electronic convergence detail" >
     <i type="logical" name="LDIAG"> T  </i>
     <i type="logical" name="LSUBROT"> F  </i>
     <i name="WEIMIN">      0.00000000</i>
     <i name="EBREAK">      0.00000000</i>
     <i name="DEPER">      0.30000000</i>
     <i type="int" name="NRMM">     4</i>
     <i name="TIME">      0.40000000</i>
    </separator>
   </separator>
   <separator name="electronic mixer" >
    <i name="AMIX">      0.40000000</i>
    <i name="BMIX">      1.00000000</i>
    <i name="AMIN">      0.10000000</i>
    <i name="AMIX_MAG">      1.60000000</i>
    <i name="BMIX_MAG">      1.00000000</i>
    <separator name="electronic mixer details" >
     <i type="int" name="IMIX">     4</i>
     <i type="logical" name="MIXFIRST"> F  </i>
     <i type="int" name="MAXMIX">   -45</i>
     <i name="WC">    100.00000000</i>
     <i type="int" name="INIMIX">     1</i>
     <i type="int" name="MIXPRE">     1</i>
     <i type="int" name="MREMOVE">     5</i>
    </separator>
   </separator>
   <separator name="electronic dipolcorrection" >
    <i type="logical" name="LDIPOL"> F  </i>
    <i type="logical" name="LMONO"> F  </i>
    <i type="int" name="IDIPOL">     0</i>
    <i name="EPSILON">      1.00000000</i>
    <v name="DIPOL">   -100.00000000   -100.00000000   -100.00000000</v>
    <i name="EFIELD">      0.00000000</i>
   </separator>
  </separator>
  <separator name="grids" >
   <i type="int" name="NGX">    50</i>
   <i type="int" name="NGY">    50</i>
   <i type="int" name="NGZ">    50</i>
   <i type="int" name="NGXF">   100</i>
   <i type="int" name="NGYF">   100</i>
   <i type="int" name="NGZF">   100</i>
   <i type="logical" name="ADDGRID"> T  </i>
  </separator>
  <separator name="ionic" >
   <i type="int" name="NSW">     0</i>
   <i type="int" name="IBRION">    -1</i>
   <i type="int" name="MDALGO">     0</i>
   <i type="int" name="ISIF">    -1</i>
   <i name="PSTRESS">      0.00000000</i>
   <i name="EDIFFG">      0.00000001</i>
   <i type="int" name="NFREE">     0</i>
   <i name="POTIM">      0.50000000</i>
   <i name="SMASS">     -3.00000000</i>
   <i name="SCALEE">      1.00000000</i>
  </separator>
  <separator name="ionic md" >
   <i name="TEBEG">      0.00010000</i>
   <i name="TEEND">      0.00010000</i>
   <i type="int" name="NBLOCK">     1</i>
   <i type="int" name="KBLOCK">     1</i>
   <i type="int" name="NPACO">   256</i>
   <i name="APACO">     16.00000000</i>
  </separator>
  <separator name="symmetry" >
   <i type="int" name="ISYM">     2</i>
   <i name="SYMPREC">      0.00010000</i>
  </separator>
  <separator name="dos" >
   <i type="int" name="LORBIT">     0</i>
   <v name="RWIGS">     -1.00000000     -1.00000000     -1.00000000</v>
   <i type="int" name="NEDOS">   301</i>
   <i name="EMIN">     10.00000000</i>
   <i name="EMAX">    -10.00000000</i>
   <i name="EFERMI">      0.00000000</i>
  </separator>
  <separator name="writing" >
   <i type="int" name="NWRITE">     2</i>
   <i type="logical" name="LWAVE"> T  </i>
   <i type="logical" name="LDOWNSAMPLE"> F  </i>
   <i type="logical" name="LCHARG"> T  </i>
   <i type="logical" name="LPARD"> F  </i>
   <i type="logical" name="LVTOT"> F  </i>
   <i type="logical" name="LVHAR"> F  </i>
   <i type="logical" name="LELF"> F  </i>
   <i type="logical" name="LOPTICS"> F  </i>
   <v name="STM">      0.00000000      0.00000000      0.00000000      0.00000000      0.00000000      0.00000000      0.00000000</v>
  </separator>
  <separator name="performance" >
   <i type="int" name="NPAR">     6</i>
   <i type="int" name="NSIM">     4</i>
   <i type="int" name="NBLK">    -1</i>
   <i type="logical" name="LPLANE"> T  </i>
   <i type="logical" name="LSCALAPACK"> T  </i>
   <i type="logical" name="LSCAAWARE"> F  </i>
   <i type="logical" name="LSCALU"> F  </i>
   <i type="logical" name="LASYNC"> F  </i>
   <i type="logical" name="LORBITALREAL"> F  </i>
  </separator>
  <separator name="miscellaneous" >
   <i type="int" name="IDIOT">     3</i>
   <i type="int" name="PHON_NSTRUCT">    -1</i>
   <i type="logical" name="LMUSIC"> F  </i>
   <v name="POMASS">     10.81100000     95.94000000     28.08500000</v>
   <v name="DARWINR">      0.00000000      0.00000000      0.00000000</v>
   <v name="DARWINV">      1.00000000      1.00000000      1.00000000</v>
   <i type="logical" name="LCORR"> T  </i>
  </separator>
  <i type="logical" name="GGA_COMPAT"> T  </i>
  <i type="logical" name="LBERRY"> F  </i>
  <i type="int" name="ICORELEVEL">     0</i>
  <i type="logical" name="LDAU"> F  </i>
  <i type="int" name="I_CONSTRAINED_M">     0</i>
  <separator name="electronic exchange-correlation" >
   <i type="string" name="GGA">--</i>
   <i type="int" name="VOSKOWN">     0</i>
   <i type="logical" name="LHFCALC"> F  </i>
   <i type="string" name="PRECFOCK"></i>
   <i type="logical" name="LSYMGRAD"> F  </i>
   <i type="logical" name="LHFONE"> F  </i>
   <i type="logical" name="LRHFCALC"> F  </i>
   <i type="logical" name="LTHOMAS"> F  </i>
   <i type="logical" name="LMODELHF"> F  </i>
   <i type="logical" name="LFOCKACE"> F  </i>
   <i name="ENCUT4O">     -1.00000000</i>
   <i type="int" name="EXXOEP">     0</i>
   <i type="int" name="FOURORBIT">     0</i>
   <i name="AEXX">      0.00000000</i>
   <i name="HFALPHA">      0.00000000</i>
   <i name="MCALPHA">      0.00000000</i>
   <i name="ALDAX">      1.00000000</i>
   <i name="AGGAX">      1.00000000</i>
   <i name="ALDAC">      1.00000000</i>
   <i name="AGGAC">      1.00000000</i>
   <i type="int" name="NKREDX">     1</i>
   <i type="int" name="NKREDY">     1</i>
   <i type="int" name="NKREDZ">     1</i>
   <i type="logical" name="SHIFTRED"> F  </i>
   <i type="logical" name="ODDONLY"> F  </i>
   <i type="logical" name="EVENONLY"> F  </i>
   <i type="int" name="LMAXFOCK">     0</i>
   <i type="int" name="NMAXFOCKAE">     0</i>
   <i type="logical" name="LFOCKAEDFT"> F  </i>
   <i name="HFSCREEN">      0.00000000</i>
   <i name="HFSCREENC">      0.00000000</i>
   <i type="int" name="NBANDSGWLOW">     0</i>
  </separator>
  <separator name="vdW DFT" >
   <i type="logical" name="LUSE_VDW"> F  </i>
   <i name="Zab_VDW">     -0.84910000</i>
   <i name="PARAM1">      0.12340000</i>
   <i name="PARAM2">      1.00000000</i>
   <i name="PARAM3">      0.00000000</i>
  </separator>
  <separator name="model GW" >
   <i type="int" name="MODEL_GW">     0</i>
   <i name="MODEL_EPS0">      6.48526486</i>
   <i name="MODEL_ALPHA">      1.00000000</i>
  </separator>
  <separator name="linear response parameters" >
   <i type="logical" name="LEPSILON"> F  </i>
   <i type="logical" name="LRPA"> F  </i>
   <i type="logical" name="LNABLA"> F  </i>
   <i type="logical" name="LVEL"> F  </i>
   <i type="int" name="KINTER">     0</i>
   <i name="CSHIFT">      0.10000000</i>
   <i name="OMEGAMAX">     -1.00000000</i>
   <i name="DEG_THRESHOLD">      0.00200000</i>
   <i name="RTIME">     -0.10000000</i>
   <i name="WPLASMAI">      0.00000000</i>
   <v name="DFIELD">      0.00000000      0.00000000      0.00000000</v>
   <v name="WPLASMA">      0.00000000      0.00000000      0.00000000      0.00000000      0.00000000      0.00000000      0.00000000      0.00000000      0.00000000</v>
  </separator>
  <separator name="orbital magnetization" >
   <i type="logical" name="NUCIND"> F  </i>
   <v name="MAGPOS">      0.00000000      0.00000000      0.00000000</v>
   <i type="logical" name="LNICSALL"> T  </i>
   <i type="logical" name="ORBITALMAG"> F  </i>
   <i type="logical" name="LMAGBLOCH"> F  </i>
   <i type="logical" name="LCHIMAG"> F  </i>
   <i type="logical" name="LGAUGE"> T  </i>
   <i type="int" name="MAGATOM">     0</i>
   <v name="MAGDIPOL">      0.00000000      0.00000000      0.00000000</v>
   <v name="AVECCONST">      0.00000000      0.00000000      0.00000000</v>
  </separator>
  <separator name="response functions" >
   <i type="logical" name="LFINITE_TEMPERATURE"> F  </i>
   <i type="logical" name="LADDER"> F  </i>
   <i type="logical" name="LRPAFORCE"> F  </i>
   <i type="logical" name="LFXC"> F  </i>
   <i type="logical" name="LHARTREE"> T  </i>
   <i type="int" name="IBSE">     0</i>
   <v type="int" name="KPOINT">    -1     0     0     0</v>
   <i type="logical" name="LTCTC"> F  </i>
   <i type="logical" name="LTCTE"> F  </i>
   <i type="logical" name="LTETE"> F  </i>
   <i type="logical" name="LTRIPLET"> F  </i>
   <i type="logical" name="LFXCEPS"> F  </i>
   <i type="logical" name="LFXHEG"> F  </i>
   <i type="int" name="NATURALO">     2</i>
   <i type="logical" name="LHOLEGF"> F  </i>
   <i type="logical" name="L2ORDER"> F  </i>
   <i type="logical" name="LDMP1"> F  </i>
   <i type="logical" name="LMP2LT"> F  </i>
   <i type="logical" name="LSMP2LT"> F  </i>
   <i type="logical" name="LGWLF"> F  </i>
   <i name="ENCUTGW">     -2.00000000</i>
   <i name="ENCUTGWSOFT">     -2.00000000</i>
   <i name="ENCUTLF">     -1.00000000</i>
   <i type="logical" name="LESF_SPLINES"> F  </i>
   <i type="int" name="LMAXMP2">    -1</i>
   <i name="SCISSOR">      0.00000000</i>
   <i type="int" name="NOMEGA">     0</i>
   <i type="int" name="NOMEGAR">     0</i>
   <i type="int" name="NBANDSGW">    -1</i>
   <i type="int" name="NBANDSO">    -1</i>
   <i type="int" name="NBANDSV">    -1</i>
   <i type="int" name="NELM">   100</i>
   <i type="int" name="NELMHF">     1</i>
   <i type="int" name="DIM">     3</i>
   <i type="int" name="IESPILON">     4</i>
   <i type="int" name="ANTIRES">     0</i>
   <i name="OMEGAMAX">    -30.00000000</i>
   <i name="OMEGAMIN">    -30.00000000</i>
   <i name="OMEGATL">   -200.00000000</i>
   <i type="int" name="OMEGAGRID">     0</i>
   <i name="CSHIFT">     -0.10000000</i>
   <i type="logical" name="LSELFENERGY"> F  </i>
   <i type="logical" name="LSPECTRAL"> F  </i>
   <i type="logical" name="LSPECTRALGW"> F  </i>
   <i type="logical" name="LSINGLES"> F  </i>
   <i type="logical" name="LFERMIGW"> F  </i>
   <i type="logical" name="ODDONLYGW"> F  </i>
   <i type="logical" name="EVENONLYGW"> F  </i>
   <i type="int" name="NKREDLFX">     1</i>
   <i type="int" name="NKREDLFY">     1</i>
   <i type="int" name="NKREDLFZ">     1</i>
   <i type="int" name="MAXMEM">  2800</i>
   <i type="int" name="TELESCOPE">     0</i>
   <i type="int" name="NTAUPAR">    -1</i>
   <i type="int" name="NOMEGAPAR">    -1</i>
   <i name="DAMP_NEWTON">      0.80000001</i>
   <i name="LAMBDA">      1.00000000</i>
  </separator>
  <separator name="External order field" >
   <i name="OFIELD_KAPPA">      0.00000000</i>
   <v name="OFIELD_K">      0.00000000      0.00000000      0.00000000</v>
   <i name="OFIELD_Q6_NEAR">      0.00000000</i>
   <i name="OFIELD_Q6_FAR">      0.00000000</i>
   <i name="OFIELD_A">      0.00000000</i>
  </separator>
 </parameters>
 <atominfo>
  <atoms>      16 </atoms>
  <types>       3 </types>
  <array name="atoms" >
   <dimension dim="1">ion</dimension>
   <field type="string">element</field>
   <field type="int">atomtype</field>
   <set>
    <rc><c>B </c><c>   1</c></rc>
    <rc><c>B </c><c>   1</c></rc>
    <rc><c>B </c><c>   1</c></rc>
    <rc><c>B </c><c>   1</c></rc>
    <rc><c>B </c><c>   1</c></rc>
    <rc><c>B </c><c>   1</c></rc>
    <rc><c>B </c><c>   1</c></rc>
    <rc><c>B </c><c>   1</c></rc>
    <rc><c>Mo</c><c>   2</c></rc>
    <rc><c>Mo</c><c>   2</c></rc>
    <rc><c>Mo</c><c>   2</c></rc>
    <rc><c>Mo</c><c>   2</c></rc>
    <rc><c>Mo</c><c>   2</c></rc>
    <rc><c>Mo</c><c>   2</c></rc>
    <rc><c>Si</c><c>   3</c></rc>
    <rc><c>Si</c><c>   3</c></rc>
   </set>
  </array>
  <array name="atomtypes" >
   <dimension dim="1">type</dimension>
   <field type="int">atomspertype</field>
   <field type="string">element</field>
   <field>mass</field>
   <field>valence</field>
   <field type="string">pseudopotential</field>
   <set>
    <rc><c>   8</c><c>B </c><c>     10.81100000</c><c>      3.00000000</c><c>  PAW_PBE B 06Sep2000                   </c></rc>
    <rc><c>   6</c><c>Mo</c><c>     95.94000000</c><c>     14.00000000</c><c>  PAW_PBE Mo_sv 02Feb2006               </c></rc>
    <rc><c>   2</c><c>Si</c><c>     28.08500000</c><c>      4.00000000</c><c>  PAW_PBE Si 05Jan2001                  </c></rc>
   </set>
  </array>
 </atominfo>
 <structure name="initialpos" >
  <crystal>
   <varray name="basis" >
    <v>       5.44483833       0.00000000      -3.01092191 </v>
    <v>      -1.89368244       5.10492225      -3.01092191 </v>
    <v>       0.00000000       0.00000000       6.22189000 </v>
   </varray>
   <i name="volume">    172.94039637 </i>
   <varray name="rec_basis" >
    <v>       0.18366018       0.06812916       0.00000000 </v>
    <v>       0.00000000       0.19588937       0.00000000 </v>
    <v>       0.08887757       0.12776490       0.16072287 </v>
   </varray>
  </crystal>
  <varray name="positions" >
   <v>       0.63504000       0.13504000       0.19049000 </v>
   <v>       0.36496000       0.86496000       0.80951000 </v>
   <v>       0.13504000       0.94455000       0.50000000 </v>
   <v>       0.86496000       0.05545000       0.50000000 </v>
   <v>       0.94455000       0.44455000       0.80951000 </v>
   <v>       0.05545000       0.55545000       0.19049000 </v>
   <v>       0.44455000       0.63504000       0.50000000 </v>
   <v>       0.55545000       0.36496000       0.50000000 </v>
   <v>       0.13892000       0.36108000       0.50000000 </v>
   <v>       0.25000000       0.25000000       0.00000000 </v>
   <v>       0.86108000       0.63892000       0.50000000 </v>
   <v>       0.75000000       0.75000000       0.00000000 </v>
   <v>       0.36108000       0.86108000       0.22215000 </v>
   <v>       0.63892000       0.13892000       0.77785000 </v>
   <v>       0.50000000       0.50000000       0.00000000 </v>
   <v>       0.00000000       0.00000000       0.00000000 </v>
  </varray>
 </structure>
 <calculation>
  <scstep>
   <time name="total">   24.98   25.18</time>
   <energy>
    <i name="alphaZ">    664.10051527 </i>
    <i name="ewald"> -10082.15205654 </i>
    <i name="hartreedc">  -2338.83250932 </i>
    <i name="XCdc">    521.14561245 </i>
    <i name="pawpsdc">   9417.46121024 </i>
    <i name="pawaedc">  -9379.23717351 </i>
    <i name="eentropy">     -0.00110939 </i>
    <i name="bandstr">    379.94183359 </i>
    <i name="atom">  11949.18504973 </i>
    <i name="e_fr_energy">   1131.61137251 </i>
    <i name="e_wo_entrp">   1131.61248190 </i>
    <i name="e_0_energy">   1131.61192721 </i>
   </energy>
  </scstep>
  <scstep>
   <time name="total">   26.05   26.27</time>
   <energy>
    <i name="e_fr_energy">   -206.51241526 </i>
    <i name="e_wo_entrp">   -206.51120991 </i>
    <i name="e_0_energy">   -206.51181259 </i>
   </energy>
  </scstep>
  <scstep>
   <time name="total">   29.08   29.31</time>
   <energy>
    <i name="e_fr_energy">   -270.96843778 </i>
    <i name="e_wo_entrp">   -270.96716614 </i>
    <i name="e_0_energy">   -270.96780196 </i>
   </energy>
  </scstep>
  <scstep>
   <time name="total">   28.02   28.25</time>
   <energy>
    <i name="e_fr_energy">   -272.42855372 </i>
    <i name="e_wo_entrp">   -272.42748903 </i>
    <i name="e_0_energy">   -272.42802137 </i>
   </energy>
  </scstep>
  <scstep>
   <time name="total">   29.79   30.03</time>
   <energy>
    <i name="e_fr_energy">   -272.45171136 </i>
    <i name="e_wo_entrp">   -272.45065771 </i>
    <i name="e_0_energy">   -272.45118453 </i>
   </energy>
  </scstep>
  <scstep>
   <time name="total">   28.30   28.51</time>
   <energy>
    <i name="e_fr_energy">   -196.56367485 </i>
    <i name="e_wo_entrp">   -196.56220085 </i>
    <i name="e_0_energy">   -196.56293785 </i>
   </energy>
  </scstep>
  <scstep>
   <time name="total">   29.16   29.38</time>
   <energy>
    <i name="e_fr_energy">   -219.79971070 </i>
    <i name="e_wo_entrp">   -219.79759026 </i>
    <i name="e_0_energy">   -219.79865048 </i>
   </energy>
  </scstep>
  <scstep>
   <time name="total">   28.97   29.19</time>
   <energy>
    <i name="e_fr_energy">   -223.79936167 </i>
    <i name="e_wo_entrp">   -223.79733947 </i>
    <i name="e_0_energy">   -223.79835057 </i>
   </energy>
  </scstep>
  <scstep>
   <time name="total">   28.29   28.50</time>
   <energy>
    <i name="e_fr_energy">   -224.91349779 </i>
    <i name="e_wo_entrp">   -224.91149571 </i>
    <i name="e_0_energy">   -224.91249675 </i>
   </energy>
  </scstep>
  <scstep>
   <time name="total">   28.30   28.52</time>
   <energy>
    <i name="e_fr_energy">   -225.25025286 </i>
    <i name="e_wo_entrp">   -225.24808274 </i>
    <i name="e_0_energy">   -225.24916780 </i>
   </energy>
  </scstep>
  <scstep>
   <time name="total">   29.04   29.25</time>
   <energy>
    <i name="e_fr_energy">   -225.36576120 </i>
    <i name="e_wo_entrp">   -225.36358844 </i>
    <i name="e_0_energy">   -225.36467482 </i>
   </energy>
  </scstep>
  <scstep>
   <time name="total">   29.63   29.84</time>
   <energy>
    <i name="e_fr_energy">   -225.41390718 </i>
    <i name="e_wo_entrp">   -225.41159674 </i>
    <i name="e_0_energy">   -225.41275196 </i>
   </energy>
  </scstep>
  <scstep>
   <time name="total">   28.77   28.98</time>
   <energy>
    <i name="e_fr_energy">   -225.43489791 </i>
    <i name="e_wo_entrp">   -225.43242912 </i>
    <i name="e_0_energy">   -225.43366351 </i>
   </energy>
  </scstep>
  <scstep>
   <time name="total">   28.57   28.79</time>
   <energy>
    <i name="e_fr_energy">   -225.44505388 </i>
    <i name="e_wo_entrp">   -225.44254540 </i>
    <i name="e_0_energy">   -225.44379964 </i>
   </energy>
  </scstep>
  <scstep>
   <time name="total">   28.43   28.64</time>
   <energy>
    <i name="e_fr_energy">   -225.44862525 </i>
    <i name="e_wo_entrp">   -225.44608199 </i>
    <i name="e_0_energy">   -225.44735362 </i>
   </energy>
  </scstep>
  <scstep>
   <time name="total">   28.10   28.32</time>
   <energy>
    <i name="e_fr_energy">   -225.44994090 </i>
    <i name="e_wo_entrp">   -225.44740503 </i>
    <i name="e_0_energy">   -225.44867297 </i>
   </energy>
  </scstep>
  <scstep>
   <time name="total">   28.66   28.87</time>
   <energy>
    <i name="e_fr_energy">   -225.45049222 </i>
    <i name="e_wo_entrp">   -225.44795435 </i>
    <i name="e_0_energy">   -225.44922328 </i>
   </energy>
  </scstep>
  <scstep>
   <time name="total">   28.19   28.40</time>
   <energy>
    <i name="e_fr_energy">   -225.45073716 </i>
    <i name="e_wo_entrp">   -225.44820399 </i>
    <i name="e_0_energy">   -225.44947057 </i>
   </energy>
  </scstep>
  <scstep>
   <time name="total">   28.89   29.12</time>
   <energy>
    <i name="e_fr_energy">   -225.45082998 </i>
    <i name="e_wo_entrp">   -225.44829609 </i>
    <i name="e_0_energy">   -225.44956304 </i>
   </energy>
  </scstep>
  <scstep>
   <time name="total">   28.33   28.54</time>
   <energy>
    <i name="e_fr_energy">   -225.45085773 </i>
    <i name="e_wo_entrp">   -225.44832696 </i>
    <i name="e_0_energy">   -225.44959234 </i>
   </energy>
  </scstep>
  <scstep>
   <time name="total">   29.73   29.95</time>
   <energy>
    <i name="e_fr_energy">   -225.45086966 </i>
    <i name="e_wo_entrp">   -225.44833792 </i>
    <i name="e_0_energy">   -225.44960379 </i>
   </energy>
  </scstep>
  <scstep>
   <time name="total">   28.35   28.57</time>
   <energy>
    <i name="e_fr_energy">   -225.45087551 </i>
    <i name="e_wo_entrp">   -225.44834435 </i>
    <i name="e_0_energy">   -225.44960993 </i>
   </energy>
  </scstep>
  <scstep>
   <time name="total">   28.35   28.56</time>
   <energy>
    <i name="e_fr_energy">   -225.45087753 </i>
    <i name="e_wo_entrp">   -225.44834603 </i>
    <i name="e_0_energy">   -225.44961178 </i>
   </energy>
  </scstep>
  <scstep>
   <time name="total">   28.45   28.66</time>
   <energy>
    <i name="e_fr_energy">   -225.45087833 </i>
    <i name="e_wo_entrp">   -225.44834712 </i>
    <i name="e_0_energy">   -225.44961272 </i>
   </energy>
  </scstep>
  <scstep>
   <time name="total">   28.90   29.12</time>
   <energy>
    <i name="e_fr_energy">   -225.45087872 </i>
    <i name="e_wo_entrp">   -225.44834747 </i>
    <i name="e_0_energy">   -225.44961310 </i>
   </energy>
  </scstep>
  <scstep>
   <time name="total">   28.67   28.88</time>
   <energy>
    <i name="e_fr_energy">   -225.45087884 </i>
    <i name="e_wo_entrp">   -225.44834778 </i>
    <i name="e_0_energy">   -225.44961331 </i>
   </energy>
  </scstep>
  <scstep>
   <time name="total">   28.25   28.46</time>
   <energy>
    <i name="e_fr_energy">   -225.45087888 </i>
    <i name="e_wo_entrp">   -225.44834782 </i>
    <i name="e_0_energy">   -225.44961335 </i>
   </energy>
  </scstep>
  <scstep>
   <time name="total">   28.28   28.49</time>
   <energy>
    <i name="e_fr_energy">   -225.45087891 </i>
    <i name="e_wo_entrp">   -225.44834804 </i>
    <i name="e_0_energy">   -225.44961348 </i>
   </energy>
  </scstep>
  <scstep>
   <time name="total">   28.31   28.52</time>
   <energy>
    <i name="e_fr_energy">   -225.45087891 </i>
    <i name="e_wo_entrp">   -225.44834794 </i>
    <i name="e_0_energy">   -225.44961343 </i>
   </energy>
  </scstep>
  <scstep>
   <time name="total">   28.50   28.71</time>
   <energy>
    <i name="e_fr_energy">   -225.45087892 </i>
    <i name="e_wo_entrp">   -225.44834793 </i>
    <i name="e_0_energy">   -225.44961342 </i>
   </energy>
  </scstep>
  <scstep>
   <time name="total">   28.37   28.58</time>
   <energy>
    <i name="e_fr_energy">   -225.45087892 </i>
    <i name="e_wo_entrp">   -225.44834806 </i>
    <i name="e_0_energy">   -225.44961349 </i>
   </energy>
  </scstep>
  <scstep>
   <time name="total">   28.43   28.65</time>
   <energy>
    <i name="e_fr_energy">   -225.45087891 </i>
    <i name="e_wo_entrp">   -225.44834792 </i>
    <i name="e_0_energy">   -225.44961341 </i>
   </energy>
  </scstep>
  <scstep>
   <time name="total">   27.85   28.06</time>
   <energy>
    <i name="e_fr_energy">   -225.45087893 </i>
    <i name="e_wo_entrp">   -225.44834792 </i>
    <i name="e_0_energy">   -225.44961342 </i>
   </energy>
  </scstep>
  <scstep>
   <time name="total">   27.97   28.18</time>
   <energy>
    <i name="e_fr_energy">   -225.45087893 </i>
    <i name="e_wo_entrp">   -225.44834793 </i>
    <i name="e_0_energy">   -225.44961343 </i>
   </energy>
  </scstep>
  <scstep>
   <time name="total">   27.78   27.99</time>
   <energy>
    <i name="e_fr_energy">   -225.45087893 </i>
    <i name="e_wo_entrp">   -225.44834792 </i>
    <i name="e_0_energy">   -225.44961343 </i>
   </energy>
  </scstep>
  <scstep>
   <time name="total">   28.45   28.66</time>
   <energy>
    <i name="e_fr_energy">   -225.45087893 </i>
    <i name="e_wo_entrp">   -225.44834792 </i>
    <i name="e_0_energy">   -225.44961343 </i>
   </energy>
  </scstep>
  <scstep>
   <time name="total">   32.06   32.30</time>
   <energy>
    <i name="alphaZ">    664.10051527 </i>
    <i name="ewald"> -10082.15205654 </i>
    <i name="hartreedc">  -2183.41811077 </i>
    <i name="XCdc">    531.61517919 </i>
    <i name="pawpsdc">  14646.96288172 </i>
    <i name="pawaedc"> -14624.81135628 </i>
    <i name="eentropy">     -0.00253101 </i>
    <i name="bandstr">  -1126.93045024 </i>
    <i name="atom">  11949.18504973 </i>
    <i name="e_fr_energy">   -225.45087893 </i>
    <i name="e_wo_entrp">   -225.44834792 </i>
    <i name="e_0_energy">   -225.44961342 </i>
   </energy>
  </scstep>
  <structure>
   <crystal>
    <varray name="basis" >
     <v>       5.44483833       0.00000000      -3.01092191 </v>
     <v>      -1.89368244       5.10492225      -3.01092191 </v>
     <v>       0.00000000       0.00000000       6.22189000 </v>
    </varray>
    <i name="volume">    172.94039637 </i>
    <varray name="rec_basis" >
     <v>       0.18366018       0.06812916       0.00000000 </v>
     <v>       0.00000000       0.19588937       0.00000000 </v>
     <v>       0.08887757       0.12776490       0.16072287 </v>
    </varray>
   </crystal>
   <varray name="positions" >
    <v>       0.63504000       0.13504000       0.19049000 </v>
    <v>       0.36496000       0.86496000       0.80951000 </v>
    <v>       0.13504000       0.94455000       0.50000000 </v>
    <v>       0.86496000       0.05545000       0.50000000 </v>
    <v>       0.94455000       0.44455000       0.80951000 </v>
    <v>       0.05545000       0.55545000       0.19049000 </v>
    <v>       0.44455000       0.63504000       0.50000000 </v>
    <v>       0.55545000       0.36496000       0.50000000 </v>
    <v>       0.13892000       0.36108000       0.50000000 </v>
    <v>       0.25000000       0.25000000       0.00000000 </v>
    <v>       0.86108000       0.63892000       0.50000000 </v>
    <v>       0.75000000       0.75000000       0.00000000 </v>
    <v>       0.36108000       0.86108000       0.22215000 </v>
    <v>       0.63892000       0.13892000       0.77785000 </v>
    <v>       0.50000000       0.50000000       0.00000000 </v>
    <v>       0.00000000       0.00000000       0.00000000 </v>
   </varray>
  </structure>
  <varray name="forces" >
   <v>       0.00000000       0.00000000       0.00000000 </v>
   <v>       0.00000000       0.00000000       0.00000000 </v>
   <v>       0.00000000       0.00000000       0.00000000 </v>
   <v>       0.00000000       0.00000000       0.00000000 </v>
   <v>       0.00000000       0.00000000       0.00000000 </v>
   <v>       0.00000000       0.00000000       0.00000000 </v>
   <v>       0.00000000       0.00000000       0.00000000 </v>
   <v>       0.00000000       0.00000000       0.00000000 </v>
   <v>       0.00000000       0.00000000       0.00000000 </v>
   <v>       0.00000000       0.00000000       0.00000000 </v>
   <v>       0.00000000       0.00000000       0.00000000 </v>
   <v>       0.00000000       0.00000000       0.00000000 </v>
   <v>       0.00000000       0.00000000       0.00000000 </v>
   <v>       0.00000000       0.00000000       0.00000000 </v>
   <v>       0.00000000       0.00000000       0.00000000 </v>
   <v>       0.00000000       0.00000000       0.00000000 </v>
  </varray>
  <varray name="stress" >
   <v>       0.00000000       0.00000000       0.00000000 </v>
   <v>       0.00000000       0.00000000       0.00000000 </v>
   <v>       0.00000000       0.00000000       0.00000000 </v>
  </varray>
  <energy>
   <i name="e_fr_energy">   -225.45087893 </i>
   <i name="e_wo_entrp">   -225.44834792 </i>
   <i name="e_0_energy">   -225.44961342 </i>
  </energy>
  <time name="totalsc"> 1057.94 1065.98</time>
  <eigenvalues>
   <array>
    <dimension dim="1">band</dimension>
    <dimension dim="2">kpoint</dimension>
    <dimension dim="3">spin</dimension>
    <field>eigene</field>
    <field>occ</field>
    <set>
     <set comment="spin 1">
      <set comment="kpoint 1">
       <r>  -52.0663    1.0000 </r>
       <r>  -52.0607    1.0000 </r>
       <r>  -51.9165    1.0000 </r>
       <r>  -51.9060    1.0000 </r>
       <r>  -51.7447    1.0000 </r>
       <r>  -51.7437    1.0000 </r>
       <r>  -25.9425    1.0000 </r>
       <r>  -25.8945    1.0000 </r>
       <r>  -25.7887    1.0000 </r>
       <r>  -25.7168    1.0000 </r>
       <r>  -25.5508    1.0000 </r>
       <r>  -25.5506    1.0000 </r>
       <r>  -25.5487    1.0000 </r>
       <r>  -25.5483    1.0000 </r>
       <r>  -25.3907    1.0000 </r>
       <r>  -25.3770    1.0000 </r>
       <r>  -25.3227    1.0000 </r>
       <r>  -25.3217    1.0000 </r>
       <r>  -25.2369    1.0000 </r>
       <r>  -25.2108    1.0000 </r>
       <r>  -25.2099    1.0000 </r>
       <r>  -25.1827    1.0000 </r>
       <r>  -24.6512    1.0000 </r>
       <r>  -24.6504    1.0000 </r>
       <r>   -2.6303    1.0000 </r>
       <r>    0.5452    1.0000 </r>
       <r>    0.8772    1.0000 </r>
       <r>    1.3068    1.0000 </r>
       <r>    1.3076    1.0000 </r>
       <r>    1.6473    1.0000 </r>
       <r>    2.9244    1.0000 </r>
       <r>    3.4270    1.0000 </r>
       <r>    3.9302    1.0000 </r>
       <r>    3.9311    1.0000 </r>
       <r>    4.4714    1.0000 </r>
       <r>    4.4715    1.0000 </r>
       <r>    5.7833    1.0000 </r>
       <r>    6.2186    1.0000 </r>
       <r>    6.2533    1.0000 </r>
       <r>    6.2669    1.0000 </r>
       <r>    6.5239    1.0000 </r>
       <r>    6.9270    1.0000 </r>
       <r>    6.9274    1.0000 </r>
       <r>    7.0728    1.0000 </r>
       <r>    7.0729    1.0000 </r>
       <r>    7.4448    1.0000 </r>
       <r>    7.6611    1.0000 </r>
       <r>    8.1533    1.0000 </r>
       <r>    8.3818    1.0000 </r>
       <r>    8.4613    1.0000 </r>
       <r>    8.4622    1.0000 </r>
       <r>    8.8392    1.0000 </r>
       <r>    9.1532    1.0000 </r>
       <r>    9.1534    1.0000 </r>
       <r>   10.2754    1.0000 </r>
       <r>   10.4313    1.0000 </r>
       <r>   10.6061    1.0000 </r>
       <r>   10.6722    1.0000 </r>
       <r>   10.9508    1.0000 </r>
       <r>   11.1033    1.0000 </r>
       <r>   11.1038    1.0000 </r>
       <r>   12.1303    0.0000 </r>
       <r>   12.1305    0.0000 </r>
       <r>   13.3704    0.0000 </r>
       <r>   13.4983    0.0000 </r>
       <r>   13.4984    0.0000 </r>
       <r>   13.9434    0.0000 </r>
       <r>   14.2150    0.0000 </r>
       <r>   14.2410    0.0000 </r>
       <r>   14.3665    0.0000 </r>
       <r>   14.6895    0.0000 </r>
       <r>   15.1185    0.0000 </r>
      </set>
      <set comment="kpoint 2">
       <r>  -52.0658    1.0000 </r>
       <r>  -52.0608    1.0000 </r>
       <r>  -51.9164    1.0000 </r>
       <r>  -51.9067    1.0000 </r>
       <r>  -51.7447    1.0000 </r>
       <r>  -51.7436    1.0000 </r>
       <r>  -25.9378    1.0000 </r>
       <r>  -25.8947    1.0000 </r>
       <r>  -25.7869    1.0000 </r>
       <r>  -25.7204    1.0000 </r>
       <r>  -25.5557    1.0000 </r>
       <r>  -25.5550    1.0000 </r>
       <r>  -25.5386    1.0000 </r>
       <r>  -25.5369    1.0000 </r>
       <r>  -25.3845    1.0000 </r>
       <r>  -25.3801    1.0000 </r>
       <r>  -25.3278    1.0000 </r>
       <r>  -25.3236    1.0000 </r>
       <r>  -25.2387    1.0000 </r>
       <r>  -25.2153    1.0000 </r>
       <r>  -25.2126    1.0000 </r>
       <r>  -25.1843    1.0000 </r>
       <r>  -24.6519    1.0000 </r>
       <r>  -24.6510    1.0000 </r>
       <r>   -2.5075    1.0000 </r>
       <r>    0.3357    1.0000 </r>
       <r>    0.9147    1.0000 </r>
       <r>    1.2881    1.0000 </r>
       <r>    1.2998    1.0000 </r>
       <r>    1.6192    1.0000 </r>
       <r>    2.5887    1.0000 </r>
       <r>    3.7554    1.0000 </r>
       <r>    4.0060    1.0000 </r>
       <r>    4.1050    1.0000 </r>
       <r>    4.1342    1.0000 </r>
       <r>    4.6458    1.0000 </r>
       <r>    5.9156    1.0000 </r>
       <r>    6.0088    1.0000 </r>
       <r>    6.2234    1.0000 </r>
       <r>    6.3029    1.0000 </r>
       <r>    6.4096    1.0000 </r>
       <r>    6.7540    1.0000 </r>
       <r>    6.8697    1.0000 </r>
       <r>    7.1673    1.0000 </r>
       <r>    7.1916    1.0000 </r>
       <r>    7.5888    1.0000 </r>
       <r>    7.8324    1.0000 </r>
       <r>    8.0087    1.0000 </r>
       <r>    8.2925    1.0000 </r>
       <r>    8.3462    1.0000 </r>
       <r>    8.4933    1.0000 </r>
       <r>    8.8038    1.0000 </r>
       <r>    9.1820    1.0000 </r>
       <r>    9.5151    1.0000 </r>
       <r>   10.1295    1.0000 </r>
       <r>   10.3182    1.0000 </r>
       <r>   10.6626    1.0000 </r>
       <r>   10.8217    1.0000 </r>
       <r>   10.9710    1.0000 </r>
       <r>   11.2457    1.0000 </r>
       <r>   11.5713    0.0000 </r>
       <r>   12.3596    0.0000 </r>
       <r>   12.4790    0.0000 </r>
       <r>   12.9515    0.0000 </r>
       <r>   13.2948    0.0000 </r>
       <r>   13.3026    0.0000 </r>
       <r>   13.9040    0.0000 </r>
       <r>   13.9403    0.0000 </r>
       <r>   14.1547    0.0000 </r>
       <r>   14.1961    0.0000 </r>
       <r>   14.3364    0.0000 </r>
       <r>   14.7221    0.0000 </r>
      </set>
      <set comment="kpoint 3">
       <r>  -52.0645    1.0000 </r>
       <r>  -52.0612    1.0000 </r>
       <r>  -51.9156    1.0000 </r>
       <r>  -51.9087    1.0000 </r>
       <r>  -51.7446    1.0000 </r>
       <r>  -51.7435    1.0000 </r>
       <r>  -25.9267    1.0000 </r>
       <r>  -25.8969    1.0000 </r>
       <r>  -25.7790    1.0000 </r>
       <r>  -25.7304    1.0000 </r>
       <r>  -25.5520    1.0000 </r>
       <r>  -25.5518    1.0000 </r>
       <r>  -25.5308    1.0000 </r>
       <r>  -25.5225    1.0000 </r>
       <r>  -25.3894    1.0000 </r>
       <r>  -25.3721    1.0000 </r>
       <r>  -25.3343    1.0000 </r>
       <r>  -25.3290    1.0000 </r>
       <r>  -25.2467    1.0000 </r>
       <r>  -25.2210    1.0000 </r>
       <r>  -25.2189    1.0000 </r>
       <r>  -25.1910    1.0000 </r>
       <r>  -24.6535    1.0000 </r>
       <r>  -24.6523    1.0000 </r>
       <r>   -2.1513    1.0000 </r>
       <r>   -0.2168    1.0000 </r>
       <r>    0.9996    1.0000 </r>
       <r>    1.2250    1.0000 </r>
       <r>    1.2844    1.0000 </r>
       <r>    1.6525    1.0000 </r>
       <r>    2.2662    1.0000 </r>
       <r>    3.3777    1.0000 </r>
       <r>    3.8854    1.0000 </r>
       <r>    4.3667    1.0000 </r>
       <r>    4.7974    1.0000 </r>
       <r>    5.1200    1.0000 </r>
       <r>    5.3930    1.0000 </r>
       <r>    5.9770    1.0000 </r>
       <r>    6.1149    1.0000 </r>
       <r>    6.3266    1.0000 </r>
       <r>    6.4842    1.0000 </r>
       <r>    6.7033    1.0000 </r>
       <r>    6.7649    1.0000 </r>
       <r>    7.1881    1.0000 </r>
       <r>    7.2670    1.0000 </r>
       <r>    7.5391    1.0000 </r>
       <r>    7.6950    1.0000 </r>
       <r>    7.9091    1.0000 </r>
       <r>    7.9994    1.0000 </r>
       <r>    8.2872    1.0000 </r>
       <r>    8.8821    1.0000 </r>
       <r>    9.0347    1.0000 </r>
       <r>    9.4793    1.0000 </r>
       <r>    9.4962    1.0000 </r>
       <r>   10.0541    1.0000 </r>
       <r>   10.3567    1.0000 </r>
       <r>   10.9236    1.0000 </r>
       <r>   11.2984    1.0000 </r>
       <r>   11.4266    1.0000 </r>
       <r>   11.7305    0.0000 </r>
       <r>   12.0105    0.0000 </r>
       <r>   12.1410    0.0000 </r>
       <r>   12.4639    0.0000 </r>
       <r>   12.8668    0.0000 </r>
       <r>   12.8729    0.0000 </r>
       <r>   13.0423    0.0000 </r>
       <r>   13.6120    0.0000 </r>
       <r>   13.6188    0.0000 </r>
       <r>   13.9341    0.0000 </r>
       <r>   14.0114    0.0000 </r>
       <r>   14.2465    0.0000 </r>
       <r>   14.5656    0.0000 </r>
      </set>
      <set comment="kpoint 4">
       <r>  -52.0630    1.0000 </r>
       <r>  -52.0619    1.0000 </r>
       <r>  -51.9140    1.0000 </r>
       <r>  -51.9112    1.0000 </r>
       <r>  -51.7445    1.0000 </r>
       <r>  -51.7435    1.0000 </r>
       <r>  -25.9142    1.0000 </r>
       <r>  -25.9036    1.0000 </r>
       <r>  -25.7637    1.0000 </r>
       <r>  -25.7457    1.0000 </r>
       <r>  -25.5442    1.0000 </r>
       <r>  -25.5417    1.0000 </r>
       <r>  -25.5279    1.0000 </r>
       <r>  -25.5193    1.0000 </r>
       <r>  -25.3897    1.0000 </r>
       <r>  -25.3741    1.0000 </r>
       <r>  -25.3353    1.0000 </r>
       <r>  -25.3341    1.0000 </r>
       <r>  -25.2480    1.0000 </r>
       <r>  -25.2351    1.0000 </r>
       <r>  -25.2135    1.0000 </r>
       <r>  -25.2025    1.0000 </r>
       <r>  -24.6544    1.0000 </r>
       <r>  -24.6534    1.0000 </r>
       <r>   -1.5996    1.0000 </r>
       <r>   -0.9188    1.0000 </r>
       <r>    1.0611    1.0000 </r>
       <r>    1.1242    1.0000 </r>
       <r>    1.4037    1.0000 </r>
       <r>    1.6004    1.0000 </r>
       <r>    2.3069    1.0000 </r>
       <r>    2.7445    1.0000 </r>
       <r>    4.1125    1.0000 </r>
       <r>    4.4503    1.0000 </r>
       <r>    5.1081    1.0000 </r>
       <r>    5.2979    1.0000 </r>
       <r>    5.6997    1.0000 </r>
       <r>    5.8930    1.0000 </r>
       <r>    6.1334    1.0000 </r>
       <r>    6.3306    1.0000 </r>
       <r>    6.4519    1.0000 </r>
       <r>    6.5856    1.0000 </r>
       <r>    6.6694    1.0000 </r>
       <r>    6.8707    1.0000 </r>
       <r>    7.3561    1.0000 </r>
       <r>    7.4843    1.0000 </r>
       <r>    7.5980    1.0000 </r>
       <r>    7.6416    1.0000 </r>
       <r>    8.0311    1.0000 </r>
       <r>    8.5296    1.0000 </r>
       <r>    8.5957    1.0000 </r>
       <r>    8.7927    1.0000 </r>
       <r>    9.8790    1.0000 </r>
       <r>    9.8879    1.0000 </r>
       <r>   10.5540    1.0000 </r>
       <r>   10.7482    1.0000 </r>
       <r>   11.1564    1.0000 </r>
       <r>   11.1830    1.0000 </r>
       <r>   11.7779    0.0000 </r>
       <r>   11.8430    0.0000 </r>
       <r>   11.9516    0.0000 </r>
       <r>   12.0744    0.0000 </r>
       <r>   12.4620    0.0000 </r>
       <r>   12.5995    0.0000 </r>
       <r>   12.7073    0.0000 </r>
       <r>   12.8018    0.0000 </r>
       <r>   13.3233    0.0000 </r>
       <r>   13.4420    0.0000 </r>
       <r>   14.0321    0.0000 </r>
       <r>   14.1337    0.0000 </r>
       <r>   14.3218    0.0000 </r>
       <r>   14.6007    0.0000 </r>
      </set>
      <set comment="kpoint 5">
       <r>  -52.0649    1.0000 </r>
       <r>  -52.0611    1.0000 </r>
       <r>  -51.9164    1.0000 </r>
       <r>  -51.9074    1.0000 </r>
       <r>  -51.7447    1.0000 </r>
       <r>  -51.7435    1.0000 </r>
       <r>  -25.9269    1.0000 </r>
       <r>  -25.8988    1.0000 </r>
       <r>  -25.7853    1.0000 </r>
       <r>  -25.7207    1.0000 </r>
       <r>  -25.5593    1.0000 </r>
       <r>  -25.5532    1.0000 </r>
       <r>  -25.5288    1.0000 </r>
       <r>  -25.5239    1.0000 </r>
       <r>  -25.3890    1.0000 </r>
       <r>  -25.3772    1.0000 </r>
       <r>  -25.3335    1.0000 </r>
       <r>  -25.3289    1.0000 </r>
       <r>  -25.2467    1.0000 </r>
       <r>  -25.2191    1.0000 </r>
       <r>  -25.2170    1.0000 </r>
       <r>  -25.1860    1.0000 </r>
       <r>  -24.6526    1.0000 </r>
       <r>  -24.6508    1.0000 </r>
       <r>   -2.3067    1.0000 </r>
       <r>    0.1718    1.0000 </r>
       <r>    0.7986    1.0000 </r>
       <r>    0.9760    1.0000 </r>
       <r>    1.4406    1.0000 </r>
       <r>    1.7596    1.0000 </r>
       <r>    2.2501    1.0000 </r>
       <r>    3.8802    1.0000 </r>
       <r>    4.0702    1.0000 </r>
       <r>    4.2049    1.0000 </r>
       <r>    4.4007    1.0000 </r>
       <r>    4.7570    1.0000 </r>
       <r>    5.5196    1.0000 </r>
       <r>    5.8951    1.0000 </r>
       <r>    6.2817    1.0000 </r>
       <r>    6.3062    1.0000 </r>
       <r>    6.4362    1.0000 </r>
       <r>    6.6953    1.0000 </r>
       <r>    6.8014    1.0000 </r>
       <r>    7.0546    1.0000 </r>
       <r>    7.3609    1.0000 </r>
       <r>    7.4833    1.0000 </r>
       <r>    7.8897    1.0000 </r>
       <r>    8.1350    1.0000 </r>
       <r>    8.1564    1.0000 </r>
       <r>    8.2409    1.0000 </r>
       <r>    8.7093    1.0000 </r>
       <r>    8.8112    1.0000 </r>
       <r>    9.3011    1.0000 </r>
       <r>    9.9461    1.0000 </r>
       <r>    9.9997    1.0000 </r>
       <r>   10.4390    1.0000 </r>
       <r>   10.5119    1.0000 </r>
       <r>   11.2151    1.0000 </r>
       <r>   11.2280    1.0000 </r>
       <r>   11.5831    0.0000 </r>
       <r>   11.7189    0.0000 </r>
       <r>   12.2621    0.0000 </r>
       <r>   12.6861    0.0000 </r>
       <r>   12.7436    0.0000 </r>
       <r>   12.7852    0.0000 </r>
       <r>   13.2906    0.0000 </r>
       <r>   13.5847    0.0000 </r>
       <r>   13.7927    0.0000 </r>
       <r>   13.8301    0.0000 </r>
       <r>   14.0487    0.0000 </r>
       <r>   14.3966    0.0000 </r>
       <r>   14.8273    0.0000 </r>
      </set>
      <set comment="kpoint 6">
       <r>  -52.0635    1.0000 </r>
       <r>  -52.0616    1.0000 </r>
       <r>  -51.9158    1.0000 </r>
       <r>  -51.9091    1.0000 </r>
       <r>  -51.7446    1.0000 </r>
       <r>  -51.7435    1.0000 </r>
       <r>  -25.9121    1.0000 </r>
       <r>  -25.9052    1.0000 </r>
       <r>  -25.7781    1.0000 </r>
       <r>  -25.7286    1.0000 </r>
       <r>  -25.5532    1.0000 </r>
       <r>  -25.5433    1.0000 </r>
       <r>  -25.5282    1.0000 </r>
       <r>  -25.5151    1.0000 </r>
       <r>  -25.3931    1.0000 </r>
       <r>  -25.3696    1.0000 </r>
       <r>  -25.3425    1.0000 </r>
       <r>  -25.3307    1.0000 </r>
       <r>  -25.2538    1.0000 </r>
       <r>  -25.2304    1.0000 </r>
       <r>  -25.2175    1.0000 </r>
       <r>  -25.1933    1.0000 </r>
       <r>  -24.6536    1.0000 </r>
       <r>  -24.6514    1.0000 </r>
       <r>   -1.8912    1.0000 </r>
       <r>   -0.3430    1.0000 </r>
       <r>    0.5582    1.0000 </r>
       <r>    1.0184    1.0000 </r>
       <r>    1.4256    1.0000 </r>
       <r>    1.8420    1.0000 </r>
       <r>    2.1650    1.0000 </r>
       <r>    3.4965    1.0000 </r>
       <r>    4.0559    1.0000 </r>
       <r>    4.4238    1.0000 </r>
       <r>    4.8146    1.0000 </r>
       <r>    5.0954    1.0000 </r>
       <r>    5.3868    1.0000 </r>
       <r>    5.8109    1.0000 </r>
       <r>    6.1822    1.0000 </r>
       <r>    6.3272    1.0000 </r>
       <r>    6.5484    1.0000 </r>
       <r>    6.6147    1.0000 </r>
       <r>    6.7871    1.0000 </r>
       <r>    7.0494    1.0000 </r>
       <r>    7.0952    1.0000 </r>
       <r>    7.4151    1.0000 </r>
       <r>    7.7299    1.0000 </r>
       <r>    7.8277    1.0000 </r>
       <r>    8.1803    1.0000 </r>
       <r>    8.3484    1.0000 </r>
       <r>    8.7427    1.0000 </r>
       <r>    8.9092    1.0000 </r>
       <r>    9.5602    1.0000 </r>
       <r>   10.0785    1.0000 </r>
       <r>   10.4075    1.0000 </r>
       <r>   10.6969    1.0000 </r>
       <r>   10.9415    1.0000 </r>
       <r>   11.4833    0.6304 </r>
       <r>   11.5881    0.0000 </r>
       <r>   11.7186    0.0000 </r>
       <r>   11.9102    0.0000 </r>
       <r>   12.1419    0.0000 </r>
       <r>   12.2843    0.0000 </r>
       <r>   12.5104    0.0000 </r>
       <r>   12.8724    0.0000 </r>
       <r>   13.0009    0.0000 </r>
       <r>   13.2363    0.0000 </r>
       <r>   13.4845    0.0000 </r>
       <r>   13.9628    0.0000 </r>
       <r>   14.1448    0.0000 </r>
       <r>   14.1695    0.0000 </r>
       <r>   14.5806    0.0000 </r>
      </set>
      <set comment="kpoint 7">
       <r>  -52.0624    1.0000 </r>
       <r>  -52.0622    1.0000 </r>
       <r>  -51.9142    1.0000 </r>
       <r>  -51.9113    1.0000 </r>
       <r>  -51.7445    1.0000 </r>
       <r>  -51.7435    1.0000 </r>
       <r>  -25.9143    1.0000 </r>
       <r>  -25.8995    1.0000 </r>
       <r>  -25.7648    1.0000 </r>
       <r>  -25.7439    1.0000 </r>
       <r>  -25.5477    1.0000 </r>
       <r>  -25.5362    1.0000 </r>
       <r>  -25.5276    1.0000 </r>
       <r>  -25.5181    1.0000 </r>
       <r>  -25.3821    1.0000 </r>
       <r>  -25.3767    1.0000 </r>
       <r>  -25.3448    1.0000 </r>
       <r>  -25.3313    1.0000 </r>
       <r>  -25.2473    1.0000 </r>
       <r>  -25.2428    1.0000 </r>
       <r>  -25.2121    1.0000 </r>
       <r>  -25.2052    1.0000 </r>
       <r>  -24.6534    1.0000 </r>
       <r>  -24.6532    1.0000 </r>
       <r>   -1.3129    1.0000 </r>
       <r>   -1.0528    1.0000 </r>
       <r>    0.5867    1.0000 </r>
       <r>    0.9554    1.0000 </r>
       <r>    1.5843    1.0000 </r>
       <r>    1.6048    1.0000 </r>
       <r>    2.5243    1.0000 </r>
       <r>    2.9263    1.0000 </r>
       <r>    4.1429    1.0000 </r>
       <r>    4.3209    1.0000 </r>
       <r>    5.2546    1.0000 </r>
       <r>    5.3710    1.0000 </r>
       <r>    5.5248    1.0000 </r>
       <r>    5.8749    1.0000 </r>
       <r>    6.1866    1.0000 </r>
       <r>    6.2768    1.0000 </r>
       <r>    6.4615    1.0000 </r>
       <r>    6.5126    1.0000 </r>
       <r>    6.6715    1.0000 </r>
       <r>    6.8385    1.0000 </r>
       <r>    7.1596    1.0000 </r>
       <r>    7.3081    1.0000 </r>
       <r>    7.4271    1.0000 </r>
       <r>    7.7056    1.0000 </r>
       <r>    8.2621    1.0000 </r>
       <r>    8.4605    1.0000 </r>
       <r>    8.6970    1.0000 </r>
       <r>    8.8108    1.0000 </r>
       <r>    9.9473    1.0000 </r>
       <r>   10.2366    1.0000 </r>
       <r>   10.7253    1.0000 </r>
       <r>   10.9362    1.0000 </r>
       <r>   11.1488    1.0000 </r>
       <r>   11.2520    1.0000 </r>
       <r>   11.6932    0.0000 </r>
       <r>   11.7897    0.0000 </r>
       <r>   11.9435    0.0000 </r>
       <r>   12.0086    0.0000 </r>
       <r>   12.4653    0.0000 </r>
       <r>   12.5188    0.0000 </r>
       <r>   12.7250    0.0000 </r>
       <r>   12.8129    0.0000 </r>
       <r>   13.3111    0.0000 </r>
       <r>   13.4323    0.0000 </r>
       <r>   14.0469    0.0000 </r>
       <r>   14.1940    0.0000 </r>
       <r>   14.2957    0.0000 </r>
       <r>   14.6681    0.0000 </r>
      </set>
      <set comment="kpoint 8">
       <r>  -52.0636    1.0000 </r>
       <r>  -52.0613    1.0000 </r>
       <r>  -51.9137    1.0000 </r>
       <r>  -51.9114    1.0000 </r>
       <r>  -51.7444    1.0000 </r>
       <r>  -51.7436    1.0000 </r>
       <r>  -25.9247    1.0000 </r>
       <r>  -25.8915    1.0000 </r>
       <r>  -25.7627    1.0000 </r>
       <r>  -25.7497    1.0000 </r>
       <r>  -25.5595    1.0000 </r>
       <r>  -25.5348    1.0000 </r>
       <r>  -25.5280    1.0000 </r>
       <r>  -25.5180    1.0000 </r>
       <r>  -25.3896    1.0000 </r>
       <r>  -25.3617    1.0000 </r>
       <r>  -25.3422    1.0000 </r>
       <r>  -25.3321    1.0000 </r>
       <r>  -25.2491    1.0000 </r>
       <r>  -25.2317    1.0000 </r>
       <r>  -25.2171    1.0000 </r>
       <r>  -25.2006    1.0000 </r>
       <r>  -24.6552    1.0000 </r>
       <r>  -24.6521    1.0000 </r>
       <r>   -1.7026    1.0000 </r>
       <r>   -0.6549    1.0000 </r>
       <r>    0.7228    1.0000 </r>
       <r>    0.8766    1.0000 </r>
       <r>    1.4075    1.0000 </r>
       <r>    1.8861    1.0000 </r>
       <r>    2.4603    1.0000 </r>
       <r>    3.0175    1.0000 </r>
       <r>    3.8406    1.0000 </r>
       <r>    4.6477    1.0000 </r>
       <r>    4.9518    1.0000 </r>
       <r>    5.3905    1.0000 </r>
       <r>    5.5648    1.0000 </r>
       <r>    5.8213    1.0000 </r>
       <r>    6.1102    1.0000 </r>
       <r>    6.3713    1.0000 </r>
       <r>    6.3810    1.0000 </r>
       <r>    6.5704    1.0000 </r>
       <r>    6.6898    1.0000 </r>
       <r>    7.0589    1.0000 </r>
       <r>    7.1173    1.0000 </r>
       <r>    7.2468    1.0000 </r>
       <r>    7.4585    1.0000 </r>
       <r>    7.7873    1.0000 </r>
       <r>    8.0957    1.0000 </r>
       <r>    8.4217    1.0000 </r>
       <r>    8.7598    1.0000 </r>
       <r>    9.1704    1.0000 </r>
       <r>    9.7059    1.0000 </r>
       <r>    9.9869    1.0000 </r>
       <r>   10.3835    1.0000 </r>
       <r>   10.6141    1.0000 </r>
       <r>   11.0532    1.0000 </r>
       <r>   11.3553    1.0000 </r>
       <r>   11.6570    0.0000 </r>
       <r>   11.9188    0.0000 </r>
       <r>   12.0900    0.0000 </r>
       <r>   12.2371    0.0000 </r>
       <r>   12.5120    0.0000 </r>
       <r>   12.5561    0.0000 </r>
       <r>   12.7803    0.0000 </r>
       <r>   12.9976    0.0000 </r>
       <r>   13.3450    0.0000 </r>
       <r>   13.6780    0.0000 </r>
       <r>   13.9463    0.0000 </r>
       <r>   14.1257    0.0000 </r>
       <r>   14.5068    0.0000 </r>
       <r>   14.6125    0.0000 </r>
      </set>
      <set comment="kpoint 9">
       <r>  -52.0649    1.0000 </r>
       <r>  -52.0609    1.0000 </r>
       <r>  -51.9151    1.0000 </r>
       <r>  -51.9091    1.0000 </r>
       <r>  -51.7444    1.0000 </r>
       <r>  -51.7437    1.0000 </r>
       <r>  -25.9342    1.0000 </r>
       <r>  -25.8891    1.0000 </r>
       <r>  -25.7781    1.0000 </r>
       <r>  -25.7364    1.0000 </r>
       <r>  -25.5654    1.0000 </r>
       <r>  -25.5432    1.0000 </r>
       <r>  -25.5305    1.0000 </r>
       <r>  -25.5270    1.0000 </r>
       <r>  -25.3863    1.0000 </r>
       <r>  -25.3628    1.0000 </r>
       <r>  -25.3376    1.0000 </r>
       <r>  -25.3276    1.0000 </r>
       <r>  -25.2393    1.0000 </r>
       <r>  -25.2244    1.0000 </r>
       <r>  -25.2198    1.0000 </r>
       <r>  -25.1899    1.0000 </r>
       <r>  -24.6556    1.0000 </r>
       <r>  -24.6507    1.0000 </r>
       <r>   -2.1922    1.0000 </r>
       <r>   -0.0425    1.0000 </r>
       <r>    0.8427    1.0000 </r>
       <r>    0.8581    1.0000 </r>
       <r>    1.3624    1.0000 </r>
       <r>    2.0103    1.0000 </r>
       <r>    2.3697    1.0000 </r>
       <r>    3.5838    1.0000 </r>
       <r>    3.7211    1.0000 </r>
       <r>    4.3204    1.0000 </r>
       <r>    4.6211    1.0000 </r>
       <r>    4.8935    1.0000 </r>
       <r>    5.5343    1.0000 </r>
       <r>    6.1170    1.0000 </r>
       <r>    6.1724    1.0000 </r>
       <r>    6.2927    1.0000 </r>
       <r>    6.4924    1.0000 </r>
       <r>    6.6201    1.0000 </r>
       <r>    6.8895    1.0000 </r>
       <r>    7.1084    1.0000 </r>
       <r>    7.3303    1.0000 </r>
       <r>    7.3720    1.0000 </r>
       <r>    7.7194    1.0000 </r>
       <r>    7.9450    1.0000 </r>
       <r>    7.9770    1.0000 </r>
       <r>    8.2894    1.0000 </r>
       <r>    8.6398    1.0000 </r>
       <r>    9.1495    1.0000 </r>
       <r>    9.4117    1.0000 </r>
       <r>    9.6231    1.0000 </r>
       <r>   10.1227    1.0000 </r>
       <r>   10.3019    1.0000 </r>
       <r>   10.6391    1.0000 </r>
       <r>   11.3161    1.0000 </r>
       <r>   11.3508    1.0000 </r>
       <r>   11.9360    0.0000 </r>
       <r>   12.1140    0.0000 </r>
       <r>   12.2291    0.0000 </r>
       <r>   12.5994    0.0000 </r>
       <r>   12.7417    0.0000 </r>
       <r>   13.0431    0.0000 </r>
       <r>   13.2045    0.0000 </r>
       <r>   13.5250    0.0000 </r>
       <r>   13.8968    0.0000 </r>
       <r>   13.9392    0.0000 </r>
       <r>   14.1849    0.0000 </r>
       <r>   14.3743    0.0000 </r>
       <r>   14.7088    0.0000 </r>
      </set>
      <set comment="kpoint 10">
       <r>  -52.0658    1.0000 </r>
       <r>  -52.0607    1.0000 </r>
       <r>  -51.9159    1.0000 </r>
       <r>  -51.9073    1.0000 </r>
       <r>  -51.7445    1.0000 </r>
       <r>  -51.7437    1.0000 </r>
       <r>  -25.9400    1.0000 </r>
       <r>  -25.8911    1.0000 </r>
       <r>  -25.7853    1.0000 </r>
       <r>  -25.7262    1.0000 </r>
       <r>  -25.5604    1.0000 </r>
       <r>  -25.5459    1.0000 </r>
       <r>  -25.5416    1.0000 </r>
       <r>  -25.5386    1.0000 </r>
       <r>  -25.3838    1.0000 </r>
       <r>  -25.3736    1.0000 </r>
       <r>  -25.3271    1.0000 </r>
       <r>  -25.3252    1.0000 </r>
       <r>  -25.2351    1.0000 </r>
       <r>  -25.2176    1.0000 </r>
       <r>  -25.2150    1.0000 </r>
       <r>  -25.1851    1.0000 </r>
       <r>  -24.6541    1.0000 </r>
       <r>  -24.6502    1.0000 </r>
       <r>   -2.4690    1.0000 </r>
       <r>    0.3165    1.0000 </r>
       <r>    0.8881    1.0000 </r>
       <r>    0.9785    1.0000 </r>
       <r>    1.4928    1.0000 </r>
       <r>    1.7094    1.0000 </r>
       <r>    2.6904    1.0000 </r>
       <r>    3.7195    1.0000 </r>
       <r>    3.8784    1.0000 </r>
       <r>    4.1678    1.0000 </r>
       <r>    4.2097    1.0000 </r>
       <r>    4.4431    1.0000 </r>
       <r>    5.9650    1.0000 </r>
       <r>    6.1159    1.0000 </r>
       <r>    6.1833    1.0000 </r>
       <r>    6.3991    1.0000 </r>
       <r>    6.4202    1.0000 </r>
       <r>    6.6594    1.0000 </r>
       <r>    6.9781    1.0000 </r>
       <r>    7.0385    1.0000 </r>
       <r>    7.5113    1.0000 </r>
       <r>    7.5788    1.0000 </r>
       <r>    7.6892    1.0000 </r>
       <r>    8.1401    1.0000 </r>
       <r>    8.1577    1.0000 </r>
       <r>    8.1687    1.0000 </r>
       <r>    8.3034    1.0000 </r>
       <r>    8.7410    1.0000 </r>
       <r>    9.2641    1.0000 </r>
       <r>    9.8140    1.0000 </r>
       <r>    9.8279    1.0000 </r>
       <r>   10.4704    1.0000 </r>
       <r>   10.5075    1.0000 </r>
       <r>   10.9104    1.0000 </r>
       <r>   11.0154    1.0000 </r>
       <r>   11.5542    0.0000 </r>
       <r>   11.7160    0.0000 </r>
       <r>   12.0989    0.0000 </r>
       <r>   12.8527    0.0000 </r>
       <r>   13.0262    0.0000 </r>
       <r>   13.0883    0.0000 </r>
       <r>   13.2109    0.0000 </r>
       <r>   13.8706    0.0000 </r>
       <r>   14.0276    0.0000 </r>
       <r>   14.1880    0.0000 </r>
       <r>   14.3299    0.0000 </r>
       <r>   14.5872    0.0000 </r>
       <r>   14.9415    0.0000 </r>
      </set>
      <set comment="kpoint 11">
       <r>  -52.0623    1.0000 </r>
       <r>  -52.0622    1.0000 </r>
       <r>  -51.9153    1.0000 </r>
       <r>  -51.9103    1.0000 </r>
       <r>  -51.7445    1.0000 </r>
       <r>  -51.7435    1.0000 </r>
       <r>  -25.9138    1.0000 </r>
       <r>  -25.8966    1.0000 </r>
       <r>  -25.7729    1.0000 </r>
       <r>  -25.7340    1.0000 </r>
       <r>  -25.5502    1.0000 </r>
       <r>  -25.5350    1.0000 </r>
       <r>  -25.5330    1.0000 </r>
       <r>  -25.5113    1.0000 </r>
       <r>  -25.3850    1.0000 </r>
       <r>  -25.3636    1.0000 </r>
       <r>  -25.3583    1.0000 </r>
       <r>  -25.3307    1.0000 </r>
       <r>  -25.2543    1.0000 </r>
       <r>  -25.2414    1.0000 </r>
       <r>  -25.2157    1.0000 </r>
       <r>  -25.2010    1.0000 </r>
       <r>  -24.6532    1.0000 </r>
       <r>  -24.6512    1.0000 </r>
       <r>   -1.4508    1.0000 </r>
       <r>   -0.4566    1.0000 </r>
       <r>   -0.0956    1.0000 </r>
       <r>    0.8706    1.0000 </r>
       <r>    1.5282    1.0000 </r>
       <r>    1.7689    1.0000 </r>
       <r>    2.4757    1.0000 </r>
       <r>    3.6573    1.0000 </r>
       <r>    4.0838    1.0000 </r>
       <r>    4.2249    1.0000 </r>
       <r>    4.8349    1.0000 </r>
       <r>    5.1706    1.0000 </r>
       <r>    5.7638    1.0000 </r>
       <r>    5.8436    1.0000 </r>
       <r>    6.1738    1.0000 </r>
       <r>    6.1843    1.0000 </r>
       <r>    6.4012    1.0000 </r>
       <r>    6.5706    1.0000 </r>
       <r>    6.7949    1.0000 </r>
       <r>    7.0250    1.0000 </r>
       <r>    7.0625    1.0000 </r>
       <r>    7.1062    1.0000 </r>
       <r>    7.3042    1.0000 </r>
       <r>    7.6362    1.0000 </r>
       <r>    8.1852    1.0000 </r>
       <r>    8.6962    1.0000 </r>
       <r>    8.7168    1.0000 </r>
       <r>    8.9202    1.0000 </r>
       <r>    9.9199    1.0000 </r>
       <r>   10.7133    1.0000 </r>
       <r>   10.8126    1.0000 </r>
       <r>   10.9936    1.0000 </r>
       <r>   11.0037    1.0000 </r>
       <r>   11.3599    1.0000 </r>
       <r>   11.5314    0.0011 </r>
       <r>   11.7363    0.0000 </r>
       <r>   11.8055    0.0000 </r>
       <r>   11.9203    0.0000 </r>
       <r>   12.4920    0.0000 </r>
       <r>   12.6490    0.0000 </r>
       <r>   12.6612    0.0000 </r>
       <r>   12.8914    0.0000 </r>
       <r>   13.0988    0.0000 </r>
       <r>   13.6073    0.0000 </r>
       <r>   13.9352    0.0000 </r>
       <r>   14.1905    0.0000 </r>
       <r>   14.5579    0.0000 </r>
       <r>   14.7292    0.0000 </r>
      </set>
      <set comment="kpoint 12">
       <r>  -52.0629    1.0000 </r>
       <r>  -52.0614    1.0000 </r>
       <r>  -51.9140    1.0000 </r>
       <r>  -51.9118    1.0000 </r>
       <r>  -51.7443    1.0000 </r>
       <r>  -51.7436    1.0000 </r>
       <r>  -25.9219    1.0000 </r>
       <r>  -25.8858    1.0000 </r>
       <r>  -25.7635    1.0000 </r>
       <r>  -25.7467    1.0000 </r>
       <r>  -25.5676    1.0000 </r>
       <r>  -25.5292    1.0000 </r>
       <r>  -25.5221    1.0000 </r>
       <r>  -25.5084    1.0000 </r>
       <r>  -25.3832    1.0000 </r>
       <r>  -25.3668    1.0000 </r>
       <r>  -25.3537    1.0000 </r>
       <r>  -25.3315    1.0000 </r>
       <r>  -25.2508    1.0000 </r>
       <r>  -25.2444    1.0000 </r>
       <r>  -25.2163    1.0000 </r>
       <r>  -25.2048    1.0000 </r>
       <r>  -24.6528    1.0000 </r>
       <r>  -24.6518    1.0000 </r>
       <r>   -1.0172    1.0000 </r>
       <r>   -0.8987    1.0000 </r>
       <r>   -0.1093    1.0000 </r>
       <r>    0.6632    1.0000 </r>
       <r>    1.5757    1.0000 </r>
       <r>    1.7502    1.0000 </r>
       <r>    2.9782    1.0000 </r>
       <r>    3.3904    1.0000 </r>
       <r>    3.6936    1.0000 </r>
       <r>    4.4478    1.0000 </r>
       <r>    5.1834    1.0000 </r>
       <r>    5.3507    1.0000 </r>
       <r>    5.6641    1.0000 </r>
       <r>    5.7484    1.0000 </r>
       <r>    6.0739    1.0000 </r>
       <r>    6.2992    1.0000 </r>
       <r>    6.3137    1.0000 </r>
       <r>    6.5590    1.0000 </r>
       <r>    6.6366    1.0000 </r>
       <r>    6.8385    1.0000 </r>
       <r>    6.9695    1.0000 </r>
       <r>    7.0994    1.0000 </r>
       <r>    7.2174    1.0000 </r>
       <r>    7.4905    1.0000 </r>
       <r>    8.1970    1.0000 </r>
       <r>    8.6385    1.0000 </r>
       <r>    8.9655    1.0000 </r>
       <r>    9.2029    1.0000 </r>
       <r>   10.0938    1.0000 </r>
       <r>   10.5584    1.0000 </r>
       <r>   10.7116    1.0000 </r>
       <r>   10.8625    1.0000 </r>
       <r>   11.0777    1.0000 </r>
       <r>   11.4818    0.6712 </r>
       <r>   11.6667    0.0000 </r>
       <r>   11.7290    0.0000 </r>
       <r>   11.9166    0.0000 </r>
       <r>   12.1168    0.0000 </r>
       <r>   12.4249    0.0000 </r>
       <r>   12.5819    0.0000 </r>
       <r>   12.9395    0.0000 </r>
       <r>   12.9949    0.0000 </r>
       <r>   13.4846    0.0000 </r>
       <r>   13.5832    0.0000 </r>
       <r>   13.9299    0.0000 </r>
       <r>   14.1467    0.0000 </r>
       <r>   14.6053    0.0000 </r>
       <r>   14.7290    0.0000 </r>
      </set>
      <set comment="kpoint 13">
       <r>  -52.0637    1.0000 </r>
       <r>  -52.0610    1.0000 </r>
       <r>  -51.9136    1.0000 </r>
       <r>  -51.9118    1.0000 </r>
       <r>  -51.7442    1.0000 </r>
       <r>  -51.7437    1.0000 </r>
       <r>  -25.9290    1.0000 </r>
       <r>  -25.8816    1.0000 </r>
       <r>  -25.7627    1.0000 </r>
       <r>  -25.7526    1.0000 </r>
       <r>  -25.5801    1.0000 </r>
       <r>  -25.5350    1.0000 </r>
       <r>  -25.5129    1.0000 </r>
       <r>  -25.5088    1.0000 </r>
       <r>  -25.3916    1.0000 </r>
       <r>  -25.3590    1.0000 </r>
       <r>  -25.3421    1.0000 </r>
       <r>  -25.3343    1.0000 </r>
       <r>  -25.2497    1.0000 </r>
       <r>  -25.2345    1.0000 </r>
       <r>  -25.2259    1.0000 </r>
       <r>  -25.1950    1.0000 </r>
       <r>  -24.6551    1.0000 </r>
       <r>  -24.6504    1.0000 </r>
       <r>   -1.5959    1.0000 </r>
       <r>   -0.3339    1.0000 </r>
       <r>    0.1592    1.0000 </r>
       <r>    0.4861    1.0000 </r>
       <r>    1.4181    1.0000 </r>
       <r>    2.0780    1.0000 </r>
       <r>    2.9443    1.0000 </r>
       <r>    3.3698    1.0000 </r>
       <r>    3.5581    1.0000 </r>
       <r>    4.7905    1.0000 </r>
       <r>    4.9570    1.0000 </r>
       <r>    5.0834    1.0000 </r>
       <r>    5.5494    1.0000 </r>
       <r>    5.6504    1.0000 </r>
       <r>    6.1000    1.0000 </r>
       <r>    6.2926    1.0000 </r>
       <r>    6.3570    1.0000 </r>
       <r>    6.5738    1.0000 </r>
       <r>    6.7196    1.0000 </r>
       <r>    6.8157    1.0000 </r>
       <r>    7.0449    1.0000 </r>
       <r>    7.2177    1.0000 </r>
       <r>    7.3050    1.0000 </r>
       <r>    7.6664    1.0000 </r>
       <r>    8.2071    1.0000 </r>
       <r>    8.5925    1.0000 </r>
       <r>    8.8766    1.0000 </r>
       <r>    9.6502    1.0000 </r>
       <r>    9.6658    1.0000 </r>
       <r>   10.1604    1.0000 </r>
       <r>   10.2190    1.0000 </r>
       <r>   10.5764    1.0000 </r>
       <r>   11.1335    1.0000 </r>
       <r>   11.3529    1.0000 </r>
       <r>   11.6845    0.0000 </r>
       <r>   12.0129    0.0000 </r>
       <r>   12.2255    0.0000 </r>
       <r>   12.4051    0.0000 </r>
       <r>   12.5049    0.0000 </r>
       <r>   12.5661    0.0000 </r>
       <r>   13.0332    0.0000 </r>
       <r>   13.2341    0.0000 </r>
       <r>   13.3556    0.0000 </r>
       <r>   13.7651    0.0000 </r>
       <r>   14.0700    0.0000 </r>
       <r>   14.0993    0.0000 </r>
       <r>   14.2730    0.0000 </r>
       <r>   14.3511    0.0000 </r>
      </set>
      <set comment="kpoint 14">
       <r>  -52.0645    1.0000 </r>
       <r>  -52.0608    1.0000 </r>
       <r>  -51.9145    1.0000 </r>
       <r>  -51.9102    1.0000 </r>
       <r>  -51.7442    1.0000 </r>
       <r>  -51.7438    1.0000 </r>
       <r>  -25.9340    1.0000 </r>
       <r>  -25.8832    1.0000 </r>
       <r>  -25.7736    1.0000 </r>
       <r>  -25.7440    1.0000 </r>
       <r>  -25.5785    1.0000 </r>
       <r>  -25.5400    1.0000 </r>
       <r>  -25.5195    1.0000 </r>
       <r>  -25.5177    1.0000 </r>
       <r>  -25.3898    1.0000 </r>
       <r>  -25.3459    1.0000 </r>
       <r>  -25.3440    1.0000 </r>
       <r>  -25.3373    1.0000 </r>
       <r>  -25.2367    1.0000 </r>
       <r>  -25.2321    1.0000 </r>
       <r>  -25.2265    1.0000 </r>
       <r>  -25.1895    1.0000 </r>
       <r>  -24.6564    1.0000 </r>
       <r>  -24.6499    1.0000 </r>
       <r>   -2.0023    1.0000 </r>
       <r>    0.0399    1.0000 </r>
       <r>    0.4711    1.0000 </r>
       <r>    0.5222    1.0000 </r>
       <r>    1.3376    1.0000 </r>
       <r>    2.3575    1.0000 </r>
       <r>    2.5031    1.0000 </r>
       <r>    3.3244    1.0000 </r>
       <r>    4.1305    1.0000 </r>
       <r>    4.1776    1.0000 </r>
       <r>    4.6818    1.0000 </r>
       <r>    5.0049    1.0000 </r>
       <r>    5.6040    1.0000 </r>
       <r>    5.6394    1.0000 </r>
       <r>    6.1848    1.0000 </r>
[...]
       <r>   12.0865    0.0000 </r>
       <r>   12.1198    0.0000 </r>
       <r>   12.2875    0.0000 </r>
       <r>   12.3719    0.0000 </r>
       <r>   12.6670    0.0000 </r>
       <r>   13.0559    0.0000 </r>
       <r>   13.5622    0.0000 </r>
       <r>   13.6738    0.0000 </r>
       <r>   13.8985    0.0000 </r>
       <r>   14.1301    0.0000 </r>
       <r>   14.8032    0.0000 </r>
      </set>
      <set comment="kpoint 116">
       <r>  -52.0625    1.0000 </r>
       <r>  -52.0610    1.0000 </r>
       <r>  -51.9197    1.0000 </r>
       <r>  -51.9065    1.0000 </r>
       <r>  -51.7447    1.0000 </r>
       <r>  -51.7437    1.0000 </r>
       <r>  -25.9262    1.0000 </r>
       <r>  -25.8644    1.0000 </r>
       <r>  -25.7881    1.0000 </r>
       <r>  -25.6889    1.0000 </r>
       <r>  -25.5306    1.0000 </r>
       <r>  -25.5276    1.0000 </r>
       <r>  -25.5139    1.0000 </r>
       <r>  -25.5057    1.0000 </r>
       <r>  -25.4133    1.0000 </r>
       <r>  -25.3849    1.0000 </r>
       <r>  -25.3584    1.0000 </r>
       <r>  -25.3510    1.0000 </r>
       <r>  -25.2820    1.0000 </r>
       <r>  -25.2452    1.0000 </r>
       <r>  -25.2440    1.0000 </r>
       <r>  -25.1839    1.0000 </r>
       <r>  -24.6492    1.0000 </r>
       <r>  -24.6479    1.0000 </r>
       <r>   -1.4337    1.0000 </r>
       <r>   -0.0273    1.0000 </r>
       <r>    0.4756    1.0000 </r>
       <r>    0.8706    1.0000 </r>
       <r>    0.9442    1.0000 </r>
       <r>    1.0888    1.0000 </r>
       <r>    1.7533    1.0000 </r>
       <r>    3.9977    1.0000 </r>
       <r>    4.4253    1.0000 </r>
       <r>    4.9249    1.0000 </r>
       <r>    5.1251    1.0000 </r>
       <r>    5.1337    1.0000 </r>
       <r>    5.4020    1.0000 </r>
       <r>    5.9833    1.0000 </r>
       <r>    6.1187    1.0000 </r>
       <r>    6.1537    1.0000 </r>
       <r>    6.2405    1.0000 </r>
       <r>    6.2932    1.0000 </r>
       <r>    6.5570    1.0000 </r>
       <r>    6.7787    1.0000 </r>
       <r>    6.8270    1.0000 </r>
       <r>    6.8704    1.0000 </r>
       <r>    7.6461    1.0000 </r>
       <r>    7.7230    1.0000 </r>
       <r>    8.4817    1.0000 </r>
       <r>    8.9022    1.0000 </r>
       <r>    8.9829    1.0000 </r>
       <r>    9.1910    1.0000 </r>
       <r>    9.9416    1.0000 </r>
       <r>   10.4234    1.0000 </r>
       <r>   11.1245    1.0000 </r>
       <r>   11.4263    1.0000 </r>
       <r>   11.4811    0.6889 </r>
       <r>   11.4947    0.3184 </r>
       <r>   11.7481    0.0000 </r>
       <r>   11.8963    0.0000 </r>
       <r>   12.0159    0.0000 </r>
       <r>   12.1946    0.0000 </r>
       <r>   12.2000    0.0000 </r>
       <r>   12.3185    0.0000 </r>
       <r>   12.4806    0.0000 </r>
       <r>   12.8279    0.0000 </r>
       <r>   12.9259    0.0000 </r>
       <r>   13.5510    0.0000 </r>
       <r>   13.5585    0.0000 </r>
       <r>   13.8642    0.0000 </r>
       <r>   14.1008    0.0000 </r>
       <r>   14.6629    0.0000 </r>
      </set>
     </set>
    </set>
   </array>
  </eigenvalues>
  <separator name="orbital magnetization" >
   <v name="MAGDIPOLOUT">      0.00000000      0.00000000      0.00000000</v>
  </separator>
  <dos>
   <i name="efermi">     11.48804301 </i>
   <total>
    <array>
     <dimension dim="1">gridpoints</dimension>
     <dimension dim="2">spin</dimension>
     <field>energy</field>
     <field>total</field>
     <field>integrated</field>
     <set>
      <set comment="spin 1">
       <r>   -55.4256     0.0000     0.0000 </r>
       <r>   -55.1792     0.0000     0.0000 </r>
       <r>   -54.9329     0.0000     0.0000 </r>
       <r>   -54.6865     0.0000     0.0000 </r>
       <r>   -54.4402     0.0000     0.0000 </r>
       <r>   -54.1938     0.0000     0.0000 </r>
       <r>   -53.9475     0.0000     0.0000 </r>
       <r>   -53.7012     0.0000     0.0000 </r>
       <r>   -53.4548     0.0000     0.0000 </r>
       <r>   -53.2085     0.0000     0.0000 </r>
       <r>   -52.9621     0.0000     0.0000 </r>
       <r>   -52.7158     0.0000     0.0000 </r>
       <r>   -52.4694     0.0000     0.0000 </r>
       <r>   -52.2231     0.0000     0.0000 </r>
       <r>   -51.9767    16.2375     4.0000 </r>
       <r>   -51.7304    13.5150    11.3293 </r>
       <r>   -51.4841     0.0000    12.0000 </r>
       <r>   -51.2377     0.0000    12.0000 </r>
       <r>   -50.9914     0.0000    12.0000 </r>
       <r>   -50.7450     0.0000    12.0000 </r>
       <r>   -50.4987     0.0000    12.0000 </r>
       <r>   -50.2523     0.0000    12.0000 </r>
       <r>   -50.0060     0.0000    12.0000 </r>
       <r>   -49.7596     0.0000    12.0000 </r>
       <r>   -49.5133     0.0000    12.0000 </r>
       <r>   -49.2670     0.0000    12.0000 </r>
       <r>   -49.0206     0.0000    12.0000 </r>
       <r>   -48.7743     0.0000    12.0000 </r>
       <r>   -48.5279     0.0000    12.0000 </r>
       <r>   -48.2816     0.0000    12.0000 </r>
       <r>   -48.0352     0.0000    12.0000 </r>
       <r>   -47.7889     0.0000    12.0000 </r>
       <r>   -47.5426     0.0000    12.0000 </r>
       <r>   -47.2962     0.0000    12.0000 </r>
       <r>   -47.0499     0.0000    12.0000 </r>
       <r>   -46.8035     0.0000    12.0000 </r>
       <r>   -46.5572     0.0000    12.0000 </r>
       <r>   -46.3108     0.0000    12.0000 </r>
       <r>   -46.0645     0.0000    12.0000 </r>
       <r>   -45.8181     0.0000    12.0000 </r>
       <r>   -45.5718     0.0000    12.0000 </r>
       <r>   -45.3255     0.0000    12.0000 </r>
       <r>   -45.0791     0.0000    12.0000 </r>
       <r>   -44.8328     0.0000    12.0000 </r>
       <r>   -44.5864     0.0000    12.0000 </r>
       <r>   -44.3401     0.0000    12.0000 </r>
       <r>   -44.0937     0.0000    12.0000 </r>
       <r>   -43.8474     0.0000    12.0000 </r>
       <r>   -43.6010     0.0000    12.0000 </r>
       <r>   -43.3547     0.0000    12.0000 </r>
       <r>   -43.1084     0.0000    12.0000 </r>
       <r>   -42.8620     0.0000    12.0000 </r>
       <r>   -42.6157     0.0000    12.0000 </r>
       <r>   -42.3693     0.0000    12.0000 </r>
       <r>   -42.1230     0.0000    12.0000 </r>
       <r>   -41.8766     0.0000    12.0000 </r>
       <r>   -41.6303     0.0000    12.0000 </r>
       <r>   -41.3839     0.0000    12.0000 </r>
       <r>   -41.1376     0.0000    12.0000 </r>
       <r>   -40.8913     0.0000    12.0000 </r>
       <r>   -40.6449     0.0000    12.0000 </r>
       <r>   -40.3986     0.0000    12.0000 </r>
       <r>   -40.1522     0.0000    12.0000 </r>
       <r>   -39.9059     0.0000    12.0000 </r>
       <r>   -39.6595     0.0000    12.0000 </r>
       <r>   -39.4132     0.0000    12.0000 </r>
       <r>   -39.1668     0.0000    12.0000 </r>
       <r>   -38.9205     0.0000    12.0000 </r>
       <r>   -38.6742     0.0000    12.0000 </r>
       <r>   -38.4278     0.0000    12.0000 </r>
       <r>   -38.1815     0.0000    12.0000 </r>
       <r>   -37.9351     0.0000    12.0000 </r>
       <r>   -37.6888     0.0000    12.0000 </r>
       <r>   -37.4424     0.0000    12.0000 </r>
       <r>   -37.1961     0.0000    12.0000 </r>
       <r>   -36.9497     0.0000    12.0000 </r>
       <r>   -36.7034     0.0000    12.0000 </r>
       <r>   -36.4571     0.0000    12.0000 </r>
       <r>   -36.2107     0.0000    12.0000 </r>
       <r>   -35.9644     0.0000    12.0000 </r>
       <r>   -35.7180     0.0000    12.0000 </r>
       <r>   -35.4717     0.0000    12.0000 </r>
       <r>   -35.2253     0.0000    12.0000 </r>
       <r>   -34.9790     0.0000    12.0000 </r>
       <r>   -34.7327     0.0000    12.0000 </r>
       <r>   -34.4863     0.0000    12.0000 </r>
       <r>   -34.2400     0.0000    12.0000 </r>
       <r>   -33.9936     0.0000    12.0000 </r>
       <r>   -33.7473     0.0000    12.0000 </r>
       <r>   -33.5009     0.0000    12.0000 </r>
       <r>   -33.2546     0.0000    12.0000 </r>
       <r>   -33.0082     0.0000    12.0000 </r>
       <r>   -32.7619     0.0000    12.0000 </r>
       <r>   -32.5156     0.0000    12.0000 </r>
       <r>   -32.2692     0.0000    12.0000 </r>
       <r>   -32.0229     0.0000    12.0000 </r>
       <r>   -31.7765     0.0000    12.0000 </r>
       <r>   -31.5302     0.0000    12.0000 </r>
       <r>   -31.2838     0.0000    12.0000 </r>
       <r>   -31.0375     0.0000    12.0000 </r>
       <r>   -30.7911     0.0000    12.0000 </r>
       <r>   -30.5448     0.0000    12.0000 </r>
       <r>   -30.2985     0.0000    12.0000 </r>
       <r>   -30.0521     0.0000    12.0000 </r>
       <r>   -29.8058     0.0000    12.0000 </r>
       <r>   -29.5594     0.0000    12.0000 </r>
       <r>   -29.3131     0.0000    12.0000 </r>
       <r>   -29.0667     0.0000    12.0000 </r>
       <r>   -28.8204     0.0000    12.0000 </r>
       <r>   -28.5740     0.0000    12.0000 </r>
       <r>   -28.3277     0.0000    12.0000 </r>
       <r>   -28.0814     0.0000    12.0000 </r>
       <r>   -27.8350     0.0000    12.0000 </r>
       <r>   -27.5887     0.0000    12.0000 </r>
       <r>   -27.3423     0.0000    12.0000 </r>
       <r>   -27.0960     0.0000    12.0000 </r>
       <r>   -26.8496     0.0000    12.0000 </r>
       <r>   -26.6033     0.0000    12.0000 </r>
       <r>   -26.3569     0.0000    12.0000 </r>
       <r>   -26.1106     0.0000    12.0000 </r>
       <r>   -25.8643    15.5094    15.8207 </r>
       <r>   -25.6179    13.4906    20.0019 </r>
       <r>   -25.3716    28.8462    30.8714 </r>
       <r>   -25.1252    32.4749    44.0000 </r>
       <r>   -24.8789     0.0000    44.0000 </r>
       <r>   -24.6325    14.8897    47.6680 </r>
       <r>   -24.3862     0.0000    48.0000 </r>
       <r>   -24.1398     0.0000    48.0000 </r>
       <r>   -23.8935     0.0000    48.0000 </r>
       <r>   -23.6472     0.0000    48.0000 </r>
       <r>   -23.4008     0.0000    48.0000 </r>
       <r>   -23.1545     0.0000    48.0000 </r>
       <r>   -22.9081     0.0000    48.0000 </r>
       <r>   -22.6618     0.0000    48.0000 </r>
       <r>   -22.4154     0.0000    48.0000 </r>
       <r>   -22.1691     0.0000    48.0000 </r>
       <r>   -21.9227     0.0000    48.0000 </r>
       <r>   -21.6764     0.0000    48.0000 </r>
       <r>   -21.4301     0.0000    48.0000 </r>
       <r>   -21.1837     0.0000    48.0000 </r>
       <r>   -20.9374     0.0000    48.0000 </r>
       <r>   -20.6910     0.0000    48.0000 </r>
       <r>   -20.4447     0.0000    48.0000 </r>
       <r>   -20.1983     0.0000    48.0000 </r>
       <r>   -19.9520     0.0000    48.0000 </r>
       <r>   -19.7057     0.0000    48.0000 </r>
       <r>   -19.4593     0.0000    48.0000 </r>
       <r>   -19.2130     0.0000    48.0000 </r>
       <r>   -18.9666     0.0000    48.0000 </r>
       <r>   -18.7203     0.0000    48.0000 </r>
       <r>   -18.4739     0.0000    48.0000 </r>
       <r>   -18.2276     0.0000    48.0000 </r>
       <r>   -17.9812     0.0000    48.0000 </r>
       <r>   -17.7349     0.0000    48.0000 </r>
       <r>   -17.4886     0.0000    48.0000 </r>
       <r>   -17.2422     0.0000    48.0000 </r>
       <r>   -16.9959     0.0000    48.0000 </r>
       <r>   -16.7495     0.0000    48.0000 </r>
       <r>   -16.5032     0.0000    48.0000 </r>
       <r>   -16.2568     0.0000    48.0000 </r>
       <r>   -16.0105     0.0000    48.0000 </r>
       <r>   -15.7641     0.0000    48.0000 </r>
       <r>   -15.5178     0.0000    48.0000 </r>
       <r>   -15.2715     0.0000    48.0000 </r>
       <r>   -15.0251     0.0000    48.0000 </r>
       <r>   -14.7788     0.0000    48.0000 </r>
       <r>   -14.5324     0.0000    48.0000 </r>
       <r>   -14.2861     0.0000    48.0000 </r>
       <r>   -14.0397     0.0000    48.0000 </r>
       <r>   -13.7934     0.0000    48.0000 </r>
       <r>   -13.5470     0.0000    48.0000 </r>
       <r>   -13.3007     0.0000    48.0000 </r>
       <r>   -13.0544     0.0000    48.0000 </r>
       <r>   -12.8080     0.0000    48.0000 </r>
       <r>   -12.5617     0.0000    48.0000 </r>
       <r>   -12.3153     0.0000    48.0000 </r>
       <r>   -12.0690     0.0000    48.0000 </r>
       <r>   -11.8226     0.0000    48.0000 </r>
       <r>   -11.5763     0.0000    48.0000 </r>
       <r>   -11.3299     0.0000    48.0000 </r>
       <r>   -11.0836     0.0000    48.0000 </r>
       <r>   -10.8373     0.0000    48.0000 </r>
       <r>   -10.5909     0.0000    48.0000 </r>
       <r>   -10.3446     0.0000    48.0000 </r>
       <r>   -10.0982     0.0000    48.0000 </r>
       <r>    -9.8519     0.0000    48.0000 </r>
       <r>    -9.6055     0.0000    48.0000 </r>
       <r>    -9.3592     0.0000    48.0000 </r>
       <r>    -9.1128     0.0000    48.0000 </r>
       <r>    -8.8665     0.0000    48.0000 </r>
       <r>    -8.6202     0.0000    48.0000 </r>
       <r>    -8.3738     0.0000    48.0000 </r>
       <r>    -8.1275     0.0000    48.0000 </r>
       <r>    -7.8811     0.0000    48.0000 </r>
       <r>    -7.6348     0.0000    48.0000 </r>
       <r>    -7.3884     0.0000    48.0000 </r>
       <r>    -7.1421     0.0000    48.0000 </r>
       <r>    -6.8957     0.0000    48.0000 </r>
       <r>    -6.6494     0.0000    48.0000 </r>
       <r>    -6.4031     0.0000    48.0000 </r>
       <r>    -6.1567     0.0000    48.0000 </r>
       <r>    -5.9104     0.0000    48.0000 </r>
       <r>    -5.6640     0.0000    48.0000 </r>
       <r>    -5.4177     0.0000    48.0000 </r>
       <r>    -5.1713     0.0000    48.0000 </r>
       <r>    -4.9250     0.0000    48.0000 </r>
       <r>    -4.6787     0.0000    48.0000 </r>
       <r>    -4.4323     0.0000    48.0000 </r>
       <r>    -4.1860     0.0000    48.0000 </r>
       <r>    -3.9396     0.0000    48.0000 </r>
       <r>    -3.6933     0.0000    48.0000 </r>
       <r>    -3.4469     0.0000    48.0000 </r>
       <r>    -3.2006     0.0000    48.0000 </r>
       <r>    -2.9542     0.0000    48.0000 </r>
       <r>    -2.7079     0.0000    48.0000 </r>
       <r>    -2.4616     0.2574    48.0685 </r>
       <r>    -2.2152     0.5105    48.2125 </r>
       <r>    -1.9689     0.3842    48.4059 </r>
       <r>    -1.7225     0.8436    48.7333 </r>
       <r>    -1.4762     0.8215    49.0340 </r>
       <r>    -1.2298     1.3647    49.5556 </r>
       <r>    -0.9835     1.2462    50.0366 </r>
       <r>    -0.7371     1.7485    50.6144 </r>
       <r>    -0.4908     1.1020    51.0215 </r>
       <r>    -0.2445     1.5867    51.6511 </r>
       <r>     0.0019     1.3374    52.1101 </r>
       <r>     0.2482     1.2099    52.6858 </r>
       <r>     0.4946     1.9946    53.3230 </r>
       <r>     0.7409     2.1176    53.9604 </r>
       <r>     0.9873     3.4319    54.9985 </r>
       <r>     1.2336     2.8861    56.1650 </r>
       <r>     1.4800     4.4337    57.5361 </r>
       <r>     1.7263     3.5610    59.0507 </r>
       <r>     1.9726     2.0603    59.9616 </r>
       <r>     2.2190     1.7701    60.6452 </r>
       <r>     2.4653     1.4982    61.1548 </r>
       <r>     2.7117     0.6982    61.6108 </r>
       <r>     2.9580     1.3770    62.0127 </r>
       <r>     3.2044     0.7712    62.4553 </r>
       <r>     3.4507     1.6073    63.0082 </r>
       <r>     3.6971     2.3352    63.9069 </r>
       <r>     3.9434     1.6298    64.6107 </r>
       <r>     4.1897     3.2335    65.7506 </r>
       <r>     4.4361     3.3267    66.8909 </r>
       <r>     4.6824     2.7885    68.0798 </r>
       <r>     4.9288     3.0840    69.1322 </r>
       <r>     5.1751     3.4612    70.3680 </r>
       <r>     5.4215     5.0545    72.0054 </r>
       <r>     5.6678     5.2275    73.7776 </r>
       <r>     5.9142     4.8500    75.4805 </r>
       <r>     6.1605     6.1245    77.4475 </r>
       <r>     6.4068    11.0497    81.1965 </r>
       <r>     6.6532     7.8809    84.5230 </r>
       <r>     6.8995     6.7174    87.0324 </r>
       <r>     7.1459     7.4091    89.6925 </r>
       <r>     7.3922     6.6811    92.4316 </r>
       <r>     7.6386     3.9227    94.0531 </r>
       <r>     7.8849     2.8301    95.5696 </r>
       <r>     8.1313     3.0266    96.6283 </r>
       <r>     8.3776     3.7166    98.2064 </r>
       <r>     8.6239     3.9528    99.7391 </r>
       <r>     8.8703     4.6241   101.5218 </r>
       <r>     9.1166     2.5400   102.7380 </r>
       <r>     9.3630     2.4748   103.8239 </r>
       <r>     9.6093     2.1456   104.6612 </r>
       <r>     9.8557     1.6143   105.4946 </r>
       <r>    10.1020     3.5879   106.9145 </r>
       <r>    10.3483     2.9838   108.1228 </r>
       <r>    10.5947     4.3668   109.6012 </r>
       <r>    10.8410     4.2771   111.0894 </r>
       <r>    11.0874     4.4690   112.6621 </r>
       <r>    11.3337     5.5255   114.6367 </r>
       <r>    11.5801     5.9217   116.8414 </r>
       <r>    11.8264     7.3931   119.5100 </r>
       <r>    12.0728     6.5027   121.8621 </r>
       <r>    12.3191     6.0267   124.2091 </r>
       <r>    12.5654     9.0612   127.1301 </r>
       <r>    12.8118     5.5201   129.2272 </r>
       <r>    13.0581     4.5011   131.0833 </r>
       <r>    13.3045     4.0658   132.4659 </r>
       <r>    13.5508     4.7347   134.1204 </r>
       <r>    13.7972     3.8174   135.7669 </r>
       <r>    14.0435     5.3951   137.8291 </r>
       <r>    14.2899     7.3620   140.3901 </r>
       <r>    14.5362     5.2752   142.2077 </r>
       <r>    14.7825     2.8926   143.6156 </r>
       <r>    15.0289     0.7142   143.9821 </r>
       <r>    15.2752     0.0207   144.0000 </r>
       <r>    15.5216     0.0000   144.0000 </r>
       <r>    15.7679     0.0000   144.0000 </r>
       <r>    16.0143     0.0000   144.0000 </r>
       <r>    16.2606     0.0000   144.0000 </r>
       <r>    16.5070     0.0000   144.0000 </r>
       <r>    16.7533     0.0000   144.0000 </r>
       <r>    16.9996     0.0000   144.0000 </r>
       <r>    17.2460     0.0000   144.0000 </r>
       <r>    17.4923     0.0000   144.0000 </r>
       <r>    17.7387     0.0000   144.0000 </r>
       <r>    17.9850     0.0000   144.0000 </r>
       <r>    18.2314     0.0000   144.0000 </r>
       <r>    18.4777     0.0000   144.0000 </r>
      </set>
     </set>
    </array>
   </total>
  </dos>
 </calculation>
 <structure name="finalpos" >
  <crystal>
   <varray name="basis" >
    <v>       5.44483833       0.00000000      -3.01092191 </v>
    <v>      -1.89368244       5.10492225      -3.01092191 </v>
    <v>       0.00000000       0.00000000       6.22189000 </v>
   </varray>
   <i name="volume">    172.94039637 </i>
   <varray name="rec_basis" >
    <v>       0.18366018       0.06812916       0.00000000 </v>
    <v>       0.00000000       0.19588937       0.00000000 </v>
    <v>       0.08887757       0.12776490       0.16072287 </v>
   </varray>
  </crystal>
  <varray name="positions" >
   <v>       0.63504000       0.13504000       0.19049000 </v>
   <v>       0.36496000       0.86496000       0.80951000 </v>
   <v>       0.13504000       0.94455000       0.50000000 </v>
   <v>       0.86496000       0.05545000       0.50000000 </v>
   <v>       0.94455000       0.44455000       0.80951000 </v>
   <v>       0.05545000       0.55545000       0.19049000 </v>
   <v>       0.44455000       0.63504000       0.50000000 </v>
   <v>       0.55545000       0.36496000       0.50000000 </v>
   <v>       0.13892000       0.36108000       0.50000000 </v>
   <v>       0.25000000       0.25000000       0.00000000 </v>
   <v>       0.86108000       0.63892000       0.50000000 </v>
   <v>       0.75000000       0.75000000       0.00000000 </v>
   <v>       0.36108000       0.86108000       0.22215000 </v>
   <v>       0.63892000       0.13892000       0.77785000 </v>
   <v>       0.50000000       0.50000000       0.00000000 </v>
   <v>       0.00000000       0.00000000       0.00000000 </v>
  </varray>
 </structure>
</modeling>
